Title
81347
    1CHL1    C3    1   1.575   4.206  10.320 -0.5560  0.5696  0.1423
    1CHL1    H3    2   1.685   4.208  10.339 -0.1613 -0.0158 -1.8326
    1CHL1    O3    3   1.517   4.187  10.446  0.0813  0.4321  0.2886
    1CHL1   H3'    4   1.425   4.180  10.420 -0.6289  1.0861  2.4275
    1CHL1    C4    5   1.523   4.333  10.264  0.9578 -0.0371  0.0530
    1CHL1   H4A    6   1.412   4.331  10.269  0.9384  1.5771  1.1597
    1CHL1   H4B    7   1.548   4.419  10.330  0.6434 -0.4650  0.7485
    1CHL1    C5    8   1.567   4.363  10.121  0.1323 -0.0910  0.2557
    1CHL1    C6    9   1.623   4.483  10.090 -1.3665  0.3854 -0.2370
    1CHL1    H6   10   1.621   4.561  10.168 -1.1353  1.7543 -1.5690
    1CHL1    C7   11   1.669   4.523   9.950  0.0847  0.9151 -0.0565
    1CHL1   H7A   12   1.630   4.624   9.927 -1.8704  0.7481  2.1180
    1CHL1   H7B   13   1.780   4.529   9.952  0.4162 -2.5367 -0.8236
    1CHL1    C8   14   1.632   4.417   9.844  0.5041 -0.0259 -0.2850
    1CHL1    H8   15   1.522   4.433   9.833 -0.0221 -0.5436  3.1832
    1CHL1   C14   16   1.698   4.438   9.708  0.1450 -0.1588  0.7634
    1CHL1   H14   17   1.806   4.434   9.734  0.2584 -0.0494  0.3194
    1CHL1   C15   18   1.677   4.575   9.640  0.7500 -0.8585 -0.4181
    1CHL1  H15A   19   1.573   4.611   9.627  1.0670 -0.1268 -0.9913
    1CHL1  H15B   20   1.720   4.658   9.699  2.7410 -1.5855 -0.7724
    1CHL1   C16   21   1.740   4.560   9.499  0.2627 -0.6587  0.7188
    1CHL1  H16A   22   1.682   4.616   9.423 -0.6393 -2.5744 -0.0746
    1CHL1  H16B   23   1.844   4.600   9.497 -0.3681  1.0338  0.2749
    1CHL1   C17   24   1.740   4.404   9.474 -1.0590 -0.2600  0.1342
    1CHL1   H17   25   1.847   4.373   9.482 -0.0704  3.0093  1.2163
    1CHL1   C13   26   1.667   4.336   9.597  0.1917  0.3556 -0.1228
    1CHL1   C18   27   1.520   4.339   9.558  0.0656  0.8551  0.3186
    1CHL1  H18A   28   1.484   4.259   9.489  0.7177 -0.0470  1.0128
    1CHL1  H18B   29   1.460   4.335   9.651 -1.5968 -0.2532 -0.7412
    1CHL1  H18C   30   1.487   4.436   9.514  0.0661  0.7202  0.0172
    1CHL1   C12   31   1.723   4.200   9.652  0.6068 -0.5700 -0.7123
    1CHL1  H12A   32   1.720   4.124   9.572 -0.4103 -1.4547  0.1438
    1CHL1  H12B   33   1.828   4.215   9.687 -0.2384  0.5893  1.5629
    1CHL1   C11   34   1.643   4.164   9.781  0.5964 -0.2365 -0.0731
    1CHL1  H11A   35   1.539   4.137   9.752  1.5780 -3.6091 -0.9812
    1CHL1  H11B   36   1.692   4.078   9.832  0.7918 -0.2737 -0.3227
    1CHL1    C9   37   1.648   4.271   9.900 -0.2874 -0.6809  0.1107
    1CHL1    H9   38   1.753   4.269   9.936 -0.5207  0.5969  0.9132
    1CHL1   C10   39   1.558   4.245  10.023  0.2973 -0.2958  0.7885
    1CHL1   C19   40   1.408   4.246   9.983 -0.2340 -0.5434  0.3616
    1CHL1  H19A   41   1.346   4.233  10.075  0.8372  2.2052  1.5839
    1CHL1  H19B   42   1.377   4.344   9.940  0.2537 -0.6218 -0.1692
    1CHL1  H19C   43   1.385   4.157   9.920  0.6143 -1.9489  1.9569
    1CHL1    C1   44   1.591   4.106  10.092  0.4122  0.2210  0.3658
    1CHL1   H1A   45   1.569   4.012  10.038 -0.5956  0.1904  0.8108
    1CHL1   H1B   46   1.702   4.111  10.103  0.4318  0.0763  0.2422
    1CHL1    C2   47   1.537   4.090  10.228  0.6244  0.1890  0.0948
    1CHL1   H2A   48   1.577   3.999  10.279 -0.4259  0.9521  2.4050
    1CHL1   H2B   49   1.427   4.081  10.217  0.5329  0.4114  0.7640
    1CHL1   C20   50   1.702   4.357   9.329 -0.0626  0.3613 -0.0737
    1CHL1   H20   51   1.597   4.389   9.311 -0.1800 -0.4347 -0.9370
    1CHL1   C21   52   1.721   4.202   9.308 -0.4593 -1.1729  0.3982
    1CHL1  H21A   53   1.679   4.162   9.214  1.4424 -0.9839 -0.5656
    1CHL1  H21B   54   1.682   4.135   9.388  1.6974 -2.9699  0.0224
    1CHL1  H21C   55   1.830   4.194   9.324 -0.0024  0.2896 -1.6692
    1CHL1   C22   56   1.786   4.428   9.220  0.5673 -0.0544 -0.3195
    1CHL1  H22A   57   1.786   4.538   9.229 -2.4261 -0.0617  0.9511
    1CHL1  H22B   58   1.893   4.409   9.241  0.5545  0.0913 -0.1235
    1CHL1   C23   59   1.762   4.403   9.073  0.8688 -0.2419 -0.2809
    1CHL1  H23A   60   1.766   4.293   9.054 -1.8804 -0.3937 -0.3516
    1CHL1  H23B   61   1.658   4.428   9.044  0.6347  1.9286  2.1515
    1CHL1   C24   62   1.858   4.480   8.974 -0.9080  0.6146 -0.3144
    1CHL1  H24A   63   1.856   4.590   8.992 -1.7468  0.5832 -0.1739
    1CHL1  H24B   64   1.964   4.446   8.980 -0.6575  1.3176 -0.6184
    1CHL1   C25   65   1.805   4.477   8.826  0.3504 -0.0791 -0.0356
    1CHL1   H25   66   1.709   4.532   8.818  0.4922 -0.0955 -2.4466
    1CHL1   C26   67   1.903   4.545   8.727  0.4259  0.1619 -0.0431
    1CHL1  H26A   68   1.864   4.547   8.623  0.5767  0.2956 -0.0958
    1CHL1  H26B   69   1.938   4.646   8.759 -1.3850  1.0411 -0.7165
    1CHL1  H26C   70   1.994   4.481   8.722  0.3629 -0.0963  1.5832
    1CHL1   C27   71   1.802   4.329   8.775  0.1470 -0.0700  0.0901
    1CHL1  H27A   72   1.740   4.264   8.840  0.0919 -1.1517 -1.0038
    1CHL1  H27B   73   1.755   4.328   8.674 -1.9364 -0.4589  1.0344
    1CHL1  H27C   74   1.904   4.284   8.768 -0.0435 -0.6755  0.9972
    2CHL1    C3   75   1.041   1.975  10.008  0.5946 -0.2791 -0.2905
    2CHL1    H3   76   0.959   2.043   9.978 -0.3472 -1.1713  0.2092
    2CHL1    O3   77   1.036   1.962  10.145  0.5935  0.1080 -0.5500
    2CHL1   H3'   78   1.097   2.025  10.183 -0.3500  0.9896 -0.4706
    2CHL1    C4   79   1.016   1.846   9.936 -0.2210 -0.5077  0.0381
    2CHL1   H4A   80   1.082   1.763   9.969 -0.2435 -0.1158  1.1231
    2CHL1   H4B   81   0.918   1.815   9.977  1.1122 -2.2204  2.1657
    2CHL1    C5   82   1.025   1.862   9.788 -0.3929  0.4450 -0.0992
    2CHL1    C6   83   0.925   1.820   9.707  0.3303  0.3006 -0.0443
    2CHL1    H6   84   0.839   1.762   9.744  1.1308 -1.0294 -0.2150
    2CHL1    C7   85   0.919   1.838   9.556 -0.1205 -0.3906 -0.0284
    2CHL1   H7A   86   0.885   1.746   9.503  0.8686 -0.7741 -0.0171
    2CHL1   H7B   87   0.842   1.912   9.524  1.8791  1.2730 -1.2567
    2CHL1    C8   88   1.046   1.885   9.504 -0.6812  0.2984 -0.0174
    2CHL1    H8   89   1.106   1.792   9.501 -0.1843  0.5375  1.4086
    2CHL1   C14   90   1.031   1.936   9.366 -0.4820  0.4282 -0.4618
    2CHL1   H14   91   0.995   2.041   9.375  0.5417  0.6240  2.2382
    2CHL1   C15   92   0.943   1.847   9.276 -0.5101  0.1743 -0.0784
    2CHL1  H15A   93   0.967   1.739   9.279 -2.1260 -0.2104  0.1977
    2CHL1  H15B   94   0.837   1.857   9.309  0.0549 -1.9679  2.7664
    2CHL1   C16   95   0.984   1.905   9.133 -0.2890 -0.6017  0.0207
    2CHL1  H16A   96   0.994   1.820   9.062  0.4663  0.4486 -1.1679
    2CHL1  H16B   97   0.905   1.974   9.098 -0.4902 -0.9332 -0.1884
    2CHL1   C17   98   1.108   1.999   9.151  0.5302  0.1917  0.0681
    2CHL1   H17   99   1.072   2.103   9.163 -0.7954 -0.0242 -1.6700
    2CHL1   C13  100   1.165   1.959   9.287 -0.0340 -0.6523 -0.4522
    2CHL1   C18  101   1.252   1.833   9.270 -0.2214 -0.3150  0.3845
    2CHL1  H18A  102   1.271   1.780   9.365  1.3694 -1.5384 -0.5632
    2CHL1  H18B  103   1.204   1.759   9.202 -2.7220  2.6719 -1.3542
    2CHL1  H18C  104   1.353   1.861   9.234 -1.0154  0.9254 -1.0380
    2CHL1   C12  105   1.234   2.058   9.376 -0.3725 -0.2842  0.0873
    2CHL1  H12A  106   1.333   2.069   9.326 -0.7056  0.1294 -0.4879
    2CHL1  H12B  107   1.185   2.157   9.366  0.7756  0.2451 -0.5923
    2CHL1   C11  108   1.257   2.024   9.524  0.2635  0.4867  0.2687
    2CHL1  H11A  109   1.328   1.939   9.516 -0.6037 -0.1376 -1.2878
    2CHL1  H11B  110   1.301   2.115   9.570  0.1378  1.6238 -1.7611
    2CHL1    C9  111   1.128   1.986   9.595 -0.4468  0.5047  0.9517
    2CHL1    H9  112   1.065   2.077   9.598  1.1457  1.6245  1.4514
    2CHL1   C10  113   1.147   1.943   9.740 -0.2346 -0.0258 -0.7832
    2CHL1   C19  114   1.263   1.835   9.752 -0.6731 -0.2829  0.2371
    2CHL1  H19A  115   1.366   1.873   9.733 -0.6705 -0.5479 -0.3167
    2CHL1  H19B  116   1.266   1.799   9.857 -1.9651  2.2683  1.2181
    2CHL1  H19C  117   1.255   1.744   9.688  2.9263  0.5593 -1.7072
    2CHL1    C1  118   1.176   2.066   9.825 -0.1373  0.3731  0.0697
    2CHL1   H1A  119   1.269   2.116   9.793  0.2725  1.0218  2.1290
    2CHL1   H1B  120   1.090   2.136   9.819  1.2479  2.0933 -0.5313
    2CHL1    C2  121   1.183   2.035   9.975  0.7256  0.4159 -0.0797
    2CHL1   H2A  122   1.204   2.134  10.021  1.6477  0.4718 -0.5906
    2CHL1   H2B  123   1.270   1.978  10.014 -0.2420 -1.4705 -0.5660
    2CHL1   C20  124   1.198   1.997   9.029 -0.2757  0.2194  0.1090
    2CHL1   H20  125   1.243   1.896   9.015 -3.0681 -0.9084 -1.4704
    2CHL1   C21  126   1.304   2.111   9.044 -0.4582  0.0182 -0.5123
    2CHL1  H21A  127   1.352   2.119   8.944 -2.1073 -2.7464 -1.6222
    2CHL1  H21B  128   1.373   2.075   9.123 -0.7417  0.7090  0.0623
    2CHL1  H21C  129   1.262   2.208   9.080  0.1494  0.6174 -1.3788
    2CHL1   C22  130   1.116   2.017   8.899 -0.7823  0.0198 -0.2112
    2CHL1  H22A  131   1.183   2.028   8.811  0.1766  1.5040  0.6562
    2CHL1  H22B  132   1.042   1.935   8.888 -2.5150  1.0821  2.4835
    2CHL1   C23  133   1.028   2.142   8.889  0.6104 -0.7694 -0.2808
    2CHL1  H23A  134   0.933   2.115   8.940 -1.5993 -1.4752 -4.3053
    2CHL1  H23B  135   1.071   2.227   8.946  0.0278 -1.3696  1.0904
    2CHL1   C24  136   0.992   2.185   8.753  0.7214  0.3937  0.7851
    2CHL1  H24A  137   1.089   2.224   8.715  0.4266 -0.0622 -0.4795
    2CHL1  H24B  138   0.973   2.088   8.703 -2.5371  0.9519  0.7686
    2CHL1   C25  139   0.885   2.287   8.745  0.4421  0.2108 -0.2387
    2CHL1   H25  140   0.800   2.241   8.800  0.2785  3.7997  2.9667
    2CHL1   C26  141   0.916   2.418   8.829  0.3612 -0.0838 -0.1560
    2CHL1  H26A  142   0.835   2.494   8.825  1.1786  0.8397  0.2922
    2CHL1  H26B  143   0.917   2.390   8.937  2.4214 -0.9798 -0.3600
    2CHL1  H26C  144   1.013   2.465   8.803 -0.5264  1.0912 -1.4889
    2CHL1   C27  145   0.860   2.331   8.599 -0.6511 -0.3881  0.2904
    2CHL1  H27A  146   0.947   2.396   8.572 -0.7578 -0.0100  0.8382
    2CHL1  H27B  147   0.852   2.242   8.534  0.3891  0.0581 -0.4808
    2CHL1  H27C  148   0.766   2.389   8.589  0.2623  1.5086  1.8379
    3CHL1    C3  149   1.345   6.613  10.366 -0.9538 -0.3193  0.4684
    3CHL1    H3  150   1.236   6.628  10.385 -1.0543 -1.9580  1.3803
    3CHL1    O3  151   1.404   6.613  10.499 -0.1146 -0.0473  0.1472
    3CHL1   H3'  152   1.500   6.619  10.494 -0.0842  1.8292  1.9238
    3CHL1    C4  153   1.382   6.481  10.313 -0.5096  0.2443  0.0786
    3CHL1   H4A  154   1.491   6.461  10.326 -0.4955 -0.1883 -0.6424
    3CHL1   H4B  155   1.321   6.409  10.371  0.8382  1.6223  3.4165
    3CHL1    C5  156   1.356   6.459  10.170 -0.3273  0.1938 -0.9672
    3CHL1    C6  157   1.290   6.348  10.129  0.0303  0.5628  0.0195
    3CHL1    H6  158   1.265   6.273  10.205 -1.4791  0.6753 -0.3455
    3CHL1    C7  159   1.281   6.308   9.983 -0.7697  0.0261 -0.4364
    3CHL1   H7A  160   1.317   6.203   9.974  1.2738  0.6675 -0.1586
    3CHL1   H7B  161   1.173   6.302   9.955 -0.4112  0.5356 -2.0587
    3CHL1    C8  162   1.356   6.402   9.886  0.8241  0.5237  0.0760
    3CHL1    H8  163   1.461   6.366   9.886  0.5923 -0.2148  1.1344
    3CHL1   C14  164   1.289   6.380   9.751 -0.6048 -0.3699 -0.0995
    3CHL1   H14  165   1.185   6.418   9.762  0.3675  1.8683  2.7758
    3CHL1   C15  166   1.278   6.239   9.695  0.9851  0.3910  0.4465
    3CHL1  H15A  167   1.359   6.170   9.725 -0.7628 -2.5518 -1.0241
    3CHL1  H15B  168   1.189   6.191   9.742  0.2686 -0.0262 -1.2398
    3CHL1   C16  169   1.263   6.251   9.544 -0.1035  0.3897 -0.4912
    3CHL1  H16A  170   1.349   6.195   9.502 -0.8566 -1.4398  0.3264
    3CHL1  H16B  171   1.166   6.218   9.502 -1.1043  2.9516 -0.3735
    3CHL1   C17  172   1.295   6.402   9.512 -0.7437 -0.0245 -0.0422
    3CHL1   H17  173   1.196   6.451   9.501  0.0326  1.1674 -2.5811
    3CHL1   C13  174   1.363   6.463   9.636 -0.3135  0.2794 -0.0717
    3CHL1   C18  175   1.510   6.422   9.624  0.2909 -0.2514  0.1126
    3CHL1  H18A  176   1.527   6.318   9.588  2.4253  0.9196 -2.5981
    3CHL1  H18B  177   1.560   6.487   9.549  0.1248  0.7902  0.8829
    3CHL1  H18C  178   1.571   6.443   9.714  0.6537 -0.8632  0.0146
    3CHL1   C12  179   1.345   6.613   9.670 -0.0832  0.7072 -0.4992
    3CHL1  H12A  180   1.407   6.661   9.591 -0.3537  0.8687 -0.6141
    3CHL1  H12B  181   1.239   6.646   9.660 -0.6326 -1.3777 -2.1401
    3CHL1   C11  182   1.404   6.638   9.815 -0.7837  0.2206 -0.1731
    3CHL1  H11A  183   1.515   6.633   9.803 -0.4453  0.6520  2.2125
    3CHL1  H11B  184   1.371   6.740   9.847  1.3304  1.0655 -0.5013
    3CHL1    C9  185   1.354   6.548   9.928  0.5834  0.0178  0.0801
    3CHL1    H9  186   1.248   6.578   9.943  0.5219 -1.1946  2.7970
    3CHL1   C10  187   1.411   6.569  10.073 -0.2082 -0.0737  0.4943
    3CHL1   C19  188   1.563   6.556  10.073  0.5160  0.9253 -0.2987
    3CHL1  H19A  189   1.590   6.448  10.072  1.4297  0.8972  4.1367
    3CHL1  H19B  190   1.605   6.611   9.986  0.3068  0.8318 -0.4602
    3CHL1  H19C  191   1.607   6.586  10.171 -2.2438  1.9267  0.7119
    3CHL1    C1  192   1.373   6.705  10.136  0.6861  0.1852  1.1381
    3CHL1   H1A  193   1.411   6.783  10.067 -0.6411 -0.2946 -0.1699
    3CHL1   H1B  194   1.263   6.715  10.124  0.9776  0.9616 -1.6757
    3CHL1    C2  195   1.405   6.731  10.288  0.1337  0.7875 -0.5660
    3CHL1   H2A  196   1.370   6.826  10.333 -0.6982 -0.4087  1.4326
    3CHL1   H2B  197   1.512   6.739  10.317 -0.4857 -1.3100  2.7031
    3CHL1   C20  198   1.343   6.415   9.367 -0.0058 -0.0383 -0.3865
    3CHL1   H20  199   1.438   6.358   9.353 -0.4607 -0.9844  0.3298
    3CHL1   C21  200   1.362   6.555   9.318  0.4453 -0.7698  0.0176
    3CHL1  H21A  201   1.412   6.561   9.219 -0.2265  0.1588 -0.2844
    3CHL1  H21B  202   1.421   6.616   9.390 -0.8289  0.0053  0.4390
    3CHL1  H21C  203   1.265   6.607   9.306 -0.0707 -1.8563 -0.6611
    3CHL1   C22  204   1.247   6.324   9.274  0.0050 -0.0660  0.9205
    3CHL1  H22A  205   1.254   6.215   9.295 -0.8683 -0.6066 -1.3200
    3CHL1  H22B  206   1.150   6.366   9.307 -0.0083 -0.2553  1.1238
    3CHL1   C23  207   1.277   6.331   9.120 -0.0732 -0.8513  0.7633
    3CHL1  H23A  208   1.269   6.435   9.082 -0.8112 -0.5974  1.5795
    3CHL1  H23B  209   1.381   6.294   9.105  0.4469 -0.6118  3.2918
    3CHL1   C24  210   1.198   6.230   9.026 -0.5739 -0.1780 -0.7814
    3CHL1  H24A  211   1.206   6.129   9.072 -0.6067  0.6020  0.9951
    3CHL1  H24B  212   1.090   6.253   9.038 -0.8459 -0.0974 -3.0153
    3CHL1   C25  213   1.233   6.232   8.873  0.2323  0.0465  0.4494
    3CHL1   H25  214   1.227   6.340   8.845  0.3851  0.1826  0.9421
    3CHL1   C26  215   1.362   6.160   8.829 -0.0264 -0.6944  0.5233
    3CHL1  H26A  216   1.373   6.057   8.869 -0.7415 -0.8912  0.2196
    3CHL1  H26B  217   1.366   6.155   8.718  0.3505  0.9623  0.4277
    3CHL1  H26C  218   1.447   6.228   8.852 -1.0171  0.3437  1.2226
    3CHL1   C27  219   1.122   6.167   8.788  0.3845 -0.7006 -0.1394
    3CHL1  H27A  220   1.136   6.169   8.678 -1.0148  1.2857 -0.3406
    3CHL1  H27B  221   1.116   6.066   8.835 -1.6146  0.2352  1.8052
    3CHL1  H27C  222   1.022   6.213   8.806  0.6963  0.1815 -0.6398
    4CHL1    C3  223   2.225   5.392  10.597 -0.0630  0.2050  0.0591
    4CHL1    H3  224   2.141   5.332  10.557  0.3030 -1.4611  1.6477
    4CHL1    O3  225   2.236   5.393  10.743  0.5635 -0.0113  0.2744
    4CHL1   H3'  226   2.276   5.476  10.769 -0.8268  0.5660  0.7147
    4CHL1    C4  227   2.348   5.318  10.535  0.2525 -0.1748 -0.3222
    4CHL1   H4A  228   2.449   5.355  10.561  0.1411  0.6421 -0.9921
    4CHL1   H4B  229   2.340   5.214  10.574  2.8860 -1.8028 -3.5728
    4CHL1    C5  230   2.335   5.308  10.387 -0.2643 -0.8058  0.7648
    4CHL1    C6  231   2.323   5.187  10.325 -0.1126 -0.8902  0.3360
    4CHL1    H6  232   2.334   5.098  10.389  1.4158 -0.4804  0.6873
    4CHL1    C7  233   2.298   5.173  10.178 -0.5917  0.5743 -0.0176
    4CHL1   H7A  234   2.350   5.085  10.136  0.0527  0.8591  0.1644
    4CHL1   H7B  235   2.193   5.145  10.154 -0.8527 -0.3989  2.0910
    4CHL1    C8  236   2.351   5.297  10.105 -0.1572  0.2088 -0.4280
    4CHL1    H8  237   2.460   5.295  10.125 -0.3333 -0.5497  0.4953
    4CHL1   C14  238   2.325   5.280   9.955 -0.4361 -0.3441  0.1208
    4CHL1   H14  239   2.214   5.277   9.953 -0.5527  0.3759  2.4579
    4CHL1   C15  240   2.382   5.156   9.887 -0.1783  0.1860 -0.6040
    4CHL1  H15A  241   2.490   5.144   9.911 -0.1446 -0.2382 -0.9565
    4CHL1  H15B  242   2.337   5.062   9.925  0.9971 -0.1507  0.0209
    4CHL1   C16  243   2.375   5.191   9.739 -0.0652 -0.7635 -0.0449
    4CHL1  H16A  244   2.479   5.177   9.702  0.0894  0.4821 -0.1298
    4CHL1  H16B  245   2.302   5.133   9.679 -0.7946  1.7962 -1.8011
    4CHL1   C17  246   2.343   5.341   9.731 -0.7421 -0.1342 -0.4491
    4CHL1   H17  247   2.233   5.335   9.713 -0.2628  0.0529 -4.1615
    4CHL1   C13  248   2.365   5.399   9.868  0.9526 -0.2390  0.4298
    4CHL1   C18  249   2.515   5.428   9.878 -0.7287  0.1805 -0.4331
    4CHL1  H18A  250   2.557   5.406   9.979 -0.3758 -0.7041 -0.7703
    4CHL1  H18B  251   2.577   5.379   9.800  0.3198  1.1249 -0.2147
    4CHL1  H18C  252   2.539   5.534   9.856  0.7261 -0.0420 -0.0095
    4CHL1   C12  253   2.276   5.520   9.920 -0.5687 -0.1220 -0.1241
    4CHL1  H12A  254   2.305   5.603   9.852  0.2594 -1.0283 -0.9092
    4CHL1  H12B  255   2.171   5.496   9.895  0.1652 -2.6571 -1.1965
    4CHL1   C11  256   2.301   5.554  10.073  0.6768  0.5447  1.0794
    4CHL1  H11A  257   2.404   5.595  10.075  0.6893  0.5314  0.6722
    4CHL1  H11B  258   2.222   5.629  10.094 -0.0049  0.0613  0.3229
    4CHL1    C9  259   2.281   5.427  10.157 -0.2116  0.0428 -0.4729
    4CHL1    H9  260   2.173   5.400  10.152 -0.5027  0.7443  1.3722
    4CHL1   C10  261   2.312   5.446  10.316 -0.3865 -0.1273 -0.2111
    4CHL1   C19  262   2.453   5.524  10.321  0.2182 -0.3205 -0.2983
    4CHL1  H19A  263   2.466   5.623  10.273  0.1479  0.6133  1.5476
    4CHL1  H19B  264   2.497   5.540  10.422  0.4113  1.6223 -0.6606
    4CHL1  H19C  265   2.522   5.451  10.274 -1.1819 -2.0115  0.1229
    4CHL1    C1  266   2.208   5.539  10.386 -0.4837 -0.1602  0.0676
    4CHL1   H1A  267   2.206   5.640  10.339 -0.3122  0.1404  0.7017
    4CHL1   H1B  268   2.116   5.485  10.353 -0.8905  0.3102  0.4073
    4CHL1    C2  269   2.221   5.536  10.534  0.5853  0.0349 -0.2760
    4CHL1   H2A  270   2.126   5.580  10.570  1.4276  1.5349  0.2009
    4CHL1   H2B  271   2.313   5.587  10.569  1.8032 -2.0289 -0.3481
    4CHL1   C20  272   2.401   5.403   9.604 -0.4025  0.0126  0.4021
    4CHL1   H20  273   2.512   5.408   9.603 -0.3384 -1.0845 -0.4085
    4CHL1   C21  274   2.348   5.544   9.581 -0.5207  0.3828  0.1678
    4CHL1  H21A  275   2.237   5.548   9.581 -0.5767 -0.6720 -0.9888
    4CHL1  H21B  276   2.387   5.593   9.489 -2.4805  0.8793 -0.4589
    4CHL1  H21C  277   2.391   5.604   9.665 -1.2758  1.5311 -0.2506
    4CHL1   C22  278   2.369   5.327   9.478  0.5433  0.3158 -0.0381
    4CHL1  H22A  279   2.405   5.223   9.491 -0.5192 -0.1637 -0.7764
    4CHL1  H22B  280   2.258   5.328   9.463  0.7188  1.5309 -1.3985
    4CHL1   C23  281   2.439   5.379   9.352 -0.2379  0.0237 -0.3288
    4CHL1  H23A  282   2.402   5.480   9.322 -0.1166  0.7306  1.7250
    4CHL1  H23B  283   2.548   5.381   9.375 -0.3559  0.0942  0.2313
    4CHL1   C24  284   2.433   5.288   9.228  0.3337  0.0478 -0.1817
    4CHL1  H24A  285   2.466   5.348   9.140 -0.4575 -0.0249 -0.5407
    4CHL1  H24B  286   2.502   5.204   9.250  2.1155  0.7100 -2.7472
    4CHL1   C25  287   2.298   5.235   9.191 -0.2428  1.1315  0.9091
    4CHL1   H25  288   2.251   5.179   9.276  0.7620  0.8624  1.2992
    4CHL1   C26  289   2.197   5.332   9.127 -0.7851 -0.5280 -0.8735
    4CHL1  H26A  290   2.097   5.287   9.113 -1.4974  1.1320 -1.3399
    4CHL1  H26B  291   2.175   5.428   9.180  0.7895  0.1038 -1.2981
    4CHL1  H26C  292   2.230   5.339   9.021 -1.5284 -1.1987 -1.1549
    4CHL1   C27  293   2.328   5.117   9.090 -0.1909 -0.1792 -0.0853
    4CHL1  H27A  294   2.392   5.042   9.141  0.2311  1.3797  1.7856
    4CHL1  H27B  295   2.244   5.060   9.043 -0.7030 -1.0887  1.8344
    4CHL1  H27C  296   2.381   5.159   9.002 -1.2965 -2.1876 -1.8153
    5CHL1    C3  297   2.666   1.348  10.279  0.0146 -0.4517 -0.2814
    5CHL1    H3  298   2.771   1.356  10.242  0.7109 -1.0490  1.4323
    5CHL1    O3  299   2.649   1.343  10.416 -0.5421 -0.3413 -0.2176
    5CHL1   H3'  300   2.704   1.411  10.456 -1.9856  0.3758  0.6368
    5CHL1    C4  301   2.579   1.460  10.223 -0.8177 -0.6079  0.1981
    5CHL1   H4A  302   2.475   1.452  10.259 -0.5132 -2.1305  0.8071
    5CHL1   H4B  303   2.615   1.559  10.257 -0.8098 -0.2970 -0.6851
    5CHL1    C5  304   2.583   1.470  10.069  0.1343  0.5465  0.0160
    5CHL1    C6  305   2.619   1.581  10.009 -0.9647  0.2029  1.0957
    5CHL1    H6  306   2.645   1.672  10.066  2.1659  1.2777 -1.6792
    5CHL1    C7  307   2.649   1.591   9.857  0.2731 -0.3997 -0.0097
    5CHL1   H7A  308   2.623   1.694   9.823  0.9074 -1.0219 -2.6508
    5CHL1   H7B  309   2.757   1.592   9.833  0.3358  0.5277  0.2742
    5CHL1    C8  310   2.579   1.474   9.779  0.5165  0.4654  0.5041
    5CHL1    H8  311   2.472   1.506   9.780  0.9433  1.9651  1.0968
    5CHL1   C14  312   2.637   1.470   9.638  0.8362 -0.1704 -0.3491
    5CHL1   H14  313   2.745   1.445   9.647  0.7799 -2.4076 -3.8158
    5CHL1   C15  314   2.638   1.594   9.552  0.2040 -0.4139 -0.6564
    5CHL1  H15A  315   2.551   1.661   9.568 -1.8201 -2.5109 -2.1773
    5CHL1  H15B  316   2.733   1.647   9.574  0.4433 -1.3316  0.6289
    5CHL1   C16  317   2.623   1.541   9.414 -0.1512 -0.2397  0.1112
    5CHL1  H16A  318   2.536   1.571   9.352  0.1083  0.5376  0.1062
    5CHL1  H16B  319   2.698   1.586   9.345 -0.6097  2.0776  0.9988
    5CHL1   C17  320   2.643   1.387   9.422 -0.1616  0.4318  0.2986
    5CHL1   H17  321   2.748   1.353   9.430  0.2837  1.5215 -0.6845
    5CHL1   C13  322   2.583   1.351   9.558 -0.6546  0.1067  0.0641
    5CHL1   C18  323   2.424   1.353   9.549  0.3037  0.9204  0.0794
    5CHL1  H18A  324   2.374   1.449   9.527 -0.4093  0.8607  1.3442
    5CHL1  H18B  325   2.385   1.291   9.466  0.7029 -2.7096  2.3931
    5CHL1  H18C  326   2.381   1.317   9.645  2.8397  0.3361  1.0859
    5CHL1   C12  327   2.642   1.222   9.618  0.1256  0.2009  0.0392
    5CHL1  H12A  328   2.610   1.135   9.556 -0.6990 -0.3178  1.1629
    5CHL1  H12B  329   2.753   1.233   9.619  0.1069  3.0484 -3.8481
    5CHL1   C11  330   2.605   1.206   9.763  0.5834 -0.4546 -0.4784
    5CHL1  H11A  331   2.499   1.172   9.771  1.1422 -2.0625  0.2745
    5CHL1  H11B  332   2.665   1.128   9.813  1.2078  0.9007  0.9653
    5CHL1    C9  333   2.616   1.339   9.848 -0.2520  0.0822  0.1660
    5CHL1    H9  334   2.726   1.347   9.859 -0.1204  1.6773 -1.6926
    5CHL1   C10  335   2.561   1.335   9.994 -1.3045  0.1996 -0.0456
    5CHL1   C19  336   2.407   1.316   9.989  0.0154 -0.2706 -0.5384
    5CHL1  H19A  337   2.371   1.312  10.094  1.2606  0.9148 -0.0345
    5CHL1  H19B  338   2.356   1.394   9.929  0.7369  1.4663  1.0109
    5CHL1  H19C  339   2.389   1.221   9.935 -2.0133  0.5982 -1.5386
    5CHL1    C1  340   2.637   1.218  10.067 -0.2389  0.4614  0.5413
    5CHL1   H1A  341   2.588   1.123  10.035 -1.1938  1.4451 -1.0593
    5CHL1   H1B  342   2.746   1.229  10.049 -0.4358  2.2011  0.2255
    5CHL1    C2  343   2.619   1.219  10.222  0.2612 -0.4069  0.7671
    5CHL1   H2A  344   2.682   1.145  10.274  2.9135  1.2248  0.0411
    5CHL1   H2B  345   2.513   1.193  10.246  0.7837 -4.0213 -0.2595
    5CHL1   C20  346   2.577   1.324   9.295  0.3666  0.4589 -0.9317
    5CHL1   H20  347   2.467   1.337   9.306  0.1845 -0.8928 -0.9615
    5CHL1   C21  348   2.600   1.172   9.295 -0.2956  0.6756 -0.1511
    5CHL1  H21A  349   2.575   1.120   9.200  2.2422 -0.2436 -0.4106
    5CHL1  H21B  350   2.532   1.123   9.367  0.5356  1.4081  1.1736
    5CHL1  H21C  351   2.708   1.147   9.308 -0.5949 -1.2474 -1.0463
    5CHL1   C22  352   2.623   1.380   9.157  0.3838  0.2085  0.6970
    5CHL1  H22A  353   2.606   1.489   9.148  1.2785  0.1991 -2.6581
    5CHL1  H22B  354   2.730   1.358   9.136  0.7747 -0.4355  3.0851
    5CHL1   C23  355   2.535   1.332   9.037 -0.3906 -0.0934  0.0548
    5CHL1  H23A  356   2.551   1.224   9.015 -1.2978 -0.1280 -0.4953
    5CHL1  H23B  357   2.426   1.343   9.053 -0.4625 -0.0093 -0.4802
    5CHL1   C24  358   2.578   1.410   8.910  1.0771 -0.0725  0.7994
    5CHL1  H24A  359   2.684   1.391   8.883  0.2107 -1.1863 -2.1577
    5CHL1  H24B  360   2.514   1.372   8.828 -0.8332 -0.2411  2.2872
    5CHL1   C25  361   2.544   1.565   8.898 -0.2815 -0.0153 -0.1027
    5CHL1   H25  362   2.555   1.616   8.996  0.1318  0.7004 -0.5111
    5CHL1   C26  363   2.650   1.630   8.807 -0.0114  0.1549 -0.1200
    5CHL1  H26A  364   2.670   1.568   8.717  0.3844  0.9529 -0.5955
    5CHL1  H26B  365   2.619   1.735   8.785  0.7092 -0.0092 -2.0939
    5CHL1  H26C  366   2.746   1.631   8.865  0.7543 -1.5009 -1.2925
    5CHL1   C27  367   2.402   1.594   8.848 -0.1249 -0.0553 -0.6998
    5CHL1  H27A  368   2.403   1.698   8.809  1.0206  0.1508 -0.1532
    5CHL1  H27B  369   2.380   1.529   8.760 -1.6894  3.1982 -2.9005
    5CHL1  H27C  370   2.330   1.568   8.929  0.6017  1.0914  0.3338
    6CHL1    C3  371   0.216   6.414  10.379 -0.3228 -0.2922  0.0189
    6CHL1    H3  372   0.237   6.523  10.382 -0.7195 -0.1837 -0.9597
    6CHL1    O3  373   0.238   6.347  10.505 -0.4303  0.1483  0.1890
    6CHL1   H3'  374   0.154   6.314  10.537 -0.1630 -2.1702 -1.2901
    6CHL1    C4  375   0.078   6.375  10.342  0.7553 -0.5060 -0.1969
    6CHL1   H4A  376   0.061   6.266  10.355 -0.8515  0.0444  4.6913
    6CHL1   H4B  377   0.006   6.417  10.416 -0.5824 -1.2233 -1.0527
    6CHL1    C5  378   0.038   6.417  10.201 -0.4626 -0.5827 -0.1635
    6CHL1    C6  379  -0.069   6.499  10.174  0.7365 -0.3115 -0.3519
    6CHL1    H6  380  -0.141   6.517  10.256  1.6442 -1.8203  0.8294
    6CHL1    C7  381  -0.106   6.549  10.037  0.7256  0.7328  0.2721
    6CHL1   H7A  382  -0.217   6.546  10.030  0.8421 -0.2921 -1.8819
    6CHL1   H7B  383  -0.072   6.655  10.031 -0.6731  1.1595 -0.7259
    6CHL1    C8  384  -0.046   6.455   9.928  0.0613  0.1244 -0.8145
    6CHL1    H8  385  -0.092   6.354   9.928 -0.3079  0.2809 -0.0187
    6CHL1   C14  386  -0.072   6.514   9.790 -0.4730  0.7468 -0.0173
    6CHL1   H14  387  -0.023   6.613   9.773 -0.3655  0.5311 -1.0067
    6CHL1   C15  388  -0.218   6.529   9.758  0.4815 -0.4279 -0.2020
    6CHL1  H15A  389  -0.260   6.442   9.812 -0.0682 -0.6072 -0.9095
    6CHL1  H15B  390  -0.245   6.624   9.808  1.2599 -0.0926 -0.4012
    6CHL1   C16  391  -0.230   6.534   9.603 -0.1649  0.3035  0.4306
    6CHL1  H16A  392  -0.296   6.454   9.564 -0.9769  1.0749  0.1997
    6CHL1  H16B  393  -0.259   6.634   9.564 -0.1363  0.7441  1.4884
    6CHL1   C17  394  -0.084   6.510   9.558  0.0169  0.5827  0.1076
    6CHL1   H17  395  -0.040   6.612   9.554  0.9329  0.2747  1.6677
    6CHL1   C13  396  -0.012   6.423   9.674  0.1824  0.0891 -0.8404
    6CHL1   C18  397  -0.064   6.275   9.676  1.1276  0.1697  0.6196
    6CHL1  H18A  398  -0.007   6.228   9.759  0.2443 -0.9516  0.6231
    6CHL1  H18B  399  -0.174   6.274   9.690  1.1056  0.7041  0.5003
    6CHL1  H18C  400  -0.036   6.214   9.587 -0.0901 -1.7491  1.4797
    6CHL1   C12  401   0.144   6.427   9.694  0.3091 -0.9746 -0.2236
    6CHL1  H12A  402   0.201   6.362   9.625  2.4666  0.7016 -0.1385
    6CHL1  H12B  403   0.173   6.534   9.683  1.7270 -1.1322  1.5835
    6CHL1   C11  404   0.190   6.391   9.836 -0.2083 -0.5902  0.6608
    6CHL1  H11A  405   0.188   6.280   9.838  2.5670 -0.7256 -0.0268
    6CHL1  H11B  406   0.295   6.423   9.852 -0.2741 -0.4036  0.7260
    6CHL1    C9  407   0.106   6.439   9.956 -0.0623  0.0775  0.0114
    6CHL1    H9  408   0.151   6.541   9.955 -0.4505  0.2521 -1.1556
    6CHL1   C10  409   0.142   6.370  10.092 -0.5796 -0.0985 -0.2829
    6CHL1   C19  410   0.136   6.216  10.072 -0.0485 -0.2479 -0.2670
    6CHL1  H19A  411   0.112   6.159  10.164  1.2132 -0.5061 -0.0863
    6CHL1  H19B  412   0.051   6.193  10.004  0.3322 -1.0306 -0.4996
    6CHL1  H19C  413   0.231   6.176  10.029  0.9853  1.5227  0.3120
    6CHL1    C1  414   0.291   6.401  10.133 -0.2998 -0.4309 -0.2999
    6CHL1   H1A  415   0.359   6.361  10.055 -0.4354  0.4452 -0.8734
    6CHL1   H1B  416   0.299   6.512  10.133 -3.5765 -0.0518 -2.3760
    6CHL1    C2  417   0.320   6.356  10.274 -0.5221 -0.8669 -0.1801
    6CHL1   H2A  418   0.421   6.399  10.292 -1.5453  2.2513 -1.2274
    6CHL1   H2B  419   0.322   6.248  10.297  1.6274 -0.8759 -0.1840
    6CHL1   C20  420  -0.073   6.459   9.409  0.6202 -0.0113  0.2093
    6CHL1   H20  421  -0.121   6.359   9.406 -1.2003  0.8416 -0.1902
    6CHL1   C21  422   0.076   6.438   9.377 -0.3782  0.4237  0.2457
    6CHL1  H21A  423   0.098   6.421   9.269 -0.8265 -0.1564  0.2426
    6CHL1  H21B  424   0.117   6.361   9.445 -1.4447  0.9066  1.4807
    6CHL1  H21C  425   0.141   6.524   9.403  0.7646 -0.5845  0.7614
    6CHL1   C22  426  -0.151   6.547   9.305  0.2353  0.0125  0.3446
    6CHL1  H22A  427  -0.257   6.566   9.331  0.0423 -0.7372  0.1486
    6CHL1  H22B  428  -0.092   6.641   9.308 -0.5587  0.5177  0.0962
    6CHL1   C23  429  -0.146   6.483   9.163 -0.3299  0.2422 -0.1044
    6CHL1  H23A  430  -0.046   6.489   9.117 -0.3862 -0.5605 -0.3541
    6CHL1  H23B  431  -0.172   6.375   9.175  1.8283 -0.1496  1.7877
    6CHL1   C24  432  -0.238   6.552   9.062  0.0013  0.5923 -0.5219
    6CHL1  H24A  433  -0.343   6.549   9.099  0.2784  1.4156  0.3909
    6CHL1  H24B  434  -0.214   6.661   9.063 -0.0279  0.6679 -2.7523
    6CHL1   C25  435  -0.235   6.484   8.922 -0.1875  0.0142  0.0885
    6CHL1   H25  436  -0.240   6.377   8.950  0.6740  0.5586  2.6246
    6CHL1   C26  437  -0.372   6.513   8.851 -0.1242 -0.0153 -0.2550
    6CHL1  H26A  438  -0.393   6.447   8.765 -1.2685 -1.8691  1.3678
    6CHL1  H26B  439  -0.455   6.510   8.925  0.8623 -0.9570  0.8564
    6CHL1  H26C  440  -0.375   6.614   8.804  0.0282  0.5729  0.9611
    6CHL1   C27  441  -0.111   6.529   8.844 -0.5751  0.7958 -0.3063
    6CHL1  H27A  442  -0.113   6.467   8.751 -0.3442 -1.3943  1.0864
    6CHL1  H27B  443  -0.129   6.633   8.810  0.2907  1.1162  0.1766
    6CHL1  H27C  444  -0.021   6.497   8.901 -2.3612 -3.5990  0.4633
    7CHL1    C3  445   2.704   2.721  10.406 -0.2321  0.7631  0.3305
    7CHL1    H3  446   2.657   2.812  10.361 -0.1846  0.9534  0.6607
    7CHL1    O3  447   2.679   2.719  10.549 -0.1007  0.3418 -0.3369
    7CHL1   H3'  448   2.767   2.733  10.586 -0.3767  1.6873 -0.1282
    7CHL1    C4  449   2.640   2.598  10.342 -0.3960  0.1914  0.5630
    7CHL1   H4A  450   2.689   2.515  10.398 -1.8975  0.3747  2.2227
    7CHL1   H4B  451   2.533   2.588  10.367 -0.5100 -2.1278 -0.5396
    7CHL1    C5  452   2.668   2.581  10.188 -0.3154  1.1155 -0.3020
    7CHL1    C6  453   2.565   2.568  10.103  0.0797 -0.6094  0.4873
    7CHL1    H6  454   2.462   2.559  10.141 -0.3540 -1.2460 -0.7797
    7CHL1    C7  455   2.586   2.541   9.956  0.4318 -0.7416 -0.5391
    7CHL1   H7A  456   2.529   2.454   9.917 -0.4752  0.2387 -1.4705
    7CHL1   H7B  457   2.561   2.631   9.896 -1.4225 -1.5532 -1.0595
    7CHL1    C8  458   2.735   2.514   9.922 -0.4747 -0.4546 -0.2852
    7CHL1    H8  459   2.759   2.408   9.944  3.3889  0.7657  2.4795
    7CHL1   C14  460   2.760   2.537   9.773 -0.8541  0.2262 -0.1453
    7CHL1   H14  461   2.739   2.645   9.753  2.2037  1.0048  0.4508
    7CHL1   C15  462   2.659   2.468   9.675 -0.7365 -0.7502  0.6640
    7CHL1  H15A  463   2.642   2.366   9.714 -0.5361 -1.5819 -1.2973
    7CHL1  H15B  464   2.565   2.528   9.680 -0.1197  0.3832 -0.7059
    7CHL1   C16  465   2.737   2.464   9.544  0.2493  0.3411 -0.5192
    7CHL1  H16A  466   2.756   2.359   9.514 -0.5731  1.0212 -3.7756
    7CHL1  H16B  467   2.679   2.514   9.463 -0.0570 -0.4895 -0.8195
    7CHL1   C17  468   2.875   2.532   9.570 -0.0992  0.2727 -0.5787
    7CHL1   H17  469   2.851   2.637   9.546 -1.8277  0.0334 -0.0543
    7CHL1   C13  470   2.903   2.521   9.721  0.3084 -0.1788  0.1237
    7CHL1   C18  471   2.977   2.380   9.736  0.9700 -0.4340  0.0292
    7CHL1  H18A  472   2.996   2.349   9.841  0.0096  0.8895  0.6067
    7CHL1  H18B  473   2.926   2.301   9.677  0.0401 -1.2404  1.8303
    7CHL1  H18C  474   3.079   2.382   9.692  0.8599 -1.5487 -0.3227
    7CHL1   C12  475   2.988   2.629   9.795  0.5297  0.3883  0.3972
    7CHL1  H12A  476   3.094   2.621   9.761  0.4422  0.0894  0.2007
    7CHL1  H12B  477   2.951   2.732   9.778 -1.4266 -0.2936  0.2489
    7CHL1   C11  478   2.981   2.611   9.947  0.4242 -0.3575  0.0183
    7CHL1  H11A  479   3.032   2.514   9.964  1.9193  0.5025  0.6389
    7CHL1  H11B  480   3.038   2.693   9.995 -0.6579  2.0681 -2.5511
    7CHL1    C9  481   2.831   2.609   9.999  0.4220  0.4215  0.5769
    7CHL1    H9  482   2.795   2.713   9.980  3.0307  1.0024 -1.9021
    7CHL1   C10  483   2.818   2.592  10.147 -0.3261 -0.3646  0.4040
    7CHL1   C19  484   2.905   2.468  10.193  0.4095 -0.1957  0.4858
    7CHL1  H19A  485   2.888   2.440  10.299 -0.3440 -2.8991 -0.2544
    7CHL1  H19B  486   2.881   2.387  10.120 -0.4445 -1.0725  1.7101
    7CHL1  H19C  487   3.011   2.499  10.175 -0.0956  0.4262 -1.7134
    7CHL1    C1  488   2.879   2.716  10.222 -0.3120 -0.0819 -0.1594
    7CHL1   H1A  489   2.988   2.730  10.209 -0.1260 -0.4408  0.8845
    7CHL1   H1B  490   2.829   2.813  10.198  1.1056  0.5989 -0.4729
    7CHL1    C2  491   2.847   2.725  10.369 -0.0990  0.3341 -0.3057
    7CHL1   H2A  492   2.900   2.808  10.422  3.7445 -0.1580 -2.9942
    7CHL1   H2B  493   2.890   2.632  10.411 -0.3035  0.8583  1.1373
    7CHL1   C20  494   2.974   2.491   9.466 -0.8213 -1.0434  0.1718
    7CHL1   H20  495   3.001   2.383   9.474  1.9162 -0.3025  1.8771
    7CHL1   C21  496   3.113   2.564   9.487  0.8189  0.4326  0.0646
    7CHL1  H21A  497   3.184   2.531   9.408  0.4512 -0.6986  0.1909
    7CHL1  H21B  498   3.156   2.547   9.588  1.3023  0.7643 -0.0792
    7CHL1  H21C  499   3.107   2.675   9.482  0.4149  0.4471  0.8029
    7CHL1   C22  500   2.923   2.533   9.322 -0.1648 -0.1561 -0.1714
    7CHL1  H22A  501   2.845   2.611   9.328  2.1181  2.3111 -0.3370
    7CHL1  H22B  502   3.010   2.586   9.277  1.7160  0.0831  3.3530
    7CHL1   C23  503   2.900   2.412   9.236  0.1984 -0.6622 -0.5703
    7CHL1  H23A  504   2.995   2.354   9.229  1.0240  0.7849 -2.0747
    7CHL1  H23B  505   2.835   2.345   9.296 -1.3109  0.0209 -1.4148
    7CHL1   C24  506   2.844   2.443   9.101  0.6901 -0.2773 -0.1906
    7CHL1  H24A  507   2.749   2.499   9.117  0.4577 -0.3675 -1.1876
    7CHL1  H24B  508   2.909   2.512   9.043 -1.4825  0.8309 -1.4425
    7CHL1   C25  509   2.830   2.319   9.008 -0.3120  0.6668  0.5105
    7CHL1   H25  510   2.810   2.228   9.068  1.1200 -0.4290 -0.6053
    7CHL1   C26  511   2.719   2.341   8.903 -0.3706 -0.8020 -0.0809
    7CHL1  H26A  512   2.718   2.253   8.835  2.9118 -2.0960  1.3234
    7CHL1  H26B  513   2.621   2.378   8.940  0.3136  1.7632 -0.6478
    7CHL1  H26C  514   2.761   2.423   8.841  1.5206 -0.6820  1.2776
    7CHL1   C27  515   2.974   2.289   8.956 -0.2572 -0.2675  0.5069
    7CHL1  H27A  516   2.965   2.215   8.874 -3.3130  2.1847 -1.5989
    7CHL1  H27B  517   3.032   2.378   8.921  0.8575 -1.0077  0.4105
    7CHL1  H27C  518   3.031   2.247   9.042  1.5211 -0.3274 -0.6330
    8CHL1    C3  519   4.693   3.614  10.334  0.3344  0.6686  0.2651
    8CHL1    H3  520   4.638   3.710  10.321  0.7001  0.8176 -0.1801
    8CHL1    O3  521   4.698   3.589  10.470  0.0746 -0.1866 -0.4007
    8CHL1   H3'  522   4.762   3.651  10.506 -0.1429  1.5907 -2.8322
    8CHL1    C4  523   4.613   3.499  10.269 -0.4605  0.2812 -0.9904
    8CHL1   H4A  524   4.664   3.404  10.295 -1.4800 -0.0995 -0.3315
    8CHL1   H4B  525   4.517   3.497  10.324  0.1841  2.4748  0.3441
    8CHL1    C5  526   4.610   3.513  10.116 -0.3431  0.0249  0.0124
    8CHL1    C6  527   4.494   3.501  10.047  0.8815 -0.1950 -0.4095
    8CHL1    H6  528   4.401   3.468  10.096 -0.1162  0.3879 -1.8378
    8CHL1    C7  529   4.476   3.518   9.899 -0.4029  0.6911  0.0158
    8CHL1   H7A  530   4.427   3.430   9.853  2.3862  0.0856 -2.0828
    8CHL1   H7B  531   4.414   3.608   9.877  0.2566  1.4999  1.3144
    8CHL1    C8  532   4.610   3.523   9.820 -0.9781  0.0647  0.4277
    8CHL1    H8  533   4.651   3.422   9.801 -1.1732 -0.0082  0.3989
    8CHL1   C14  534   4.584   3.589   9.683 -0.1379  0.2388 -0.9106
    8CHL1   H14  535   4.562   3.697   9.700 -0.1151  0.0885  0.1329
    8CHL1   C15  536   4.470   3.533   9.604 -0.5175  0.9371  0.0557
    8CHL1  H15A  537   4.480   3.424   9.587 -0.9912  0.7820  0.7234
    8CHL1  H15B  538   4.367   3.551   9.641 -1.3017 -2.5034 -0.1032
    8CHL1   C16  539   4.492   3.595   9.466  0.3455  0.6226 -0.2956
    8CHL1  H16A  540   4.472   3.512   9.396  1.1343  0.6831 -0.6033
    8CHL1  H16B  541   4.417   3.676   9.456 -0.1045  0.2570  0.1129
    8CHL1   C17  542   4.635   3.653   9.460 -0.8414 -0.2873 -0.7098
    8CHL1   H17  543   4.642   3.762   9.484 -1.2543 -0.1829 -1.0448
    8CHL1   C13  544   4.708   3.586   9.585  0.4058  0.1853  0.2119
    8CHL1   C18  545   4.767   3.441   9.554  0.0830  0.6832  0.1147
    8CHL1  H18A  546   4.698   3.391   9.482 -1.5247  2.0940  0.5994
    8CHL1  H18B  547   4.865   3.453   9.503  1.0778 -2.7743  0.9822
    8CHL1  H18C  548   4.783   3.386   9.649  0.4796  2.6019  1.2122
    8CHL1   C12  549   4.809   3.671   9.658  0.1057 -0.0742 -0.3287
    8CHL1  H12A  550   4.898   3.673   9.592  1.3616 -2.0719  1.1816
    8CHL1  H12B  551   4.778   3.778   9.669 -0.9307 -0.4783  0.9268
    8CHL1   C11  552   4.837   3.625   9.801 -0.1334 -0.0489 -0.2882
    8CHL1  H11A  553   4.886   3.526   9.790 -0.3686 -0.7276  3.4478
    8CHL1  H11B  554   4.913   3.685   9.854 -1.2049  0.5469  0.5968
    8CHL1    C9  555   4.716   3.607   9.895 -0.6399  0.1656 -0.8674
    8CHL1    H9  556   4.674   3.709   9.897 -0.7022  0.1224  0.6311
    8CHL1   C10  557   4.745   3.559  10.043  0.5880 -0.3415  0.2444
    8CHL1   C19  558   4.832   3.427  10.052  0.0444 -0.9132 -0.0231
    8CHL1  H19A  559   4.784   3.360   9.978 -3.9313 -0.4274  1.8664
    8CHL1  H19B  560   4.937   3.452  10.025 -0.2760 -1.5387 -2.0103
    8CHL1  H19C  561   4.824   3.375  10.150  2.9553  0.3197  0.9842
    8CHL1    C1  562   4.822   3.664  10.130 -0.5856  0.7120  0.8632
    8CHL1   H1A  563   4.926   3.657  10.089 -1.2644 -2.9285 -0.6483
    8CHL1   H1B  564   4.781   3.765  10.108  0.6640  0.9318 -0.6949
    8CHL1    C2  565   4.831   3.623  10.278  0.4910  0.1817 -0.0884
    8CHL1   H2A  566   4.875   3.704  10.339 -0.9497  1.2860 -0.4315
    8CHL1   H2B  567   4.884   3.526  10.290 -1.6154 -1.3010 -1.8657
    8CHL1   C20  568   4.690   3.632   9.325  0.0094 -0.0748 -0.7826
    8CHL1   H20  569   4.691   3.523   9.305  4.5213  0.0999 -2.8222
    8CHL1   C21  570   4.833   3.670   9.318  0.4476 -0.0751  0.6772
    8CHL1  H21A  571   4.841   3.779   9.335 -0.2628  0.5110 -2.2300
    8CHL1  H21B  572   4.871   3.648   9.216  1.5531  0.1427  1.0290
    8CHL1  H21C  573   4.911   3.617   9.377 -0.1270 -2.0550 -0.2515
    8CHL1   C22  574   4.607   3.700   9.216 -0.0478  0.0824 -0.1763
    8CHL1  H22A  575   4.501   3.668   9.220  0.1345 -0.4265  1.0747
    8CHL1  H22B  576   4.613   3.809   9.239 -0.8382  0.1387 -0.2104
    8CHL1   C23  577   4.660   3.672   9.074 -0.3714  0.1095 -0.9583
    8CHL1  H23A  578   4.753   3.733   9.066 -2.2773  3.6914  1.6351
    8CHL1  H23B  579   4.680   3.563   9.069  0.0702  0.1719 -0.5844
    8CHL1   C24  580   4.560   3.719   8.970 -0.3076  0.2901 -0.2393
    8CHL1  H24A  581   4.458   3.693   9.003 -0.1835 -0.1586 -0.2057
    8CHL1  H24B  582   4.563   3.829   8.956 -0.8314  0.1094 -2.0097
    8CHL1   C25  583   4.586   3.668   8.823 -0.5010  0.2730 -0.3947
    8CHL1   H25  584   4.596   3.558   8.828 -0.2518  0.1139 -2.9350
    8CHL1   C26  585   4.479   3.694   8.719  0.0962  0.5414  0.1457
    8CHL1  H26A  586   4.511   3.648   8.623 -1.8202  1.3303 -0.9335
    8CHL1  H26B  587   4.380   3.649   8.746 -0.6039  0.8718 -1.7248
    8CHL1  H26C  588   4.470   3.804   8.705  2.5581  0.9678  1.3465
    8CHL1   C27  589   4.722   3.714   8.770 -0.2172 -0.0034  0.3873
    8CHL1  H27A  590   4.800   3.707   8.849  0.4102 -2.3395 -0.3676
    8CHL1  H27B  591   4.760   3.650   8.687  1.1760 -2.5073  2.8060
    8CHL1  H27C  592   4.716   3.819   8.735 -0.1587  0.2936  1.2408
    9CHL1    C3  593   1.386   0.570  10.169 -0.7266  0.0900 -0.2711
    9CHL1    H3  594   1.292   0.626  10.151 -0.1489  0.9859 -0.5938
    9CHL1    O3  595   1.431   0.594  10.300 -0.0241  0.1420 -0.3243
    9CHL1   H3'  596   1.387   0.674  10.330  1.9011  1.1416 -0.0268
    9CHL1    C4  597   1.368   0.422  10.155 -0.3986 -0.4317 -0.4308
    9CHL1   H4A  598   1.461   0.366  10.181 -0.5092 -0.7704 -0.7505
    9CHL1   H4B  599   1.288   0.393  10.227 -1.3194  0.9485 -0.8669
    9CHL1    C5  600   1.332   0.382  10.016  0.6035  0.0813  0.3734
    9CHL1    C6  601   1.219   0.307   9.996 -0.4254 -0.0380 -0.2435
    9CHL1    H6  602   1.166   0.256  10.078  0.8997 -0.6480  0.2639
    9CHL1    C7  603   1.172   0.266   9.860 -0.3402  0.2470 -0.2383
    9CHL1   H7A  604   1.151   0.157   9.866  0.3831  0.1641  1.4192
    9CHL1   H7B  605   1.074   0.312   9.836 -0.6858 -0.2041  0.2816
    9CHL1    C8  606   1.270   0.294   9.741  0.5112 -0.4128 -0.1587
    9CHL1    H8  607   1.344   0.211   9.741 -0.2832 -1.1417 -0.7519
    9CHL1   C14  608   1.187   0.289   9.612 -0.4670 -0.0498 -0.2163
    9CHL1   H14  609   1.104   0.361   9.626 -1.7541 -1.6544  0.8238
    9CHL1   C15  610   1.117   0.165   9.572  0.7210  0.1600  0.1221
    9CHL1  H15A  611   1.182   0.075   9.570  1.3180  0.5631 -2.2742
    9CHL1  H15B  612   1.025   0.138   9.628 -0.7048 -0.3086 -2.3008
    9CHL1   C16  613   1.070   0.189   9.422  0.0721 -0.3561  0.2762
    9CHL1  H16A  614   1.096   0.098   9.364 -0.0363 -1.5849  2.0547
    9CHL1  H16B  615   0.960   0.201   9.414 -0.2837 -0.6853  3.4615
    9CHL1   C17  616   1.152   0.311   9.380 -0.4958  0.3199  1.0540
    9CHL1   H17  617   1.082   0.395   9.400  0.1273  1.1371 -0.0852
    9CHL1   C13  618   1.265   0.332   9.487  0.1667  1.1832  0.1153
    9CHL1   C18  619   1.378   0.234   9.454 -0.7590 -0.4435  0.4246
    9CHL1  H18A  620   1.354   0.137   9.405 -0.3556 -0.7596  0.8493
    9CHL1  H18B  621   1.444   0.282   9.379  0.3341  0.1131  1.7033
    9CHL1  H18C  622   1.436   0.210   9.546  1.5900  0.3980 -0.7449
    9CHL1   C12  623   1.324   0.469   9.505  0.0787 -0.2818 -0.0092
    9CHL1  H12A  624   1.393   0.487   9.420 -2.3477  3.7399 -1.4491
    9CHL1  H12B  625   1.242   0.544   9.500  1.1625  0.9507  0.3072
    9CHL1   C11  626   1.401   0.473   9.635  0.1756 -0.4771 -0.5155
    9CHL1  H11A  627   1.488   0.405   9.620  1.3261  0.4679  1.4535
    9CHL1  H11B  628   1.437   0.576   9.658  0.7412 -1.3275  2.7664
    9CHL1    C9  629   1.329   0.431   9.762  0.5268  0.5673 -0.3702
    9CHL1    H9  630   1.247   0.505   9.768  0.4144  0.4959 -1.0169
    9CHL1   C10  631   1.407   0.445   9.897  0.1063 -0.4172 -0.7893
    9CHL1   C19  632   1.539   0.363   9.894 -0.3464  0.4764 -0.0339
    9CHL1  H19A  633   1.522   0.259   9.859 -0.2698  0.7716 -0.9638
    9CHL1  H19B  634   1.600   0.417   9.819 -2.1174  3.3346  0.4301
    9CHL1  H19C  635   1.586   0.360   9.995  1.8263  2.6586 -0.8827
    9CHL1    C1  636   1.444   0.592   9.925 -0.3608 -0.0814 -0.1446
    9CHL1   H1A  637   1.500   0.640   9.842 -0.6365  2.9719  1.3029
    9CHL1   H1B  638   1.352   0.655   9.925 -1.5089 -1.6679  0.8029
    9CHL1    C2  639   1.488   0.631  10.072  0.0871  0.7726 -0.0057
    9CHL1   H2A  640   1.494   0.740  10.093  0.8784  0.7285  0.0404
    9CHL1   H2B  641   1.585   0.584  10.097 -0.5617 -0.4174  0.3734
    9CHL1   C20  642   1.187   0.322   9.227 -0.5141 -0.5475 -0.3172
    9CHL1   H20  643   1.254   0.235   9.209  1.3789  0.8050 -0.0190
    9CHL1   C21  644   1.247   0.456   9.172 -0.1606  0.3004  0.2170
    9CHL1  H21A  645   1.253   0.439   9.063 -3.4159  0.7578 -0.1199
    9CHL1  H21B  646   1.345   0.480   9.219  0.0048  1.2353 -0.5800
    9CHL1  H21C  647   1.169   0.533   9.192  0.3707  0.6662  0.9513
    9CHL1   C22  648   1.056   0.287   9.146 -0.2824  0.0910  0.2140
    9CHL1  H22A  649   0.998   0.203   9.189  1.0963 -1.3319 -0.6448
    9CHL1  H22B  650   0.981   0.369   9.143 -1.8134 -1.2709  0.0816
    9CHL1   C23  651   1.078   0.226   9.009 -0.2453 -0.5022 -1.3096
    9CHL1  H23A  652   0.978   0.231   8.962 -0.9278 -2.0359 -0.1058
    9CHL1  H23B  653   1.148   0.285   8.946 -1.3127  1.2031 -0.9676
    9CHL1   C24  654   1.142   0.078   9.017  0.4154 -0.7553 -0.4282
    9CHL1  H24A  655   1.250   0.090   9.041  0.3288  0.2814 -0.5124
    9CHL1  H24B  656   1.089   0.022   9.097 -0.4626  1.7125  0.8141
    9CHL1   C25  657   1.128  -0.003   8.885  0.6823 -0.3957 -1.1364
    9CHL1   H25  658   1.160   0.066   8.804  0.7848 -0.3148 -1.0275
    9CHL1   C26  659   1.223  -0.127   8.879  0.3139  1.3091 -0.2717
    9CHL1  H26A  660   1.317  -0.114   8.938  0.5881 -0.0893 -0.3788
    9CHL1  H26B  661   1.172  -0.220   8.911 -2.5261  2.9302  0.2231
    9CHL1  H26C  662   1.255  -0.149   8.775  0.1061 -0.5232  0.0173
    9CHL1   C27  663   0.986  -0.043   8.855  0.3781  0.4695 -0.3737
    9CHL1  H27A  664   0.949  -0.109   8.936 -0.9794  1.2008 -0.3698
    9CHL1  H27B  665   0.920   0.043   8.831 -1.3233 -1.0593 -1.4455
    9CHL1  H27C  666   0.983  -0.103   8.762  1.9990 -0.4730  0.1516
   10CHL1    C3  667   0.202   5.820  10.163 -0.8490 -0.9536 -0.0880
   10CHL1    H3  668   0.261   5.910  10.135 -0.2037 -1.4578 -0.3824
   10CHL1    O3  669   0.197   5.816  10.303  0.6583  0.6714 -0.1676
   10CHL1   H3'  670   0.109   5.782  10.321 -0.4202  1.8965 -2.6772
   10CHL1    C4  671   0.060   5.826  10.105 -0.3509  0.9525 -0.4246
   10CHL1   H4A  672   0.006   5.734  10.134  0.1610 -0.5929 -3.8874
   10CHL1   H4B  673   0.014   5.915  10.154  0.7444  0.2374  2.0719
   10CHL1    C5  674   0.054   5.828   9.955 -0.6340  0.2269 -0.1509
   10CHL1    C6  675  -0.012   5.925   9.889  0.2604  0.1429  0.6692
   10CHL1    H6  676  -0.049   6.015   9.941  0.4215  2.1481 -2.4851
   10CHL1    C7  677  -0.040   5.917   9.739 -0.4551  0.5668 -0.1630
   10CHL1   H7A  678  -0.147   5.944   9.725  0.1104  2.9877 -0.3908
   10CHL1   H7B  679   0.010   5.997   9.680 -1.0347  1.1227  0.0870
   10CHL1    C8  680   0.001   5.784   9.682  0.2415  0.2149  0.5081
   10CHL1    H8  681  -0.083   5.713   9.696 -0.4638  0.6562 -1.2822
   10CHL1   C14  682   0.014   5.796   9.535 -0.3992 -0.5448  0.3009
   10CHL1   H14  683   0.092   5.873   9.518  0.3656 -1.6483 -1.5711
   10CHL1   C15  684  -0.105   5.853   9.454 -0.3257  0.0988 -0.1569
   10CHL1  H15A  685  -0.190   5.800   9.501  0.6803 -1.3613  0.0585
   10CHL1  H15B  686  -0.118   5.963   9.461  0.2951  0.3765 -2.5044
   10CHL1   C16  687  -0.078   5.808   9.309  0.5062 -0.0483  0.6251
   10CHL1  H16A  688  -0.177   5.763   9.284  0.3546  0.0488  1.0420
   10CHL1  H16B  689  -0.056   5.897   9.247  0.1700 -0.3091  0.1255
   10CHL1   C17  690   0.043   5.714   9.312 -0.2790  0.1875  0.4381
   10CHL1   H17  691   0.130   5.780   9.293  0.2901 -0.3966  0.9671
   10CHL1   C13  692   0.057   5.672   9.462  0.1546  0.1182 -0.2538
   10CHL1   C18  693  -0.046   5.565   9.492  0.0797  0.1187 -0.1170
   10CHL1  H18A  694  -0.057   5.532   9.597  0.0260  1.8351  0.4531
   10CHL1  H18B  695  -0.147   5.606   9.469  0.5353  1.1934 -0.2607
   10CHL1  H18C  696  -0.045   5.469   9.436  0.1910 -0.9970  1.7117
   10CHL1   C12  697   0.196   5.626   9.503 -0.0715  0.1455 -0.5335
   10CHL1  H12A  698   0.218   5.537   9.441 -1.6877  1.3158 -2.9782
   10CHL1  H12B  699   0.266   5.701   9.460  0.0282  0.9990  1.0531
   10CHL1   C11  700   0.211   5.619   9.658 -0.6736 -0.2362  0.8620
   10CHL1  H11A  701   0.169   5.521   9.691  1.0476 -0.9801  0.9545
   10CHL1  H11B  702   0.318   5.612   9.687 -0.0520 -3.6582 -1.6214
   10CHL1    C9  703   0.138   5.735   9.734 -0.1751 -0.5210  0.1414
   10CHL1    H9  704   0.197   5.825   9.708  0.8706 -1.2957 -0.2134
   10CHL1   C10  705   0.122   5.706   9.885  0.5407  0.0429 -0.0263
   10CHL1   C19  706   0.036   5.579   9.905  0.0604  0.1148 -0.1793
   10CHL1  H19A  707   0.020   5.562  10.014  0.8663 -0.2586 -0.1109
   10CHL1  H19B  708  -0.064   5.577   9.858  0.2020 -0.7794 -0.4676
   10CHL1  H19C  709   0.091   5.488   9.873  1.1562  0.8499 -0.4383
   10CHL1    C1  710   0.262   5.689   9.954 -0.2432  0.3645 -0.1467
   10CHL1   H1A  711   0.307   5.596   9.915 -0.5229 -0.7620  2.0698
   10CHL1   H1B  712   0.330   5.769   9.916 -0.8141  0.2897 -1.4045
   10CHL1    C2  713   0.265   5.688  10.113  0.2834  0.5988  0.3229
   10CHL1   H2A  714   0.373   5.683  10.139  0.0896  0.6507  1.1992
   10CHL1   H2B  715   0.213   5.602  10.162  1.2166  0.4870  1.1375
   10CHL1   C20  716   0.034   5.622   9.191  0.1499  1.5179  0.0534
   10CHL1   H20  717  -0.040   5.541   9.211 -1.9208  2.6269 -2.4468
   10CHL1   C21  718   0.170   5.542   9.182 -0.1771  0.4197 -0.0341
   10CHL1  H21A  719   0.191   5.493   9.085 -1.8010  1.7817 -1.1260
   10CHL1  H21B  720   0.163   5.454   9.249 -1.5967  0.6388  0.1583
   10CHL1  H21C  721   0.254   5.609   9.210  0.3832  0.0508 -0.8121
   10CHL1   C22  722   0.013   5.705   9.062 -0.2147 -0.1626  0.1690
   10CHL1  H22A  723  -0.091   5.746   9.064  0.0669  0.6809 -1.1230
   10CHL1  H22B  724   0.082   5.791   9.057  0.0094 -0.2894  1.0050
   10CHL1   C23  725   0.015   5.633   8.926 -0.5384  0.8154  0.1682
   10CHL1  H23A  726   0.110   5.575   8.927 -0.2254  1.3274  0.6830
   10CHL1  H23B  727  -0.069   5.560   8.916 -2.5270  2.8662  1.0902
   10CHL1   C24  728   0.014   5.730   8.801 -0.0806  0.4187 -0.2613
   10CHL1  H24A  729  -0.083   5.784   8.802  0.4999  1.5284  1.5539
   10CHL1  H24B  730   0.089   5.807   8.829 -1.0825  1.4062 -0.2274
   10CHL1   C25  731   0.028   5.663   8.667  0.3242 -0.0807  0.4322
   10CHL1   H25  732  -0.037   5.573   8.663  2.0704 -1.5442  2.4581
   10CHL1   C26  733   0.008   5.766   8.551 -0.3396 -0.4158 -0.3622
   10CHL1  H26A  734  -0.050   5.739   8.461 -0.4340 -0.1855 -0.3713
   10CHL1  H26B  735  -0.043   5.850   8.602  0.0609 -0.0845 -0.4984
   10CHL1  H26C  736   0.107   5.801   8.515 -0.0714  1.3210  1.8210
   10CHL1   C27  737   0.163   5.593   8.655  0.2832 -0.7390  0.3687
   10CHL1  H27A  738   0.178   5.512   8.729 -1.0265 -1.3034  0.0449
   10CHL1  H27B  739   0.166   5.551   8.552 -1.8066 -1.0472  0.3914
   10CHL1  H27C  740   0.237   5.676   8.660  0.6222 -1.0279  0.1175
   11CHL1    C3  741   2.135   6.447  10.379 -0.3046 -0.5918 -0.2095
   11CHL1    H3  742   2.220   6.376  10.379  1.5023  1.4464  0.4528
   11CHL1    O3  743   2.129   6.499  10.510  0.4401  0.7242  0.1441
   11CHL1   H3'  744   2.047   6.464  10.546  0.8332 -0.5759 -0.1877
   11CHL1    C4  745   2.156   6.553  10.276  1.2127 -0.4409  0.0687
   11CHL1   H4A  746   2.063   6.613  10.276  2.1357  1.1451 -1.9505
   11CHL1   H4B  747   2.244   6.613  10.309  0.8002  1.0413 -1.3951
   11CHL1    C5  748   2.174   6.502  10.134  0.0764  0.2154 -0.4645
   11CHL1    C6  749   2.281   6.535  10.057  0.3517 -0.1056 -0.6571
   11CHL1    H6  750   2.365   6.594  10.097  0.4735  0.0908 -1.1970
   11CHL1    C7  751   2.301   6.480   9.916 -0.2929 -0.8988  0.5041
   11CHL1   H7A  752   2.324   6.555   9.838  0.3192 -1.6061 -0.0140
   11CHL1   H7B  753   2.381   6.403   9.915  0.8879  0.2976 -0.7180
   11CHL1    C8  754   2.169   6.408   9.864  0.1466 -0.1205  0.1834
   11CHL1    H8  755   2.115   6.498   9.829  0.5876  0.3031  0.5848
   11CHL1   C14  756   2.198   6.336   9.730 -0.4702 -0.1416 -0.9041
   11CHL1   H14  757   2.258   6.249   9.762  0.9980  1.5374  1.1889
   11CHL1   C15  758   2.273   6.414   9.622  0.1653  0.4686  0.1895
   11CHL1  H15A  759   2.240   6.520   9.623  1.8404  1.0325 -1.2273
   11CHL1  H15B  760   2.382   6.401   9.632  0.2045 -0.7602 -1.4302
   11CHL1   C16  761   2.231   6.350   9.487 -0.5057 -1.3028  0.4006
   11CHL1  H16A  762   2.179   6.427   9.428 -1.3254 -1.1070  1.3469
   11CHL1  H16B  763   2.320   6.317   9.429 -0.0695  1.0240 -0.3243
   11CHL1   C17  764   2.154   6.228   9.540  0.2944  0.3611  0.8042
   11CHL1   H17  765   2.235   6.152   9.555  0.4197  0.4150  0.4167
   11CHL1   C13  766   2.078   6.272   9.667 -0.1445 -1.2386 -0.3010
   11CHL1   C18  767   1.969   6.386   9.633  0.8674 -0.1437 -0.7575
   11CHL1  H18A  768   2.017   6.465   9.572  1.0082  1.1364  0.9422
   11CHL1  H18B  769   1.876   6.347   9.586 -0.4754 -2.1964  3.1305
   11CHL1  H18C  770   1.935   6.425   9.732  1.1748  0.8829 -1.0502
   11CHL1   C12  771   2.022   6.170   9.764 -0.0501 -0.3998  0.2389
   11CHL1  H12A  772   1.936   6.133   9.705 -0.8049 -1.2758  1.8128
   11CHL1  H12B  773   2.098   6.088   9.765  0.2948 -0.1794 -2.2673
   11CHL1   C11  774   1.986   6.227   9.903  0.1829 -0.1794 -0.3084
   11CHL1  H11A  775   1.888   6.279   9.895  0.2241 -0.0538 -0.0164
   11CHL1  H11B  776   1.966   6.155   9.985 -1.3318  1.5452  0.9219
   11CHL1    C9  777   2.095   6.320   9.967 -0.2721  0.0523  0.2753
   11CHL1    H9  778   2.180   6.253   9.992  0.3700  0.5306 -0.5849
   11CHL1   C10  779   2.062   6.404  10.090 -0.4025 -0.4536  0.4227
   11CHL1   C19  780   1.943   6.497  10.054 -0.0251 -0.3669 -0.5898
   11CHL1  H19A  781   1.862   6.445  10.000 -1.1605  0.2967  0.4214
   11CHL1  H19B  782   1.894   6.548  10.140 -0.8287  3.4130 -3.0296
   11CHL1  H19C  783   1.985   6.573   9.984  0.5014 -0.8839 -0.8407
   11CHL1    C1  784   2.027   6.306  10.204 -0.2299  1.2672 -0.5263
   11CHL1   H1A  785   1.934   6.254  10.171 -0.0680 -0.2194  1.2207
   11CHL1   H1B  786   2.113   6.237  10.216 -0.7795  0.4097 -1.3027
   11CHL1    C2  787   2.004   6.365  10.345 -0.3708  0.9411  0.4351
   11CHL1   H2A  788   1.983   6.290  10.424  0.7181 -0.5652 -0.6526
   11CHL1   H2B  789   1.904   6.413  10.340 -1.6755 -1.6616 -0.1213
   11CHL1   C20  790   2.055   6.168   9.437  0.7576  0.3889  0.1637
   11CHL1   H20  791   1.956   6.215   9.448  1.3625  1.3936  1.7497
   11CHL1   C21  792   2.047   6.012   9.463  0.3558  0.9433  0.3075
   11CHL1  H21A  793   2.134   5.958   9.420 -0.8181  0.8587 -2.0897
   11CHL1  H21B  794   1.962   5.968   9.408  0.2601 -0.2887  1.3922
   11CHL1  H21C  795   2.044   5.976   9.568 -0.4089  0.3565  0.0904
   11CHL1   C22  796   2.104   6.187   9.294 -0.9566  0.0820 -0.3784
   11CHL1  H22A  797   2.115   6.296   9.274 -4.0108  0.5350 -0.0823
   11CHL1  H22B  798   2.197   6.129   9.277 -1.4942 -0.9402  0.0553
   11CHL1   C23  799   2.007   6.132   9.183  0.3447 -0.7483 -0.0930
   11CHL1  H23A  800   2.063   6.142   9.088  1.4623 -1.4374  0.4751
   11CHL1  H23B  801   1.974   6.027   9.199 -0.6694 -0.5332 -0.6493
   11CHL1   C24  802   1.878   6.217   9.170 -0.4458 -0.8926  0.0997
   11CHL1  H24A  803   1.818   6.167   9.090 -0.9120  1.8152 -1.3646
   11CHL1  H24B  804   1.821   6.214   9.265  0.4267  3.0515  0.9008
   11CHL1   C25  805   1.892   6.367   9.142 -0.3282  0.1025  0.5217
   11CHL1   H25  806   1.962   6.419   9.211 -1.8171 -0.5209  2.6188
   11CHL1   C26  807   1.954   6.383   9.000 -0.3876 -0.1785  0.3035
   11CHL1  H26A  808   2.062   6.356   9.002 -0.2987 -0.1046 -1.5684
   11CHL1  H26B  809   1.890   6.319   8.935 -2.0776  1.7124 -0.0175
   11CHL1  H26C  810   1.960   6.490   8.969  0.3423  0.1642  1.5440
   11CHL1   C27  811   1.760   6.439   9.143 -0.4310 -0.6183  0.3553
   11CHL1  H27A  812   1.692   6.409   9.060 -0.2342  1.9589 -0.8343
   11CHL1  H27B  813   1.706   6.414   9.237  2.2555 -0.7932  1.9566
   11CHL1  H27C  814   1.768   6.550   9.141  1.6244 -0.7312  0.3264
   12CHL1    C3  815   2.957   3.116  10.539  0.0319  0.1948 -0.5104
   12CHL1    H3  816   2.930   3.010  10.521  1.8715 -0.1332 -1.6446
   12CHL1    O3  817   2.959   3.147  10.678 -0.7995 -0.1871 -0.2990
   12CHL1   H3'  818   2.961   3.243  10.681 -2.8721 -0.0913 -0.7367
   12CHL1    C4  819   3.100   3.137  10.480  0.5207  0.3314  0.1879
   12CHL1   H4A  820   3.127   3.245  10.485 -1.3160  0.7446  3.6970
   12CHL1   H4B  821   3.183   3.085  10.533 -0.9540 -1.3924  0.9050
   12CHL1    C5  822   3.099   3.099  10.338 -0.0612 -0.0253  0.3394
   12CHL1    C6  823   3.189   3.005  10.300 -0.7337 -0.2412  0.2300
   12CHL1    H6  824   3.256   2.959  10.374  0.8952  0.4898 -0.7398
   12CHL1    C7  825   3.202   2.971  10.156 -0.4868 -1.1554  0.1838
   12CHL1   H7A  826   3.306   2.981  10.118 -0.7802  0.7666 -0.2635
   12CHL1   H7B  827   3.188   2.862  10.141 -2.5525 -1.4652  3.5368
   12CHL1    C8  828   3.123   3.060  10.057 -0.9406  0.2971 -0.2775
   12CHL1    H8  829   3.185   3.151  10.047 -0.3091 -0.1971 -0.9788
   12CHL1   C14  830   3.116   3.004   9.918 -0.1417  0.1366  0.2349
   12CHL1   H14  831   3.044   2.920   9.917 -0.5428  0.4103 -2.8387
   12CHL1   C15  832   3.242   2.943   9.856  0.1332 -0.0108  0.5306
   12CHL1  H15A  833   3.327   3.010   9.879  0.4311 -0.7498  1.6656
   12CHL1  H15B  834   3.259   2.839   9.893 -0.7108 -1.3594 -2.5469
   12CHL1   C16  835   3.216   2.951   9.701 -0.9872 -0.9618 -0.3167
   12CHL1  H16A  836   3.303   3.007   9.659 -2.2359  0.6899 -0.8067
   12CHL1  H16B  837   3.228   2.850   9.656  2.8076 -0.8211  0.0428
   12CHL1   C17  838   3.083   3.025   9.686 -0.5545 -0.1432  0.5859
   12CHL1   H17  839   3.012   2.940   9.690  0.7938 -1.3894 -0.7864
   12CHL1   C13  840   3.061   3.100   9.816 -0.0868  0.1383 -0.0628
   12CHL1   C18  841   3.141   3.230   9.809 -0.0753  0.2563 -0.4554
   12CHL1  H18A  842   3.155   3.286   9.904 -0.1302 -0.1667 -0.1990
   12CHL1  H18B  843   3.244   3.201   9.780 -0.4411 -0.7819 -0.7554
   12CHL1  H18C  844   3.095   3.300   9.736 -1.0356  0.9169  0.7477
   12CHL1   C12  845   2.913   3.123   9.853 -0.6563  0.5894 -0.1700
   12CHL1  H12A  846   2.872   3.204   9.789 -0.3575  1.5009  0.7597
   12CHL1  H12B  847   2.848   3.033   9.859  1.1162 -0.6409  2.4060
   12CHL1   C11  848   2.907   3.180  10.002  0.2258  0.1323 -0.4790
   12CHL1  H11A  849   2.934   3.288  10.005 -0.5464  0.3874 -1.6918
   12CHL1  H11B  850   2.798   3.175  10.023 -0.0851 -0.3342 -2.0335
   12CHL1    C9  851   2.987   3.097  10.108  0.4066 -1.1434 -0.3511
   12CHL1    H9  852   2.922   3.007  10.102 -2.9854  1.0574  0.3632
   12CHL1   C10  853   2.998   3.168  10.253  0.4411  0.5288  0.6350
   12CHL1   C19  854   3.033   3.313  10.233  0.4382 -0.6768 -0.3905
   12CHL1  H19A  855   3.116   3.317  10.158 -1.5137 -2.5325 -2.8159
   12CHL1  H19B  856   2.948   3.371  10.191  0.3394  1.3365  2.3321
   12CHL1  H19C  857   3.054   3.360  10.332 -1.6975 -1.3965  0.4416
   12CHL1    C1  858   2.851   3.154  10.319  0.2400  0.7248 -0.4817
   12CHL1   H1A  859   2.780   3.216  10.260 -1.3827 -0.3476  0.2671
   12CHL1   H1B  860   2.825   3.046  10.312 -0.2166  0.8496 -0.7666
   12CHL1    C2  861   2.849   3.197  10.466 -0.1458 -0.4413  0.6155
   12CHL1   H2A  862   2.749   3.180  10.513 -0.9210 -0.0045 -0.8028
   12CHL1   H2B  863   2.869   3.306  10.462  1.3608 -0.7033 -3.2778
   12CHL1   C20  864   3.058   3.089   9.549 -0.5319  0.0216 -0.0414
   12CHL1   H20  865   2.976   3.163   9.561 -0.6866 -0.4928  2.8422
   12CHL1   C21  866   2.989   2.993   9.462 -0.3825 -0.4282 -0.9388
   12CHL1  H21A  867   3.051   2.905   9.439  1.5933  1.0415 -1.4968
   12CHL1  H21B  868   2.953   3.046   9.370 -0.7698  0.2868 -0.3920
   12CHL1  H21C  869   2.899   2.952   9.513 -0.3069 -1.5735 -1.7071
   12CHL1   C22  870   3.173   3.154   9.476  0.8090 -0.4540 -0.3376
   12CHL1  H22A  871   3.217   3.221   9.553 -0.7315 -1.1185  1.1897
   12CHL1  H22B  872   3.260   3.087   9.455  0.3648 -1.1058 -0.1057
   12CHL1   C23  873   3.129   3.238   9.354 -0.1042  0.1906 -0.6323
   12CHL1  H23A  874   3.098   3.157   9.284  0.0939  0.0528 -0.5619
   12CHL1  H23B  875   3.040   3.299   9.382  0.0184 -0.2855  0.8535
   12CHL1   C24  876   3.240   3.300   9.283  0.0323  0.1349 -0.4009
   12CHL1  H24A  877   3.298   3.367   9.349  0.9723 -3.2795  2.5227
   12CHL1  H24B  878   3.308   3.213   9.273 -0.8540 -0.4865 -1.3064
   12CHL1   C25  879   3.221   3.355   9.140  0.2449 -0.2752  0.2588
   12CHL1   H25  880   3.171   3.272   9.086  1.3003 -1.0482  0.4400
   12CHL1   C26  881   3.139   3.479   9.135  0.0719 -0.2118 -0.3844
   12CHL1  H26A  882   3.112   3.518   9.035 -1.3552  2.1463  0.8139
   12CHL1  H26B  883   3.045   3.483   9.196 -1.4074  0.2329 -2.5828
   12CHL1  H26C  884   3.196   3.565   9.176  0.0554 -0.1453 -0.5005
   12CHL1   C27  885   3.347   3.392   9.062 -0.3711  0.0526  0.2557
   12CHL1  H27A  886   3.386   3.491   9.093 -0.7926  0.3994 -0.3260
   12CHL1  H27B  887   3.430   3.319   9.073 -0.2900 -0.0867 -1.1847
   12CHL1  H27C  888   3.325   3.405   8.954  2.2915  0.0765 -0.3519
   13CHL1    C3  889   4.466   5.931  10.232 -0.3948 -0.4913  0.4666
   13CHL1    H3  890   4.416   5.833  10.247  1.8597 -1.5306  1.6751
   13CHL1    O3  891   4.516   5.972  10.362 -0.3163 -0.9900  0.0772
   13CHL1   H3'  892   4.445   5.973  10.426 -1.2759  0.1420 -0.9510
   13CHL1    C4  893   4.583   5.891  10.139  0.3845  0.4683 -0.2177
   13CHL1   H4A  894   4.645   5.981  10.120  2.3491 -0.4297  1.5106
   13CHL1   H4B  895   4.661   5.821  10.176  3.9862  2.8891 -2.6176
   13CHL1    C5  896   4.526   5.829  10.011 -0.0616  0.1143 -0.4047
   13CHL1    C6  897   4.563   5.708   9.976  0.4762  0.2130  0.0817
   13CHL1    H6  898   4.641   5.654  10.032  0.7162 -0.7691 -1.1350
   13CHL1    C7  899   4.522   5.633   9.849  0.1759  0.1670 -0.1621
   13CHL1   H7A  900   4.616   5.597   9.801  0.2115 -2.1798  1.4944
   13CHL1   H7B  901   4.460   5.545   9.876 -0.0141  0.9386  2.1308
   13CHL1    C8  902   4.449   5.729   9.749 -0.5522 -0.0987 -0.5738
   13CHL1    H8  903   4.528   5.797   9.711 -1.9241  0.1123 -3.2435
   13CHL1   C14  904   4.377   5.650   9.637 -0.1444  0.0095 -0.7892
   13CHL1   H14  905   4.310   5.583   9.694  0.9653  0.1044  0.6739
   13CHL1   C15  906   4.461   5.545   9.554 -0.4036 -0.4245 -0.5204
   13CHL1  H15A  907   4.551   5.601   9.521  0.3171 -0.0868  1.8129
   13CHL1  H15B  908   4.489   5.457   9.616 -0.2640  0.3702  0.5918
   13CHL1   C16  909   4.373   5.512   9.436 -0.9300  0.1804  0.5672
   13CHL1  H16A  910   4.426   5.513   9.338 -1.1392 -0.7730  0.4395
   13CHL1  H16B  911   4.339   5.407   9.430  0.6694 -0.3019 -2.5792
   13CHL1   C17  912   4.240   5.611   9.448  1.5341 -0.5522  0.6590
   13CHL1   H17  913   4.167   5.549   9.504 -1.5032  1.4264 -0.8693
   13CHL1   C13  914   4.285   5.726   9.540  0.3648  0.1109 -0.0889
   13CHL1   C18  915   4.376   5.818   9.454 -0.2128 -0.6676  0.1356
   13CHL1  H18A  916   4.452   5.761   9.397  0.3109 -0.6212  0.7636
   13CHL1  H18B  917   4.320   5.894   9.395  2.7995  1.8317  0.2206
   13CHL1  H18C  918   4.421   5.898   9.517  0.3714 -1.0630  0.2301
   13CHL1   C12  919   4.184   5.800   9.633 -0.1346  0.1998 -0.1785
   13CHL1  H12A  920   4.114   5.860   9.572 -0.4756 -0.4081 -0.3974
   13CHL1  H12B  921   4.118   5.731   9.691 -2.2733  1.4647 -0.9829
   13CHL1   C11  922   4.257   5.891   9.733  0.0966  0.4899  0.2319
   13CHL1  H11A  923   4.305   5.966   9.666 -0.3574  2.2016  1.7180
   13CHL1  H11B  924   4.186   5.953   9.792 -2.7464 -1.0918 -1.3167
   13CHL1    C9  925   4.354   5.818   9.825 -0.1041 -0.0838 -0.3379
   13CHL1    H9  926   4.286   5.750   9.881  1.0388 -0.2489  0.8942
   13CHL1   C10  927   4.426   5.908   9.936  0.0385 -0.2542  0.4021
   13CHL1   C19  928   4.499   6.026   9.868  0.0600 -0.0377  0.1082
   13CHL1  H19A  929   4.424   6.096   9.825 -0.2052 -0.8478 -0.8000
   13CHL1  H19B  930   4.582   6.074   9.924 -0.7675  0.3264  1.0594
   13CHL1  H19C  931   4.561   5.982   9.787  0.9278  0.8573  0.2713
   13CHL1    C1  932   4.322   5.960  10.037 -0.0883 -0.0556  0.1780
   13CHL1   H1A  933   4.254   6.033   9.989  0.8053 -0.6551 -2.1645
   13CHL1   H1B  934   4.252   5.878  10.063  1.1247 -1.2923 -0.2892
   13CHL1    C2  935   4.377   6.036  10.163 -0.0954 -0.2069 -0.2809
   13CHL1   H2A  936   4.296   6.077  10.227  0.7633  2.2367 -0.6430
   13CHL1   H2B  937   4.437   6.125  10.133  1.6119  0.0835  3.4291
   13CHL1   C20  938   4.160   5.640   9.325  0.3784 -0.2685 -0.3754
   13CHL1   H20  939   4.198   5.727   9.269 -3.1452  0.9024 -1.1701
   13CHL1   C21  940   4.014   5.685   9.360  0.5979 -0.2997  0.4124
   13CHL1  H21A  941   3.941   5.653   9.282 -1.0167 -0.9024  2.1018
   13CHL1  H21B  942   4.004   5.794   9.375 -0.0842 -0.0988 -1.2374
   13CHL1  H21C  943   3.980   5.630   9.450  0.0003 -0.1329  0.2947
   13CHL1   C22  944   4.154   5.513   9.229  0.5685 -1.0425  0.2641
   13CHL1  H22A  945   4.264   5.503   9.215  0.6686  0.7580 -0.6148
   13CHL1  H22B  946   4.116   5.421   9.278  0.2514 -1.2821 -0.4171
   13CHL1   C23  947   4.087   5.530   9.097 -0.2719 -0.0844  0.2803
   13CHL1  H23A  948   3.978   5.523   9.116 -0.3636 -1.6906 -0.6418
   13CHL1  H23B  949   4.110   5.630   9.054 -0.8031 -0.2235 -0.3522
   13CHL1   C24  950   4.143   5.427   8.995  0.8127  0.1034 -0.1132
   13CHL1  H24A  951   4.253   5.429   9.003  0.8337  0.4061 -0.4968
   13CHL1  H24B  952   4.099   5.330   9.028  0.8846  0.5351  1.3536
   13CHL1   C25  953   4.097   5.460   8.850 -0.1975  0.4291 -0.3346
   13CHL1   H25  954   4.129   5.566   8.833 -0.0125  0.7136  1.5423
   13CHL1   C26  955   4.170   5.367   8.751 -0.5304  0.1271 -0.1130
   13CHL1  H26A  956   4.154   5.402   8.647 -1.6697  0.9768  0.3259
   13CHL1  H26B  957   4.281   5.369   8.754 -0.5621  0.9413  1.5069
   13CHL1  H26C  958   4.138   5.263   8.773 -0.6512  0.3423  0.7478
   13CHL1   C27  959   3.942   5.469   8.839  0.4023 -0.8388  0.2062
   13CHL1  H27A  960   3.897   5.569   8.857  0.6007 -0.3979 -1.5240
   13CHL1  H27B  961   3.909   5.455   8.734 -1.3330  0.1616  0.5803
   13CHL1  H27C  962   3.888   5.389   8.895  2.1070 -1.8910  0.4360
   14CHL1    C3  963   3.842   1.551  10.005  0.7174  0.0210 -0.0661
   14CHL1    H3  964   3.868   1.650   9.963 -0.8093  0.4942  0.0591
   14CHL1    O3  965   3.847   1.541  10.142 -0.3193  0.2578 -0.9721
   14CHL1   H3'  966   3.834   1.448  10.158  1.2142 -0.2383 -2.3388
   14CHL1    C4  967   3.702   1.513   9.957  0.2667 -0.0669 -0.1756
   14CHL1   H4A  968   3.684   1.409   9.992 -0.7146  0.5974  1.3765
   14CHL1   H4B  969   3.630   1.574  10.015  0.8956 -0.4365  1.0439
   14CHL1    C5  970   3.685   1.534   9.811 -0.2312  0.1914  0.0901
   14CHL1    C6  971   3.608   1.622   9.761 -0.3465 -0.2802 -0.0320
   14CHL1    H6  972   3.558   1.690   9.831  0.3899  0.0334  0.2043
   14CHL1    C7  973   3.574   1.636   9.616  0.0073 -0.9067 -0.7593
   14CHL1   H7A  974   3.464   1.626   9.601 -0.0036 -0.7974 -0.7564
   14CHL1   H7B  975   3.614   1.736   9.587  1.0593 -0.8804  0.6852
   14CHL1    C8  976   3.641   1.522   9.524 -0.2852  0.7104 -0.4054
   14CHL1    H8  977   3.575   1.433   9.518  0.0659  0.4871 -1.0378
   14CHL1   C14  978   3.668   1.574   9.384 -1.7653  0.7176  0.0719
   14CHL1   H14  979   3.746   1.653   9.392  0.1600 -1.1100  0.4564
   14CHL1   C15  980   3.551   1.638   9.299 -1.4164 -0.6471  0.8177
   14CHL1  H15A  981   3.451   1.593   9.317 -0.7629 -3.9650 -2.5534
   14CHL1  H15B  982   3.561   1.744   9.333 -1.0584 -0.6315  0.6641
   14CHL1   C16  983   3.594   1.617   9.154  0.1037 -0.4947  1.4812
   14CHL1  H16A  984   3.526   1.544   9.106  1.6568  0.7227 -3.1534
   14CHL1  H16B  985   3.582   1.719   9.111 -1.7924 -0.2186  2.5374
   14CHL1   C17  986   3.732   1.552   9.153  0.1122  0.3638 -0.4057
   14CHL1   H17  987   3.804   1.636   9.157  0.3593  0.1067  0.8001
   14CHL1   C13  988   3.735   1.473   9.288 -0.8126 -0.6473  0.2032
   14CHL1   C18  989   3.648   1.348   9.271 -0.0255  0.3144 -0.2098
   14CHL1  H18A  990   3.678   1.283   9.186 -0.7092 -2.4666  1.5607
   14CHL1  H18B  991   3.655   1.277   9.356 -2.0322 -1.2413 -1.2355
   14CHL1  H18C  992   3.546   1.384   9.244  0.6484  0.7796 -2.3986
   14CHL1   C12  993   3.871   1.433   9.350  0.0505  0.4406  0.0259
   14CHL1  H12A  994   3.922   1.353   9.293  0.1674 -1.3998  2.5238
   14CHL1  H12B  995   3.935   1.524   9.347  0.5116  0.1451  0.6318
   14CHL1   C11  996   3.861   1.382   9.495  0.5324 -0.1193  0.0160
   14CHL1  H11A  997   3.803   1.288   9.486 -2.2239  1.4593  0.3868
   14CHL1  H11B  998   3.963   1.367   9.537  1.3506  0.3812 -1.7058
   14CHL1    C9  999   3.776   1.480   9.589 -0.2443  0.6800  0.2123
   14CHL1    H9 1000   3.838   1.572   9.589  0.2524  0.3572 -0.5367
   14CHL1   C10 1001   3.773   1.442   9.732  0.1642  0.2415  0.4456
   14CHL1   C19 1002   3.718   1.296   9.741 -0.7929 -0.4533 -0.2295
   14CHL1  H19A 1003   3.622   1.303   9.685 -0.5148  2.3858 -0.4985
   14CHL1  H19B 1004   3.779   1.227   9.680 -1.6920 -0.3763 -1.2357
   14CHL1  H19C 1005   3.707   1.259   9.845 -1.2330  1.3440  0.4132
   14CHL1    C1 1006   3.919   1.430   9.791 -0.4439 -0.6694 -0.0422
   14CHL1   H1A 1007   3.971   1.342   9.748 -1.1905 -0.9475 -0.4012
   14CHL1   H1B 1008   3.979   1.517   9.756  0.9473 -1.6155 -0.0719
   14CHL1    C2 1009   3.937   1.442   9.940 -0.3832 -0.1421  0.0033
   14CHL1   H2A 1010   4.037   1.480   9.971 -1.2460  1.1715  1.3850
   14CHL1   H2B 1011   3.915   1.342   9.984  0.6227 -0.4080 -0.0893
   14CHL1   C20 1012   3.749   1.481   9.015 -0.4417  0.2785 -0.5683
   14CHL1   H20 1013   3.678   1.397   9.005  0.0106  0.0139 -1.7600
   14CHL1   C21 1014   3.884   1.419   9.017 -0.0985  0.2117  0.6427
   14CHL1  H21A 1015   3.954   1.487   9.070  1.0984 -0.0741 -0.5317
   14CHL1  H21B 1016   3.924   1.397   8.916  0.9724  1.1986  0.8442
   14CHL1  H21C 1017   3.883   1.323   9.074 -1.0401 -0.2211 -0.0669
   14CHL1   C22 1018   3.724   1.588   8.899 -0.7337  0.4636  0.5944
   14CHL1  H22A 1019   3.617   1.616   8.899 -0.3426  2.1214  0.5184
   14CHL1  H22B 1020   3.783   1.677   8.931  0.5943 -0.5358  1.0117
   14CHL1   C23 1021   3.758   1.544   8.756  0.6380  0.2359 -0.5668
   14CHL1  H23A 1022   3.861   1.502   8.754  0.5641  0.0432 -0.4513
   14CHL1  H23B 1023   3.694   1.454   8.741  0.3471  0.4293 -0.4888
   14CHL1   C24 1024   3.737   1.642   8.636 -0.0886  0.0461  0.0536
   14CHL1  H24A 1025   3.774   1.743   8.663 -1.2563  0.8229 -1.1426
   14CHL1  H24B 1026   3.802   1.596   8.558  0.4675 -0.2805  0.6991
   14CHL1   C25 1027   3.589   1.654   8.594 -0.3660  0.3675 -0.2933
   14CHL1   H25 1028   3.526   1.677   8.683 -1.0968 -0.2905 -0.6302
   14CHL1   C26 1029   3.576   1.765   8.492 -0.0591 -0.1187  0.4667
   14CHL1  H26A 1030   3.641   1.744   8.404  1.0675  0.8019  1.0524
   14CHL1  H26B 1031   3.468   1.785   8.476 -0.4326 -1.3073  1.3870
   14CHL1  H26C 1032   3.614   1.856   8.543  0.6541  0.3728 -0.8751
   14CHL1   C27 1033   3.538   1.521   8.536 -0.0713 -0.8832  0.3417
   14CHL1  H27A 1034   3.450   1.533   8.468 -1.3638  1.3851  2.2497
   14CHL1  H27B 1035   3.619   1.466   8.483  0.5882  0.4027 -0.0292
   14CHL1  H27C 1036   3.505   1.447   8.612 -0.3034  0.9015  2.0524
   15CHL1    C3 1037   3.236   1.529  10.114  0.1471 -0.5634  0.4734
   15CHL1    H3 1038   3.315   1.601  10.082  0.7245 -1.5795 -0.4872
   15CHL1    O3 1039   3.232   1.524  10.261 -0.3238  0.4791 -0.0550
   15CHL1   H3' 1040   3.144   1.561  10.276 -0.7893 -0.5758 -0.0561
   15CHL1    C4 1041   3.093   1.566  10.060 -0.9963 -0.0092  0.3794
   15CHL1   H4A 1042   3.021   1.486  10.086 -0.4653  0.3340  3.1998
   15CHL1   H4B 1043   3.056   1.666  10.091 -0.2029  0.8277 -1.2087
   15CHL1    C5 1044   3.100   1.559   9.905 -0.9298  0.2491  0.1743
   15CHL1    C6 1045   3.061   1.663   9.826 -1.0932  0.0509 -0.0227
   15CHL1    H6 1046   3.009   1.746   9.878  0.2322  0.6484  0.3814
   15CHL1    C7 1047   3.047   1.652   9.681  0.4384 -0.2230  0.1335
   15CHL1   H7A 1048   2.950   1.695   9.650  1.3656  2.3182  0.5422
   15CHL1   H7B 1049   3.122   1.715   9.628  0.4702 -1.8474 -1.8901
   15CHL1    C8 1050   3.073   1.509   9.620 -0.4986 -0.0174 -0.9324
   15CHL1    H8 1051   2.984   1.445   9.635  0.3554 -0.9935  0.0590
   15CHL1   C14 1052   3.114   1.529   9.475  0.8992 -1.0527  0.1975
   15CHL1   H14 1053   3.199   1.599   9.471  0.3215 -0.3672 -0.4322
   15CHL1   C15 1054   3.009   1.593   9.378  0.1110  0.5071  1.2391
   15CHL1  H15A 1055   2.910   1.548   9.399  0.1416 -0.5362 -0.6063
   15CHL1  H15B 1056   2.992   1.697   9.411 -4.1332  0.3995 -0.0815
   15CHL1   C16 1057   3.070   1.568   9.235 -0.1039  0.0869 -0.7419
   15CHL1  H16A 1058   2.987   1.536   9.169 -0.4040  1.4458 -1.0506
   15CHL1  H16B 1059   3.119   1.658   9.193 -1.8270  2.3453  1.6789
   15CHL1   C17 1060   3.171   1.451   9.257  0.5282  0.0852  0.1735
   15CHL1   H17 1061   3.268   1.505   9.256  0.6270  0.0309 -2.7534
   15CHL1   C13 1062   3.140   1.399   9.396 -0.3374 -0.0494  0.0727
   15CHL1   C18 1063   3.016   1.302   9.391  0.3626  0.1647  0.5788
   15CHL1  H18A 1064   2.964   1.283   9.487 -1.8911  0.5889 -0.5120
   15CHL1  H18B 1065   2.942   1.339   9.317  2.5718  0.2374 -1.7643
   15CHL1  H18C 1066   3.040   1.196   9.368 -1.3339  0.0809 -1.0336
   15CHL1   C12 1067   3.258   1.328   9.463 -0.2826 -1.0211 -0.2345
   15CHL1  H12A 1068   3.279   1.229   9.418 -2.5606 -1.5029 -0.3537
   15CHL1  H12B 1069   3.340   1.403   9.457 -1.2990  0.3116  1.5076
   15CHL1   C11 1070   3.236   1.307   9.617 -0.1177 -0.3982  0.4513
   15CHL1  H11A 1071   3.158   1.229   9.628 -1.7251  1.0955  0.1407
   15CHL1  H11B 1072   3.331   1.269   9.660  0.5528 -0.5188 -1.0798
   15CHL1    C9 1073   3.196   1.443   9.688  0.2732  0.3230 -0.2789
   15CHL1    H9 1074   3.280   1.515   9.675  1.0127 -0.0204  2.1695
   15CHL1   C10 1075   3.154   1.431   9.839 -0.0417  0.5656 -0.9860
   15CHL1   C19 1076   3.053   1.317   9.868 -0.4843  0.4108  0.5440
   15CHL1  H19A 1077   3.100   1.219   9.843 -1.8802 -0.3480  0.8070
   15CHL1  H19B 1078   3.025   1.308   9.975 -0.3380 -1.8935  0.4432
   15CHL1  H19C 1079   2.961   1.329   9.807  0.4444 -0.4465 -1.0951
   15CHL1    C1 1080   3.287   1.388   9.910  0.6585 -0.2703  0.0047
   15CHL1   H1A 1081   3.314   1.284   9.883  0.9201  0.0584 -1.0719
   15CHL1   H1B 1082   3.376   1.445   9.875  0.8730 -1.1369 -0.9119
   15CHL1    C2 1083   3.278   1.391  10.065  0.4505 -0.1718 -0.2458
   15CHL1   H2A 1084   3.379   1.369  10.106  0.2754 -0.7704 -0.1396
   15CHL1   H2B 1085   3.219   1.309  10.111 -1.1674  0.1477 -1.6533
   15CHL1   C20 1086   3.162   1.358   9.136 -0.0397 -0.7072  0.8624
   15CHL1   H20 1087   3.054   1.332   9.130 -0.4519  0.8806  0.7742
   15CHL1   C21 1088   3.250   1.234   9.156  0.2006 -0.4002  0.0350
   15CHL1  H21A 1089   3.211   1.165   9.233 -1.4433 -0.4722 -0.8201
   15CHL1  H21B 1090   3.357   1.257   9.176 -0.3001  1.1507  1.0722
   15CHL1  H21C 1091   3.248   1.178   9.060  3.7131  0.6720 -0.8123
   15CHL1   C22 1092   3.189   1.435   9.009 -0.1995 -0.0218  0.6909
   15CHL1  H22A 1093   3.144   1.536   9.020  0.1307 -0.0253  2.4938
   15CHL1  H22B 1094   3.298   1.455   9.001 -0.0544 -0.1897  1.9411
   15CHL1   C23 1095   3.131   1.374   8.882 -0.8574 -0.3558 -0.2172
   15CHL1  H23A 1096   3.174   1.275   8.855  0.1850  0.4845 -1.7546
   15CHL1  H23B 1097   3.024   1.363   8.911 -0.3723 -0.4157  1.6977
   15CHL1   C24 1098   3.148   1.468   8.760 -0.2591  0.5501  0.2247
   15CHL1  H24A 1099   3.101   1.567   8.776  0.5537  1.3141 -1.8005
   15CHL1  H24B 1100   3.257   1.470   8.737 -0.3799 -0.2644 -0.5144
   15CHL1   C25 1101   3.079   1.424   8.627  0.0897  0.1972  0.1560
   15CHL1   H25 1102   3.070   1.510   8.558 -1.1828 -1.9843 -2.6074
   15CHL1   C26 1103   3.163   1.316   8.556  0.9983 -0.5980 -0.4240
   15CHL1  H26A 1104   3.114   1.293   8.459 -1.1130 -1.2405  0.7472
   15CHL1  H26B 1105   3.271   1.341   8.550  1.0919 -0.5495  1.2227
   15CHL1  H26C 1106   3.158   1.222   8.614  2.5070  0.5716  1.7445
   15CHL1   C27 1107   2.934   1.372   8.642 -0.6346  0.1151  0.7797
   15CHL1  H27A 1108   2.939   1.274   8.693  1.9044 -0.0372  0.3719
   15CHL1  H27B 1109   2.886   1.451   8.704 -0.4406  0.7815  0.1073
   15CHL1  H27C 1110   2.879   1.348   8.548 -0.3574 -1.7631  1.0654
   16CHL1    C3 1111   4.145   2.095  10.250 -0.3414 -0.0726  0.2537
   16CHL1    H3 1112   4.034   2.093  10.239 -0.1662 -0.1028 -1.8415
   16CHL1    O3 1113   4.192   2.116  10.380 -0.0668  0.1566  0.3476
   16CHL1   H3' 1114   4.285   2.135  10.364 -0.4277  1.7055 -0.1426
   16CHL1    C4 1115   4.202   1.964  10.206  0.3133  0.3474  0.5128
   16CHL1   H4A 1116   4.310   1.959  10.232 -0.2390  1.1315  3.3048
   16CHL1   H4B 1117   4.139   1.895  10.267 -1.1878  0.0150 -1.3355
   16CHL1    C5 1118   4.175   1.945  10.056 -0.2806  0.7947 -0.1317
   16CHL1    C6 1119   4.107   1.836  10.008 -0.0915  0.0094  0.4497
   16CHL1    H6 1120   4.067   1.763  10.080  1.9161 -1.0426  0.5559
   16CHL1    C7 1121   4.078   1.812   9.859  0.2843 -0.2794 -0.2536
   16CHL1   H7A 1122   4.094   1.704   9.837 -2.6700 -0.8475  0.0402
   16CHL1   H7B 1123   3.971   1.837   9.844 -0.2692 -2.5264 -0.3489
   16CHL1    C8 1124   4.169   1.895   9.765  0.1159 -0.6178  0.4715
   16CHL1    H8 1125   4.271   1.854   9.777  0.6300  0.5627  0.3369
   16CHL1   C14 1126   4.131   1.893   9.615 -0.0113  0.1672  0.1628
   16CHL1   H14 1127   4.024   1.920   9.605  0.4214  1.6625 -0.6152
   16CHL1   C15 1128   4.116   1.757   9.555  0.3506  0.1001 -0.2431
   16CHL1  H15A 1129   4.204   1.698   9.589  1.7589  0.7137 -2.5268
   16CHL1  H15B 1130   4.029   1.696   9.587  1.6589 -1.5625  0.2822
   16CHL1   C16 1131   4.118   1.779   9.402  0.5217  0.8118  0.0793
   16CHL1  H16A 1132   4.205   1.714   9.378  1.4426  1.2624  1.9564
   16CHL1  H16B 1133   4.028   1.737   9.352 -0.4877  1.5405  1.2093
   16CHL1   C17 1134   4.149   1.927   9.387 -0.2157 -0.1932 -0.5341
   16CHL1   H17 1135   4.051   1.979   9.379 -0.6010 -0.7413  0.4422
   16CHL1   C13 1136   4.209   1.974   9.520  0.0856  0.5483 -0.2121
   16CHL1   C18 1137   4.360   1.938   9.526 -0.0464  0.2206 -0.4061
   16CHL1  H18A 1138   4.404   1.958   9.626 -2.6873  0.2710  0.8362
   16CHL1  H18B 1139   4.369   1.829   9.508  0.7473  0.2510 -0.2245
   16CHL1  H18C 1140   4.416   2.003   9.456  1.1588  1.0424  1.2398
   16CHL1   C12 1141   4.174   2.115   9.561  0.0415  0.7004 -0.0730
   16CHL1  H12A 1142   4.230   2.192   9.504  0.8772 -1.5731 -2.5817
   16CHL1  H12B 1143   4.066   2.125   9.539 -0.3988  1.3980  2.2221
   16CHL1   C11 1144   4.213   2.148   9.710  0.0572 -0.0848 -0.2694
   16CHL1  H11A 1145   4.323   2.162   9.719 -0.1988  1.6438  0.7541
   16CHL1  H11B 1146   4.173   2.250   9.730  0.9950  0.3546 -0.5595
   16CHL1    C9 1147   4.162   2.043   9.811 -0.0406  0.3925 -0.2487
   16CHL1    H9 1148   4.055   2.065   9.827  0.6026  2.6243  1.6015
   16CHL1   C10 1149   4.219   2.049   9.955 -0.0892 -0.3584  0.3162
   16CHL1   C19 1150   4.374   2.048   9.950  0.3304  0.2044 -0.0168
   16CHL1  H19A 1151   4.428   2.120   9.885  0.5128 -0.1626 -0.2748
   16CHL1  H19B 1152   4.415   2.056  10.053  0.3770 -2.3365  0.2295
   16CHL1  H19C 1153   4.395   1.945   9.912 -0.8176 -0.2717  0.5781
   16CHL1    C1 1154   4.170   2.190  10.018 -0.4481 -0.1385 -0.1910
   16CHL1   H1A 1155   4.216   2.275   9.962 -1.4800  0.7393  0.2621
   16CHL1   H1B 1156   4.061   2.196  10.001 -0.3255  1.3830 -0.6067
   16CHL1    C2 1157   4.206   2.210  10.166  0.5051  0.7172  0.5151
   16CHL1   H2A 1158   4.167   2.310  10.195 -0.4733  0.4131  0.2915
   16CHL1   H2B 1159   4.316   2.219  10.180  0.6288  2.4611 -1.1218
   16CHL1   C20 1160   4.222   1.959   9.253  0.6912 -0.2161 -0.1085
   16CHL1   H20 1161   4.324   1.913   9.258 -0.1343 -2.0393  1.8133
   16CHL1   C21 1162   4.230   2.112   9.231  0.2811 -0.0094 -0.3303
   16CHL1  H21A 1163   4.135   2.154   9.192  0.0648  0.5942  0.8236
   16CHL1  H21B 1164   4.310   2.144   9.161  0.8661 -0.4114  0.1472
   16CHL1  H21C 1165   4.258   2.173   9.319 -1.2945 -0.3579  0.4609
   16CHL1   C22 1166   4.147   1.886   9.130  0.1280 -0.9567  0.4446
   16CHL1  H22A 1167   4.147   1.776   9.141  0.6336 -0.7511  3.4539
   16CHL1  H22B 1168   4.043   1.923   9.122 -0.1496 -0.5772  3.9611
   16CHL1   C23 1169   4.208   1.923   8.992  0.0970 -0.9536 -0.0923
   16CHL1  H23A 1170   4.194   2.030   8.969 -1.6823 -0.9742  0.6886
   16CHL1  H23B 1171   4.319   1.916   9.000  0.0748 -0.4030  0.7659
   16CHL1   C24 1172   4.144   1.839   8.879  0.4296 -0.1521  0.3053
   16CHL1  H24A 1173   4.174   1.732   8.881 -1.7815 -0.8723 -1.2959
   16CHL1  H24B 1174   4.034   1.843   8.892  0.3176 -0.3968 -0.5322
   16CHL1   C25 1175   4.176   1.888   8.739  0.0124  0.5989  0.2864
   16CHL1   H25 1176   4.142   1.993   8.729 -1.1237  0.3053  0.9109
   16CHL1   C26 1177   4.329   1.869   8.719 -0.3333 -0.2082 -0.4473
   16CHL1  H26A 1178   4.350   1.768   8.761  1.0520  0.1357 -0.2477
   16CHL1  H26B 1179   4.357   1.873   8.611  0.1547  0.3218 -0.3095
   16CHL1  H26C 1180   4.381   1.948   8.778 -1.5888 -0.3891  0.9490
   16CHL1   C27 1181   4.108   1.794   8.636  0.5971 -0.0400 -0.4478
   16CHL1  H27A 1182   3.997   1.798   8.646  0.7081 -0.8157  1.5869
   16CHL1  H27B 1183   4.148   1.799   8.532  0.3182  0.7278 -0.5231
   16CHL1  H27C 1184   4.139   1.690   8.659  1.2317 -0.2348 -2.0662
   17CHL1    C3 1185   0.811   6.743  10.230  0.0522 -0.5418 -0.5482
   17CHL1    H3 1186   0.778   6.840  10.187  0.7003 -0.4285 -0.7987
   17CHL1    O3 1187   0.828   6.760  10.368  0.2906 -0.8564  0.0932
   17CHL1   H3' 1188   0.742   6.743  10.407 -1.0340  1.0848 -1.6940
   17CHL1    C4 1189   0.732   6.620  10.208  1.3215 -0.8689  0.0740
   17CHL1   H4A 1190   0.788   6.540  10.261  2.3763 -0.0635  0.2233
   17CHL1   H4B 1191   0.637   6.625  10.264  1.0866 -1.4453 -0.2711
   17CHL1    C5 1192   0.721   6.601  10.055 -0.1716  0.0777 -0.8038
   17CHL1    C6 1193   0.605   6.597   9.997  0.2018  0.2924  0.7249
   17CHL1    H6 1194   0.516   6.580  10.059 -1.2804  0.9292 -1.1401
   17CHL1    C7 1195   0.576   6.577   9.846  0.0201  0.0770  0.7384
   17CHL1   H7A 1196   0.500   6.500   9.822  2.0373 -2.0455  0.8711
   17CHL1   H7B 1197   0.536   6.676   9.813  1.6354  1.0935  1.6819
   17CHL1    C8 1198   0.701   6.542   9.768  0.5166 -0.2252  0.5135
   17CHL1    H8 1199   0.729   6.438   9.794  3.0910 -0.3929 -2.2922
   17CHL1   C14 1200   0.682   6.556   9.614  0.0190  0.3090 -0.0270
   17CHL1   H14 1201   0.659   6.663   9.593 -1.0617  0.0728 -0.1237
   17CHL1   C15 1202   0.581   6.471   9.540  0.0428 -0.6506  0.1358
   17CHL1  H15A 1203   0.582   6.368   9.584  1.1845 -0.6253  0.2005
   17CHL1  H15B 1204   0.478   6.507   9.560 -0.2045 -0.6393 -1.0714
   17CHL1   C16 1205   0.620   6.469   9.389  0.0350 -0.2466 -0.2538
   17CHL1  H16A 1206   0.632   6.361   9.365  0.2769 -0.4912  0.8883
   17CHL1  H16B 1207   0.536   6.508   9.328  1.4564  1.8834 -0.9681
   17CHL1   C17 1208   0.758   6.544   9.387 -0.3640 -0.2705  0.1939
   17CHL1   H17 1209   0.738   6.653   9.374  4.4941  0.6579 -1.5329
   17CHL1   C13 1210   0.809   6.524   9.530 -0.0509 -0.5426  0.2483
   17CHL1   C18 1211   0.863   6.379   9.542  0.8106 -0.3687 -0.3538
   17CHL1  H18A 1212   0.968   6.372   9.507  1.0221 -0.3101  0.2554
   17CHL1  H18B 1213   0.874   6.344   9.647  1.7331 -1.4607 -0.7885
   17CHL1  H18C 1214   0.807   6.301   9.486  0.8438  0.7162 -1.9795
   17CHL1   C12 1215   0.911   6.624   9.576  0.5585 -0.6423  0.5423
   17CHL1  H12A 1216   1.012   6.616   9.530  1.4204 -0.2695  2.2671
   17CHL1  H12B 1217   0.880   6.730   9.561 -0.4076 -1.1852 -1.6307
   17CHL1   C11 1218   0.940   6.601   9.727  0.3656  0.0258  0.5800
   17CHL1  H11A 1219   0.976   6.496   9.726 -2.9819 -1.2736 -1.1786
   17CHL1  H11B 1220   1.017   6.677   9.751 -2.0331  2.1142  2.1496
   17CHL1    C9 1221   0.822   6.622   9.822 -0.0842  0.1803 -0.3967
   17CHL1    H9 1222   0.791   6.728   9.816 -1.3955 -0.0645  1.2534
   17CHL1   C10 1223   0.856   6.600   9.972  0.2740 -0.1904  0.4815
   17CHL1   C19 1224   0.930   6.463   9.991 -0.5109  0.4432  0.4209
   17CHL1  H19A 1225   0.942   6.429  10.096  3.8128 -2.6867 -0.8217
   17CHL1  H19B 1226   0.876   6.383   9.935  1.1257  0.4778 -1.3187
   17CHL1  H19C 1227   1.032   6.464   9.947 -0.6245 -1.1658  0.0402
   17CHL1    C1 1228   0.945   6.720  10.022 -0.4928  0.0872  0.2018
   17CHL1   H1A 1229   1.052   6.701   9.999 -0.6865  0.0501 -0.6804
   17CHL1   H1B 1230   0.912   6.815   9.976 -2.3469 -1.0256 -0.8706
   17CHL1    C2 1231   0.952   6.722  10.170 -0.2761  0.0818  0.1409
   17CHL1   H2A 1232   1.028   6.800  10.191 -0.1302 -0.1169  0.3650
   17CHL1   H2B 1233   0.996   6.629  10.213  2.3193  0.6221 -1.1246
   17CHL1   C20 1234   0.839   6.508   9.262 -0.1131  0.5091  0.2708
   17CHL1   H20 1235   0.862   6.400   9.276  2.1991  1.0214  0.8576
   17CHL1   C21 1236   0.978   6.584   9.260 -0.1020 -0.1549 -0.3962
   17CHL1  H21A 1237   0.944   6.689   9.243 -0.6968  0.1569  2.3606
   17CHL1  H21B 1238   1.041   6.542   9.178  2.1327  3.2812 -0.6761
   17CHL1  H21C 1239   1.030   6.568   9.356  0.4372  3.9204  0.1965
   17CHL1   C22 1240   0.772   6.518   9.122 -0.0592  0.3207  0.3517
   17CHL1  H22A 1241   0.663   6.501   9.131 -0.2408  2.3275  3.8432
   17CHL1  H22B 1242   0.788   6.619   9.079  3.5506 -0.0996  0.3737
   17CHL1   C23 1243   0.824   6.423   9.013  0.0257 -0.7633 -0.1723
   17CHL1  H23A 1244   0.917   6.466   8.970 -0.4801 -0.7122 -1.2334
   17CHL1  H23B 1245   0.849   6.322   9.053  2.6378  0.3890  1.4037
   17CHL1   C24 1246   0.712   6.402   8.910  0.1889 -0.0680  0.0160
   17CHL1  H24A 1247   0.629   6.344   8.955 -1.8609 -0.0027 -3.3653
   17CHL1  H24B 1248   0.663   6.500   8.891  0.6525  1.2391  4.4926
   17CHL1   C25 1249   0.752   6.329   8.788 -0.4358 -0.3388  0.5050
   17CHL1   H25 1250   0.795   6.232   8.823 -2.4780 -0.6904  2.2663
   17CHL1   C26 1251   0.628   6.285   8.715  0.5193  0.6774  0.2217
   17CHL1  H26A 1252   0.548   6.239   8.778 -0.4900 -2.3525 -2.9481
   17CHL1  H26B 1253   0.578   6.366   8.659  0.9653  2.3150  2.0785
   17CHL1  H26C 1254   0.668   6.213   8.641  1.6425  0.4820  0.9884
   17CHL1   C27 1255   0.860   6.405   8.699  0.4967  0.3369  0.2523
   17CHL1  H27A 1256   0.949   6.417   8.764 -0.7728 -0.3221  2.1761
   17CHL1  H27B 1257   0.877   6.345   8.607  1.0522  1.2438 -0.2569
   17CHL1  H27C 1258   0.810   6.499   8.667 -0.5501 -0.5585 -0.8868
   18CHL1    C3 1259   5.737   3.101  10.174 -0.1210 -0.4836 -0.1463
   18CHL1    H3 1260   5.632   3.066  10.182  0.0196 -0.4522  3.5958
   18CHL1    O3 1261   5.783   3.129  10.307  0.1827 -0.1585 -0.5461
   18CHL1   H3' 1262   5.843   3.060  10.335 -1.1656 -1.5442 -0.9124
   18CHL1    C4 1263   5.825   2.997  10.120 -1.0324  0.2842 -0.6185
   18CHL1   H4A 1264   5.930   3.014  10.154 -1.5908  0.8944  0.8741
   18CHL1   H4B 1265   5.791   2.904  10.170 -1.7331  0.6231 -0.4512
   18CHL1    C5 1266   5.824   2.990   9.967  0.3427 -1.1655 -0.3992
   18CHL1    C6 1267   5.815   2.869   9.910  0.3384 -0.4495 -0.3942
   18CHL1    H6 1268   5.829   2.787   9.982  2.7518  2.1738  2.4213
   18CHL1    C7 1269   5.821   2.842   9.764  0.3503  0.9076  0.8419
   18CHL1   H7A 1270   5.908   2.777   9.740  0.8881  0.8259  2.8332
   18CHL1   H7B 1271   5.730   2.790   9.729  2.0135  0.4310 -3.4246
   18CHL1    C8 1272   5.848   2.967   9.682 -0.4191  0.5855 -0.8331
   18CHL1    H8 1273   5.959   2.978   9.677 -0.3321 -0.5188 -1.6902
   18CHL1   C14 1274   5.807   2.948   9.535  0.1896 -0.8341 -0.1784
   18CHL1   H14 1275   5.696   2.943   9.536  0.0613  1.0585 -0.7774
   18CHL1   C15 1276   5.857   2.820   9.465 -0.1636 -1.2081  0.5201
   18CHL1  H15A 1277   5.964   2.803   9.490 -0.2892 -0.5073  1.6157
   18CHL1  H15B 1278   5.788   2.736   9.488 -3.6059  1.1988 -0.3025
   18CHL1   C16 1279   5.840   2.865   9.313  0.3770 -0.9020  0.3637
   18CHL1  H16A 1280   5.929   2.846   9.249 -0.8222  1.0545 -2.0645
   18CHL1  H16B 1281   5.749   2.823   9.267 -2.1216  3.4687  0.7134
   18CHL1   C17 1282   5.801   3.017   9.310 -0.3069 -0.0325  0.5277
   18CHL1   H17 1283   5.690   3.020   9.302 -0.1732  1.4302 -1.5883
   18CHL1   C13 1284   5.841   3.072   9.447  1.0663  0.7095  0.4755
   18CHL1   C18 1285   5.991   3.109   9.448  0.5023 -0.3464  0.1323
   18CHL1  H18A 1286   6.029   3.128   9.551 -5.4508  0.3234  2.6422
   18CHL1  H18B 1287   6.049   3.025   9.404 -2.2096 -1.5006 -1.4514
   18CHL1  H18C 1288   6.006   3.203   9.392 -2.4089 -0.5012 -1.0436
   18CHL1   C12 1289   5.759   3.192   9.496  0.1785 -0.0964  0.0532
   18CHL1  H12A 1290   5.782   3.286   9.442  0.1442  1.2830  2.3061
   18CHL1  H12B 1291   5.651   3.174   9.479  0.2919  0.4732 -1.3736
   18CHL1   C11 1292   5.792   3.220   9.640 -0.0135  0.3778 -0.1181
   18CHL1  H11A 1293   5.883   3.282   9.647 -0.2995  0.9626 -1.2645
   18CHL1  H11B 1294   5.717   3.296   9.671  3.9403  5.6133 -1.9155
   18CHL1    C9 1295   5.777   3.094   9.731 -0.0788  0.2503  0.3579
   18CHL1    H9 1296   5.671   3.061   9.728  0.2363 -0.8287  0.6249
   18CHL1   C10 1297   5.819   3.116   9.884  0.2222  0.4459 -0.1774
   18CHL1   C19 1298   5.958   3.180   9.884  0.1015  0.5085  0.1615
   18CHL1  H19A 1299   5.949   3.287   9.854  1.3156  0.2435 -1.2625
   18CHL1  H19B 1300   6.008   3.168   9.982 -0.3930  0.6794  0.4400
   18CHL1  H19C 1301   6.025   3.127   9.813  0.1193 -1.3202  1.4921
   18CHL1    C1 1302   5.713   3.208   9.953 -0.3421  0.0632 -0.1296
   18CHL1   H1A 1303   5.717   3.308   9.906 -2.7846  0.4285  0.3233
   18CHL1   H1B 1304   5.609   3.171   9.949 -0.9596  1.8257 -1.5568
   18CHL1    C2 1305   5.746   3.231  10.105  0.0238  0.0963 -0.3103
   18CHL1   H2A 1306   5.669   3.301  10.144 -0.3183 -0.3734 -0.1306
   18CHL1   H2B 1307   5.842   3.284  10.121  0.1049 -0.5050  1.4009
   18CHL1   C20 1308   5.851   3.074   9.176  0.3627  0.2539  0.1400
   18CHL1   H20 1309   5.961   3.061   9.169  0.6879  1.6724  1.8593
   18CHL1   C21 1310   5.812   3.226   9.161 -0.1723  0.4514 -0.1583
   18CHL1  H21A 1311   5.852   3.267   9.067 -0.2415 -0.2181 -0.4871
   18CHL1  H21B 1312   5.849   3.291   9.243 -1.2075  1.4007 -0.4166
   18CHL1  H21C 1313   5.702   3.241   9.155 -0.4817 -1.4089  0.2224
   18CHL1   C22 1314   5.788   2.998   9.051  0.0069  0.0851 -0.3118
   18CHL1  H22A 1315   5.810   2.890   9.066  1.6333  0.2218 -1.4526
   18CHL1  H22B 1316   5.683   3.030   9.035 -0.0474 -0.6136 -1.5001
   18CHL1   C23 1317   5.867   3.021   8.918 -0.2435  0.3968  0.6388
   18CHL1  H23A 1318   5.868   3.130   8.895 -1.0334  0.4748  0.9440
   18CHL1  H23B 1319   5.974   2.994   8.932  0.0449  0.7528 -0.7161
   18CHL1   C24 1320   5.808   2.934   8.798 -0.7339  0.3082 -0.7042
   18CHL1  H24A 1321   5.868   2.841   8.795 -0.2083  0.4572  2.1417
   18CHL1  H24B 1322   5.703   2.902   8.815 -1.0341  1.5448 -0.0427
   18CHL1   C25 1323   5.815   3.009   8.663 -0.1766  1.2796  0.4267
   18CHL1   H25 1324   5.773   3.111   8.671  0.9143  1.6347  2.1388
   18CHL1   C26 1325   5.969   3.030   8.621  0.4135  0.3725  0.5306
   18CHL1  H26A 1326   6.017   2.930   8.610  0.9298  0.6932 -0.1697
   18CHL1  H26B 1327   5.975   3.093   8.530 -1.4021  1.0309  0.8237
   18CHL1  H26C 1328   6.016   3.090   8.701 -2.1436  1.2140  1.5056
   18CHL1   C27 1329   5.741   2.925   8.562 -0.9254 -0.7258  0.0276
   18CHL1  H27A 1330   5.724   2.983   8.468  2.7978  1.7761  0.6765
   18CHL1  H27B 1331   5.793   2.835   8.525 -3.8106 -2.2560 -0.5876
   18CHL1  H27C 1332   5.648   2.883   8.605  0.4353 -2.4616  1.4264
   19CHL1    C3 1333   4.476   1.660   9.997 -0.8411  0.2206  0.5548
   19CHL1    H3 1334   4.394   1.727   9.963 -0.0083  0.5610 -0.8487
   19CHL1    O3 1335   4.521   1.674  10.129 -0.4801 -0.7323 -0.2625
   19CHL1   H3' 1336   4.611   1.641  10.128  0.7680  2.2710 -0.1899
   19CHL1    C4 1337   4.446   1.512   9.968  0.2520  0.5234 -0.2960
   19CHL1   H4A 1338   4.532   1.453  10.006 -0.2231  0.3820  0.5916
   19CHL1   H4B 1339   4.355   1.496  10.029 -0.3540  0.0100 -1.3189
   19CHL1    C5 1340   4.416   1.495   9.820 -0.2282  0.3189  0.7476
   19CHL1    C6 1341   4.300   1.438   9.783 -0.1494 -0.3932 -0.9925
   19CHL1    H6 1342   4.241   1.384   9.858  2.6594 -0.4503  1.3936
   19CHL1    C7 1343   4.255   1.412   9.644 -0.3142 -0.3697  0.0376
   19CHL1   H7A 1344   4.203   1.314   9.634 -1.1833  0.1587 -0.9688
   19CHL1   H7B 1345   4.180   1.489   9.614 -1.6372 -1.3115  0.8352
   19CHL1    C8 1346   4.374   1.416   9.541 -0.4546  0.1816 -0.3098
   19CHL1    H8 1347   4.431   1.322   9.557 -2.0722 -0.5462  1.6423
   19CHL1   C14 1348   4.317   1.428   9.398  0.2126 -0.8301  1.0621
   19CHL1   H14 1349   4.256   1.521   9.403  2.5473  0.8716  0.0025
   19CHL1   C15 1350   4.224   1.318   9.345 -1.1543 -0.0944 -0.1417
   19CHL1  H15A 1351   4.272   1.221   9.367  1.0313  1.3163  1.8552
   19CHL1  H15B 1352   4.126   1.329   9.396 -1.1304 -1.0782  0.1332
   19CHL1   C16 1353   4.224   1.343   9.192  0.0150  0.8438  0.1429
   19CHL1  H16A 1354   4.235   1.245   9.140 -1.8992  0.4629  0.4105
   19CHL1  H16B 1355   4.122   1.384   9.178  0.0553  0.9734  0.2272
   19CHL1   C17 1356   4.323   1.456   9.162  0.1705 -0.8518  0.5314
   19CHL1   H17 1357   4.268   1.552   9.163 -1.4445 -1.5159 -3.7715
   19CHL1   C13 1358   4.421   1.454   9.288  0.6226  0.4199  0.8597
   19CHL1   C18 1359   4.513   1.328   9.265  0.4654 -0.4930  0.0348
   19CHL1  H18A 1360   4.587   1.358   9.188  0.9691  0.7457  0.9592
   19CHL1  H18B 1361   4.556   1.304   9.365 -1.2278  1.1789  1.2525
   19CHL1  H18C 1362   4.463   1.236   9.229  1.2430 -1.6325  1.7158
   19CHL1   C12 1363   4.498   1.581   9.326 -0.1693 -0.4582  0.5278
   19CHL1  H12A 1364   4.584   1.597   9.257 -0.5380 -0.8903 -0.0433
   19CHL1  H12B 1365   4.428   1.667   9.317  1.2074  0.6722  0.2634
   19CHL1   C11 1366   4.568   1.567   9.466 -0.0796  0.2696 -0.2495
   19CHL1  H11A 1367   4.628   1.474   9.457 -0.9734 -0.3987  0.5147
   19CHL1  H11B 1368   4.626   1.658   9.492  1.5685 -1.0975  1.0548
   19CHL1    C9 1369   4.459   1.538   9.575  0.2475  0.2437  0.4536
   19CHL1    H9 1370   4.392   1.626   9.575 -0.7906 -0.5214  0.2744
   19CHL1   C10 1371   4.519   1.535   9.714  0.8277 -0.5583 -0.7541
   19CHL1   C19 1372   4.639   1.443   9.708 -0.4923 -0.5833 -0.3462
   19CHL1  H19A 1373   4.720   1.478   9.641  0.2334 -1.1738  0.2050
   19CHL1  H19B 1374   4.696   1.440   9.804  2.0796  1.2939 -1.7076
   19CHL1  H19C 1375   4.609   1.338   9.690 -1.2642 -0.9264  2.3582
   19CHL1    C1 1376   4.569   1.680   9.752  0.1774 -0.2601  0.5719
   19CHL1   H1A 1377   4.662   1.706   9.698  0.0817 -0.9866  0.0513
   19CHL1   H1B 1378   4.494   1.753   9.716  0.5266 -0.8322 -1.4196
   19CHL1    C2 1379   4.597   1.709   9.909 -0.2681  0.8118  0.1248
   19CHL1   H2A 1380   4.625   1.813   9.935  0.0901  0.2365  2.1693
   19CHL1   H2B 1381   4.681   1.638   9.926 -0.5965  0.4737  0.3476
   19CHL1   C20 1382   4.378   1.433   9.016  0.0947 -0.6233 -0.2771
   19CHL1   H20 1383   4.468   1.368   9.012  0.9846  0.3981  1.6357
   19CHL1   C21 1384   4.433   1.573   8.977  0.1835  0.2462  0.3507
   19CHL1  H21A 1385   4.462   1.574   8.870 -2.2105 -1.0193 -0.3783
   19CHL1  H21B 1386   4.513   1.616   9.040 -0.3098  0.7450  0.6462
   19CHL1  H21C 1387   4.348   1.645   8.974  0.8734  1.0492 -1.5070
   19CHL1   C22 1388   4.270   1.377   8.920  0.2076 -0.0103 -0.1282
   19CHL1  H22A 1389   4.248   1.269   8.933 -1.2365 -0.1716 -3.1067
   19CHL1  H22B 1390   4.186   1.449   8.928  1.7940  2.0834 -1.2243
   19CHL1   C23 1391   4.318   1.381   8.774 -0.6346  0.9309 -0.0339
   19CHL1  H23A 1392   4.319   1.485   8.737 -0.4977  1.2058  0.7331
   19CHL1  H23B 1393   4.416   1.329   8.766 -0.9322 -0.0463  2.0300
   19CHL1   C24 1394   4.217   1.323   8.684 -0.7215  0.4194 -0.5778
   19CHL1  H24A 1395   4.222   1.212   8.681  3.4184  0.3899  1.0802
   19CHL1  H24B 1396   4.120   1.361   8.724 -1.7368 -0.3448 -2.2113
   19CHL1   C25 1397   4.227   1.360   8.531 -0.1749 -0.2952  0.6442
   19CHL1   H25 1398   4.254   1.467   8.524  1.7136 -0.8358 -2.2190
   19CHL1   C26 1399   4.338   1.286   8.460  0.1005  0.2069  0.0879
   19CHL1  H26A 1400   4.343   1.305   8.350 -1.0824 -0.2206 -0.0440
   19CHL1  H26B 1401   4.436   1.291   8.514  0.3827 -2.2534 -0.0638
   19CHL1  H26C 1402   4.318   1.177   8.470  1.4859  0.0861  2.1876
   19CHL1   C27 1403   4.093   1.346   8.457  0.0137  0.0191  0.2076
   19CHL1  H27A 1404   4.062   1.240   8.451 -0.3320  0.0591  1.1617
   19CHL1  H27B 1405   4.019   1.418   8.497 -0.3077  0.2865 -0.8197
   19CHL1  H27C 1406   4.104   1.374   8.350 -1.5516  0.3178  0.1044
   20CHL1    C3 1407   5.623   6.410  10.447  0.6409 -0.2590  0.0501
   20CHL1    H3 1408   5.619   6.521  10.446  1.4369 -0.2201  0.4452
   20CHL1    O3 1409   5.670   6.353  10.573  0.1616 -0.1457 -0.4750
   20CHL1   H3' 1410   5.649   6.259  10.563 -2.5048  0.4620 -1.4775
   20CHL1    C4 1411   5.475   6.361  10.417 -0.4336 -0.5631  0.4191
   20CHL1   H4A 1412   5.479   6.251  10.431 -0.2957 -0.5934  0.1502
   20CHL1   H4B 1413   5.415   6.404  10.499  0.5521  2.1761 -0.1938
   20CHL1    C5 1414   5.433   6.402  10.278  0.1585  0.0831 -0.5664
   20CHL1    C6 1415   5.308   6.448  10.251  0.1815 -0.0814  0.2013
   20CHL1    H6 1416   5.242   6.471  10.336 -0.5498 -0.6602 -0.2068
   20CHL1    C7 1417   5.260   6.484  10.119  0.6471 -0.3427  0.1848
   20CHL1   H7A 1418   5.154   6.458  10.095  0.7783  0.5447 -1.5590
   20CHL1   H7B 1419   5.275   6.592  10.099  1.2988 -0.7259 -1.6200
   20CHL1    C8 1420   5.346   6.422  10.007  0.6070  0.5192 -0.1217
   20CHL1    H8 1421   5.313   6.316  10.001 -0.3990  0.7033  1.4471
   20CHL1   C14 1422   5.315   6.489   9.869  0.2226  0.4969 -0.1330
   20CHL1   H14 1423   5.341   6.597   9.875  2.6820  0.1192 -2.2137
   20CHL1   C15 1424   5.166   6.493   9.816 -0.1874  0.1466  0.3045
   20CHL1  H15A 1425   5.116   6.394   9.825  0.1089 -0.1954 -1.4672
   20CHL1  H15B 1426   5.105   6.564   9.875 -2.3810 -1.7917  0.4839
   20CHL1   C16 1427   5.179   6.510   9.671 -0.8434 -0.1099  0.2160
   20CHL1  H16A 1428   5.131   6.424   9.619 -0.2704  0.3245 -1.0619
   20CHL1  H16B 1429   5.131   6.607   9.647  0.4954  1.1338  2.2732
   20CHL1   C17 1430   5.332   6.502   9.633  0.1294 -0.4982  0.3828
   20CHL1   H17 1431   5.371   6.606   9.633  1.3411 -0.8406 -2.9420
   20CHL1   C13 1432   5.399   6.427   9.753 -0.4370  0.0320  0.0351
   20CHL1   C18 1433   5.377   6.273   9.742  0.4903 -0.3707  0.1468
   20CHL1  H18A 1434   5.411   6.222   9.835  3.3671  0.8299 -0.1448
   20CHL1  H18B 1435   5.267   6.263   9.736  0.4906 -0.9936  0.9978
   20CHL1  H18C 1436   5.419   6.220   9.655  0.1216 -2.1080  0.9926
   20CHL1   C12 1437   5.547   6.450   9.773 -0.3104  0.7067 -0.1595
   20CHL1  H12A 1438   5.616   6.399   9.702 -0.4611  1.2611 -0.7160
   20CHL1  H12B 1439   5.570   6.559   9.762 -1.1180  0.8932 -0.0489
   20CHL1   C11 1440   5.590   6.396   9.915 -0.1700 -0.0955  0.1560
   20CHL1  H11A 1441   5.593   6.285   9.909  1.3241 -0.2460  2.4687
   20CHL1  H11B 1442   5.698   6.411   9.932 -0.2552 -1.2554  1.9656
   20CHL1    C9 1443   5.493   6.434  10.032 -0.5737 -0.5475 -0.3829
   20CHL1    H9 1444   5.512   6.542  10.049 -3.1657 -0.1806  0.6734
   20CHL1   C10 1445   5.538   6.375  10.164 -0.5178  0.3103 -0.6444
   20CHL1   C19 1446   5.531   6.221  10.162 -0.2993 -0.2419 -0.0495
   20CHL1  H19A 1447   5.554   6.170  10.258 -0.9089 -1.4312 -0.5122
   20CHL1  H19B 1448   5.430   6.181  10.140  0.4434 -0.9848 -2.4533
   20CHL1  H19C 1449   5.608   6.186  10.090 -1.0587  0.7247 -1.3758
   20CHL1    C1 1450   5.686   6.422  10.203  0.0079  0.0912  0.5066
   20CHL1   H1A 1451   5.762   6.371  10.139 -0.0698 -0.1093  0.5721
   20CHL1   H1B 1452   5.692   6.533  10.200  2.4878 -0.0157 -1.1249
   20CHL1    C2 1453   5.723   6.370  10.345 -0.1802  0.0030 -0.1574
   20CHL1   H2A 1454   5.819   6.411  10.383  0.5121 -3.6193  2.5549
   20CHL1   H2B 1455   5.729   6.259  10.351 -2.9850 -0.2677 -0.8977
   20CHL1   C20 1456   5.358   6.455   9.486  0.4845 -0.6843 -0.0233
   20CHL1   H20 1457   5.307   6.357   9.479 -0.4187 -0.1638 -0.9574
   20CHL1   C21 1458   5.500   6.432   9.446 -0.0844  1.0123  0.7467
   20CHL1  H21A 1459   5.552   6.529   9.435  0.3845  0.5949 -1.0781
   20CHL1  H21B 1460   5.494   6.378   9.349 -1.6644 -0.0315  1.3844
   20CHL1  H21C 1461   5.563   6.371   9.515 -0.7550 -0.1730  0.3392
   20CHL1   C22 1462   5.282   6.550   9.378 -0.0121  0.1727  0.4574
   20CHL1  H22A 1463   5.300   6.495   9.284 -2.9926 -0.3125  0.0615
   20CHL1  H22B 1464   5.174   6.530   9.392  0.2737 -1.4922  0.5235
   20CHL1   C23 1465   5.302   6.702   9.370 -0.6323  0.1692  0.9385
   20CHL1  H23A 1466   5.268   6.752   9.463  0.0799 -1.2172  1.9707
   20CHL1  H23B 1467   5.411   6.722   9.367 -0.3468 -1.1008  1.9641
   20CHL1   C24 1468   5.218   6.772   9.261 -0.1995 -0.5971  0.0679
   20CHL1  H24A 1469   5.242   6.728   9.162 -1.1186 -0.7007 -0.1138
   20CHL1  H24B 1470   5.110   6.756   9.277 -0.1588 -0.5119  0.4401
   20CHL1   C25 1471   5.233   6.925   9.248  0.2190 -0.3345  0.1453
   20CHL1   H25 1472   5.341   6.939   9.224 -0.4389  2.3114 -1.6277
   20CHL1   C26 1473   5.153   6.994   9.132  0.0556  0.2177 -0.2522
   20CHL1  H26A 1474   5.141   7.104   9.140 -1.3312  0.2871 -2.4115
   20CHL1  H26B 1475   5.194   6.961   9.034  0.6582 -0.7840  0.3275
   20CHL1  H26C 1476   5.052   6.947   9.128  0.3211 -0.4549  0.6889
   20CHL1   C27 1477   5.197   7.004   9.379  0.2070 -0.5297 -0.6397
   20CHL1  H27A 1478   5.088   7.005   9.404  0.6651  0.7048  1.5806
   20CHL1  H27B 1479   5.251   6.970   9.470  0.6693  1.8693  0.0572
   20CHL1  H27C 1480   5.219   7.111   9.358 -0.3486 -0.6008 -1.6503
   21CHL1    C3 1481   4.910   4.918  10.314 -0.2867 -0.3757 -0.0346
   21CHL1    H3 1482   4.802   4.898  10.296 -0.8704  1.1406  1.5800
   21CHL1    O3 1483   4.934   4.936  10.455  0.5965 -0.3203  0.1082
   21CHL1   H3' 1484   4.916   5.029  10.473  0.9750 -0.5113  1.6462
   21CHL1    C4 1485   4.995   4.794  10.257  0.5287 -0.7231 -0.0208
   21CHL1   H4A 1486   5.101   4.811  10.286  0.1445 -0.5836  1.3201
   21CHL1   H4B 1487   4.959   4.703  10.310 -2.6019 -0.0483 -0.7986
   21CHL1    C5 1488   4.989   4.788  10.102  0.1244  1.1389 -0.0045
   21CHL1    C6 1489   4.940   4.685  10.035  0.0875  0.3317  0.6662
   21CHL1    H6 1490   4.894   4.604  10.095  1.8734 -0.1254  1.4872
   21CHL1    C7 1491   4.932   4.675   9.883 -0.0246 -0.1893 -0.9818
   21CHL1   H7A 1492   4.938   4.568   9.854 -3.1520 -0.6728 -0.1899
   21CHL1   H7B 1493   4.832   4.712   9.853  1.4189  4.6227 -0.7501
   21CHL1    C8 1494   5.037   4.769   9.817  0.7623 -0.0670  0.1966
   21CHL1    H8 1495   5.137   4.720   9.827 -0.6124 -3.8717 -2.3191
   21CHL1   C14 1496   4.999   4.790   9.667 -0.2233 -0.5826  0.0189
   21CHL1   H14 1497   4.904   4.847   9.666 -0.4270 -0.9236 -0.5562
   21CHL1   C15 1498   4.974   4.661   9.590 -0.3825  0.1433 -0.6095
   21CHL1  H15A 1499   5.054   4.585   9.607  0.3292  1.2810  1.5733
   21CHL1  H15B 1500   4.881   4.611   9.626  0.1260 -0.1260  0.3895
   21CHL1   C16 1501   4.965   4.700   9.449 -0.3040  0.5833  0.2026
   21CHL1  H16A 1502   5.029   4.627   9.395 -2.0361  0.5341 -1.9381
   21CHL1  H16B 1503   4.862   4.698   9.407 -0.2127  1.2704 -0.0735
   21CHL1   C17 1504   5.018   4.844   9.445 -0.2647 -0.3994 -0.8864
   21CHL1   H17 1505   4.926   4.906   9.454  0.0740 -0.1554  1.6655
   21CHL1   C13 1506   5.084   4.865   9.582  0.5873 -0.6167 -0.0688
   21CHL1   C18 1507   5.229   4.816   9.577  0.0861 -0.6572  0.1396
   21CHL1  H18A 1508   5.288   4.880   9.508  0.2480 -0.5120  0.4112
   21CHL1  H18B 1509   5.275   4.824   9.678  1.2863  2.3042 -0.5456
   21CHL1  H18C 1510   5.226   4.709   9.547 -1.5544 -0.2788 -1.2054
   21CHL1   C12 1511   5.083   5.010   9.643 -0.6125  0.2092  0.1499
   21CHL1  H12A 1512   5.156   5.069   9.584  0.6688 -0.6753  0.7942
   21CHL1  H12B 1513   4.980   5.052   9.637 -0.4129  0.8191  0.8707
   21CHL1   C11 1514   5.110   5.015   9.794  0.2761 -0.2035 -0.6129
   21CHL1  H11A 1515   5.217   4.988   9.801 -0.0971 -1.6080 -0.0724
   21CHL1  H11B 1516   5.118   5.119   9.833  3.5623 -1.2793  2.0966
   21CHL1    C9 1517   5.030   4.907   9.880  0.7116 -0.4131 -0.2873
   21CHL1    H9 1518   4.923   4.934   9.868  0.3400 -1.0576  1.3072
   21CHL1   C10 1519   5.046   4.908  10.036 -0.0923 -0.7528  0.2552
   21CHL1   C19 1520   5.198   4.914  10.073 -0.5796  0.3106  1.1360
   21CHL1  H19A 1521   5.267   4.841  10.026  0.9142  2.7807 -0.7956
   21CHL1  H19B 1522   5.245   4.999  10.019 -1.0711  0.2638  0.6225
   21CHL1  H19C 1523   5.224   4.935  10.179  0.0493 -0.2559  1.1024
   21CHL1    C1 1524   4.974   5.036  10.088 -0.5329 -0.5967  0.2734
   21CHL1   H1A 1525   5.042   5.117  10.055 -0.4015 -0.9590 -0.3481
   21CHL1   H1B 1526   4.880   5.058  10.033  0.4716 -1.3302 -1.8096
   21CHL1    C2 1527   4.954   5.048  10.241  0.2090  0.4073 -0.2477
   21CHL1   H2A 1528   4.879   5.126  10.266 -0.2212 -0.3123  0.7736
   21CHL1   H2B 1529   5.047   5.080  10.292 -0.4846  2.4431 -0.1709
   21CHL1   C20 1530   5.091   4.892   9.322 -0.1434  0.3276  0.6651
   21CHL1   H20 1531   5.191   4.845   9.317  0.0554  0.7593  0.4582
   21CHL1   C21 1532   5.089   5.044   9.308 -0.4737 -0.1090  0.2348
   21CHL1  H21A 1533   5.133   5.072   9.209 -4.0613  0.5748 -1.3006
   21CHL1  H21B 1534   5.161   5.095   9.376  1.2312 -0.2756 -1.3724
   21CHL1  H21C 1535   4.986   5.083   9.319  0.3091  1.7036  1.8337
   21CHL1   C22 1536   5.031   4.827   9.189 -0.2021 -0.4427 -0.1760
   21CHL1  H22A 1537   5.098   4.844   9.102  0.8211  0.2197  0.7199
   21CHL1  H22B 1538   5.014   4.718   9.208 -4.1132  0.0416 -0.1054
   21CHL1   C23 1539   4.898   4.875   9.151 -0.3718  0.6993 -0.5678
   21CHL1  H23A 1540   4.821   4.856   9.229 -2.0959  0.2744 -2.2838
   21CHL1  H23B 1541   4.897   4.985   9.142 -0.1482  1.1128  3.0869
   21CHL1   C24 1542   4.849   4.820   9.019 -0.3580 -0.2806  0.4369
   21CHL1  H24A 1543   4.926   4.848   8.943 -1.4597 -0.0308 -0.6115
   21CHL1  H24B 1544   4.851   4.710   9.034 -1.5076 -0.2543  0.8420
   21CHL1   C25 1545   4.719   4.868   8.965  0.3798 -0.6123  0.5439
   21CHL1   H25 1546   4.644   4.877   9.046  0.3129 -0.6546  0.4867
   21CHL1   C26 1547   4.734   5.004   8.893  0.1293 -0.0076  0.1959
   21CHL1  H26A 1548   4.636   5.041   8.856  0.4835 -0.4343 -1.2381
   21CHL1  H26B 1549   4.788   5.083   8.949  1.6413 -0.4494 -0.5956
   21CHL1  H26C 1550   4.796   4.980   8.803 -0.3245  1.3760 -0.5228
   21CHL1   C27 1551   4.670   4.762   8.863 -0.4933  0.6888  0.0639
   21CHL1  H27A 1552   4.640   4.669   8.916  1.3049 -0.1453 -0.3154
   21CHL1  H27B 1553   4.588   4.806   8.802  0.2442  1.7374 -0.1845
   21CHL1  H27C 1554   4.747   4.734   8.789 -0.3511  0.3331  0.3428
   22CHL1    C3 1555   6.108   5.063  10.374  1.3129 -0.8696  0.4890
   22CHL1    H3 1556   6.219   5.060  10.370  1.2997 -1.4297  0.3046
   22CHL1    O3 1557   6.061   5.069  10.506 -0.0641  0.1805 -0.1294
   22CHL1   H3' 1558   5.966   5.081  10.503 -0.0298  0.6516  0.5064
   22CHL1    C4 1559   6.056   5.181  10.290  0.1538  0.2259 -0.2817
   22CHL1   H4A 1560   5.946   5.190  10.303 -0.5196 -0.9157 -4.0000
   22CHL1   H4B 1561   6.104   5.264  10.346 -0.0905  0.2182 -0.0621
   22CHL1    C5 1562   6.076   5.178  10.140 -0.4485  0.1730  0.4471
   22CHL1    C6 1563   6.133   5.283  10.070  0.2196  0.6421  0.0672
   22CHL1    H6 1564   6.158   5.372  10.128  0.0202  0.1034  1.0015
   22CHL1    C7 1565   6.151   5.278   9.921  0.1861 -0.4072  0.2631
   22CHL1   H7A 1566   6.123   5.372   9.869 -2.0059  0.3123  2.5869
   22CHL1   H7B 1567   6.261   5.268   9.908  0.3558  0.9767  0.4580
   22CHL1    C8 1568   6.064   5.162   9.851  0.1753 -0.1424 -0.0618
   22CHL1    H8 1569   5.958   5.194   9.844  0.3144  0.1601 -1.0140
   22CHL1   C14 1570   6.128   5.146   9.710  0.6074 -1.1096  0.7289
   22CHL1   H14 1571   6.233   5.121   9.736  1.0979 -0.0681 -0.1918
   22CHL1   C15 1572   6.134   5.265   9.617  0.2854  0.2214  0.1878
   22CHL1  H15A 1573   6.043   5.329   9.616  0.3615  0.3357 -0.5772
   22CHL1  H15B 1574   6.215   5.340   9.631 -0.7038  1.7835 -1.8832
   22CHL1   C16 1575   6.157   5.200   9.470  0.3200  0.0186 -0.8852
   22CHL1  H16A 1576   6.070   5.209   9.403  0.5381 -0.7403 -1.2828
   22CHL1  H16B 1577   6.248   5.242   9.423  1.1886  0.3171  0.9523
   22CHL1   C17 1578   6.169   5.049   9.501 -0.1451  0.1101 -0.2248
   22CHL1   H17 1579   6.269   5.025   9.543 -0.2644 -0.3510 -0.1989
   22CHL1   C13 1580   6.076   5.028   9.625  0.5266  0.2835  0.2866
   22CHL1   C18 1581   5.923   5.061   9.593  0.3824  0.2764 -1.2436
   22CHL1  H18A 1582   5.881   5.001   9.510 -0.9793  1.1530 -1.2079
   22CHL1  H18B 1583   5.864   5.029   9.682  0.9895 -0.8832 -1.2392
   22CHL1  H18C 1584   5.896   5.165   9.565 -0.2594  0.0128 -1.6079
   22CHL1   C12 1585   6.091   4.894   9.703  0.3126 -0.3102 -0.2247
   22CHL1  H12A 1586   6.030   4.816   9.654  1.3724 -1.0442 -0.3944
   22CHL1  H12B 1587   6.198   4.872   9.724  0.7272  1.8235  0.1287
   22CHL1   C11 1588   6.038   4.909   9.847  0.2406 -0.3381 -0.6319
   22CHL1  H11A 1589   5.928   4.911   9.832 -0.2594 -3.5778  1.4887
   22CHL1  H11B 1590   6.063   4.826   9.916  1.9696 -0.8403 -1.8029
   22CHL1    C9 1591   6.091   5.035   9.927 -0.2059  0.7215 -0.5866
   22CHL1    H9 1592   6.202   5.031   9.925 -0.1086  0.3605  2.1428
   22CHL1   C10 1593   6.031   5.045  10.069 -0.0014 -0.3591  0.2226
   22CHL1   C19 1594   5.878   5.037  10.058 -0.8216  0.5519 -0.2591
   22CHL1  H19A 1595   5.851   4.937  10.017  0.4808  0.1499 -0.1757
   22CHL1  H19B 1596   5.821   5.041  10.153  1.4031 -1.8461  1.3091
   22CHL1  H19C 1597   5.823   5.113   9.999 -1.7675  0.3170  0.2900
   22CHL1    C1 1598   6.087   4.929  10.163  0.0983  0.2811 -0.4769
   22CHL1   H1A 1599   6.049   4.832  10.125 -1.1637  0.3960  0.4272
   22CHL1   H1B 1600   6.197   4.936  10.146  0.5199  1.2666  2.1300
   22CHL1    C2 1601   6.053   4.936  10.312  0.1296 -0.7493 -0.4248
   22CHL1   H2A 1602   6.086   4.846  10.368  0.4644 -0.9991 -1.0193
   22CHL1   H2B 1603   5.943   4.925  10.315  0.0717 -1.0100 -2.5919
   22CHL1   C20 1604   6.135   4.961   9.381 -0.3359  0.2747  0.4208
   22CHL1   H20 1605   6.032   4.981   9.347  0.4612 -0.0448 -2.4743
   22CHL1   C21 1606   6.139   4.807   9.412  0.1791 -0.3614  0.1839
   22CHL1  H21A 1607   6.195   4.751   9.334 -0.0571  0.1063 -0.3300
   22CHL1  H21B 1608   6.036   4.767   9.421  0.1670 -0.2180  0.7094
   22CHL1  H21C 1609   6.198   4.781   9.502 -0.1017 -0.7943  0.2475
   22CHL1   C22 1610   6.219   4.989   9.254 -0.1334 -0.3376  0.7468
   22CHL1  H22A 1611   6.230   5.096   9.226  0.3186 -0.5292  0.1729
   22CHL1  H22B 1612   6.324   4.955   9.267 -0.1578  0.2132  2.8801
   22CHL1   C23 1613   6.156   4.930   9.134 -1.0102 -0.5183  0.0704
   22CHL1  H23A 1614   6.167   4.819   9.131 -0.8892 -0.5085  0.1301
   22CHL1  H23B 1615   6.049   4.952   9.116 -0.5319  2.0402  0.0938
   22CHL1   C24 1616   6.246   4.953   9.009  0.3700 -0.7110  0.1083
   22CHL1  H24A 1617   6.352   4.930   9.033  0.1986 -0.6473  0.9668
   22CHL1  H24B 1618   6.199   4.887   8.933 -1.8605  0.7420  0.1298
   22CHL1   C25 1619   6.222   5.096   8.951  0.4491  0.7680  0.0946
   22CHL1   H25 1620   6.253   5.173   9.025 -0.0910  0.2703  0.8548
   22CHL1   C26 1621   6.303   5.126   8.824  0.0339 -0.0196  0.2315
   22CHL1  H26A 1622   6.412   5.112   8.842  0.0225  1.4351  1.6560
   22CHL1  H26B 1623   6.270   5.061   8.740 -0.3061  0.1142  0.2594
   22CHL1  H26C 1624   6.281   5.228   8.785 -0.9238 -1.0859 -2.2522
   22CHL1   C27 1625   6.072   5.134   8.926  1.3152  0.1629  0.3249
   22CHL1  H27A 1626   6.005   5.054   8.888 -2.5773  1.6136  3.4603
   22CHL1  H27B 1627   6.028   5.163   9.024  2.1259 -1.8259  1.3539
   22CHL1  H27C 1628   6.067   5.227   8.866 -0.1543 -2.1655 -3.4890
   23CHL1    C3 1629   1.278   5.278  10.269  0.1669  0.4371 -0.2228
   23CHL1    H3 1630   1.367   5.301  10.205 -0.5522  0.3719 -1.2782
   23CHL1    O3 1631   1.316   5.295  10.403 -0.2683 -0.4269  0.2092
   23CHL1   H3' 1632   1.385   5.230  10.417  0.9215  0.6913 -0.2427
   23CHL1    C4 1633   1.160   5.382  10.226 -0.4258  0.1113  0.6639
   23CHL1   H4A 1634   1.068   5.360  10.285 -1.8217  0.0862 -1.4367
   23CHL1   H4B 1635   1.190   5.482  10.266 -0.4518 -0.4602  2.1726
   23CHL1    C5 1636   1.144   5.377  10.071  0.0450  0.1299 -0.1016
   23CHL1    C6 1637   1.159   5.482   9.991 -0.1740 -0.3856 -0.6204
   23CHL1    H6 1638   1.182   5.577  10.040  1.5356  0.3212 -2.6683
   23CHL1    C7 1639   1.134   5.482   9.849 -0.3978 -0.1432  0.8292
   23CHL1   H7A 1640   1.067   5.560   9.807  0.1150 -0.2881 -0.2804
   23CHL1   H7B 1641   1.233   5.478   9.799 -1.3167  0.7657 -1.1309
   23CHL1    C8 1642   1.066   5.354   9.805  0.6488 -0.3744  0.0782
   23CHL1    H8 1643   0.958   5.365   9.829 -0.8915 -4.7009 -3.4494
   23CHL1   C14 1644   1.083   5.334   9.651  0.4190 -0.2602 -0.1871
   23CHL1   H14 1645   1.193   5.324   9.644  0.3720 -0.7910 -0.1982
   23CHL1   C15 1646   1.062   5.459   9.561  0.3234  0.2307  0.1903
   23CHL1  H15A 1647   0.963   5.501   9.588 -0.8770 -1.9387 -0.6587
   23CHL1  H15B 1648   1.143   5.536   9.559 -0.5791  1.2308  1.0229
   23CHL1   C16 1649   1.042   5.395   9.422  0.0042 -0.2607 -0.0873
   23CHL1  H16A 1650   0.937   5.414   9.393  0.5890 -3.1054 -5.2384
   23CHL1  H16B 1651   1.121   5.433   9.353  0.3715  3.3047  2.0231
   23CHL1   C17 1652   1.052   5.240   9.441 -0.2349  0.5672  0.0428
   23CHL1   H17 1653   1.161   5.220   9.435 -0.0806  0.4741  2.2674
   23CHL1   C13 1654   1.021   5.211   9.592  0.3693 -0.3299  0.2187
   23CHL1   C18 1655   0.861   5.217   9.606  0.1122  0.5700 -0.2218
   23CHL1  H18A 1656   0.822   5.298   9.541  0.0836 -0.2746 -1.2704
   23CHL1  H18B 1657   0.809   5.124   9.574  1.3581  0.2055 -1.2317
   23CHL1  H18C 1658   0.830   5.236   9.712 -0.4879  1.1595 -0.4918
   23CHL1   C12 1659   1.068   5.082   9.660 -0.6524  0.3325 -0.8441
   23CHL1  H12A 1660   1.016   4.986   9.639  0.0636 -0.7732  2.0600
   23CHL1  H12B 1661   1.175   5.068   9.634 -1.0197 -0.8385 -1.8506
   23CHL1   C11 1662   1.058   5.093   9.809  0.6160 -0.2792 -0.2515
   23CHL1  H11A 1663   0.950   5.076   9.834  0.4260 -1.1373 -1.5616
   23CHL1  H11B 1664   1.115   5.005   9.847  2.0431  0.2794 -1.0630
   23CHL1    C9 1665   1.117   5.226   9.870  0.1023 -0.2703  0.2341
   23CHL1    H9 1666   1.226   5.232   9.852  0.3294 -0.4824  1.4072
   23CHL1   C10 1667   1.117   5.232  10.022 -0.7298  0.0687  0.0474
   23CHL1   C19 1668   0.968   5.201  10.068  0.3000 -0.1665 -1.0119
   23CHL1  H19A 1669   0.905   5.266  10.004  1.1580  2.7559  0.9069
   23CHL1  H19B 1670   0.929   5.099  10.047 -0.6515  0.0914 -0.5568
   23CHL1  H19C 1671   0.956   5.217  10.177  1.9868 -1.7737 -0.5292
   23CHL1    C1 1672   1.214   5.126  10.088  0.5636  0.3808  0.4184
   23CHL1   H1A 1673   1.173   5.025  10.067  0.9224  0.3960 -0.3833
   23CHL1   H1B 1674   1.309   5.135  10.031  0.1865 -1.0042 -0.4867
   23CHL1    C2 1675   1.239   5.131  10.238 -0.2460  0.4402 -0.0911
   23CHL1   H2A 1676   1.311   5.054  10.272  1.4761  2.0055 -0.0399
   23CHL1   H2B 1677   1.147   5.105  10.294  1.0871 -2.6053  0.9092
   23CHL1   C20 1678   0.974   5.161   9.336 -0.7214 -0.4916 -0.1520
   23CHL1   H20 1679   0.868   5.143   9.363 -0.5585 -3.6718 -1.2951
   23CHL1   C21 1680   1.046   5.029   9.335  0.2844  0.1031  0.3092
   23CHL1  H21A 1681   0.984   4.955   9.280 -1.6951  1.4471  0.6249
   23CHL1  H21B 1682   1.063   4.983   9.434  0.1887  2.5179  1.4990
   23CHL1  H21C 1683   1.145   5.025   9.284 -0.1512 -2.8527 -0.5155
   23CHL1   C22 1684   0.986   5.231   9.195  0.0534 -0.4214 -0.9998
   23CHL1  H22A 1685   0.928   5.326   9.197  0.5159 -0.1502 -0.2740
   23CHL1  H22B 1686   1.089   5.268   9.176  0.4187 -0.5780  0.5586
   23CHL1   C23 1687   0.929   5.156   9.078 -0.2863 -0.4757  0.0082
   23CHL1  H23A 1688   0.968   5.053   9.065 -0.3778 -0.5524  0.3244
   23CHL1  H23B 1689   0.821   5.143   9.098  0.0956 -2.9352  0.7072
   23CHL1   C24 1690   0.950   5.227   8.937 -0.2672  0.0582 -0.7328
   23CHL1  H24A 1691   0.883   5.316   8.939  0.3215  0.6117  3.0322
   23CHL1  H24B 1692   1.059   5.245   8.924 -0.1223  0.2046  0.5151
   23CHL1   C25 1693   0.906   5.135   8.817  0.6868 -0.1899 -0.3528
   23CHL1   H25 1694   0.974   5.047   8.810  2.6494  1.3524 -2.1450
   23CHL1   C26 1695   0.769   5.082   8.817 -0.9150  0.4034 -0.1953
   23CHL1  H26A 1696   0.703   5.171   8.802  0.1013  0.7828 -2.8609
   23CHL1  H26B 1697   0.762   5.026   8.722  0.2207  0.6171 -0.4137
   23CHL1  H26C 1698   0.746   5.010   8.899 -2.3780 -0.8889 -1.6737
   23CHL1   C27 1699   0.925   5.218   8.688 -0.2451  0.1479  1.0870
   23CHL1  H27A 1700   0.846   5.296   8.688 -1.4089 -0.9871  0.9842
   23CHL1  H27B 1701   1.021   5.270   8.668 -1.7149  2.5720 -0.0973
   23CHL1  H27C 1702   0.901   5.152   8.602 -1.5826 -0.3990  1.8509
   24CHL1    C3 1703   0.416   1.916  10.321  0.2991 -0.2613 -0.2013
   24CHL1    H3 1704   0.410   2.027  10.313  2.3114 -0.0407  0.7226
   24CHL1    O3 1705   0.435   1.875  10.452 -0.7532 -0.3948  0.2035
   24CHL1   H3' 1706   0.492   1.798  10.453 -0.1830  0.0335  1.5123
   24CHL1    C4 1707   0.290   1.858  10.265  0.0941  0.3395 -0.0644
   24CHL1   H4A 1708   0.284   1.748  10.278 -1.1424  0.4526  0.4344
   24CHL1   H4B 1709   0.214   1.896  10.337  0.5395  2.4890 -0.6506
   24CHL1    C5 1710   0.274   1.908  10.118 -0.5850 -0.2574  0.5643
   24CHL1    C6 1711   0.163   1.969  10.078  0.4631  0.3060  0.1458
   24CHL1    H6 1712   0.074   1.981  10.142 -1.1594  3.3145 -2.4051
   24CHL1    C7 1713   0.132   2.008   9.933 -0.4421 -0.5385 -0.3310
   24CHL1   H7A 1714   0.033   1.965   9.905  0.2583 -1.6399 -1.2191
   24CHL1   H7B 1715   0.140   2.119   9.934 -1.1001 -0.4782  0.9091
   24CHL1    C8 1716   0.236   1.950   9.833 -0.5827 -0.0547 -0.8328
   24CHL1    H8 1717   0.207   1.843   9.821  3.4098 -1.4568  0.2704
   24CHL1   C14 1718   0.228   2.020   9.704 -0.2939  0.2166  0.2517
   24CHL1   H14 1719   0.275   2.119   9.715 -0.3154  0.3173 -0.4804
   24CHL1   C15 1720   0.095   2.050   9.642  0.2588 -0.1411 -0.2361
   24CHL1  H15A 1721   0.031   1.959   9.644  0.8470 -0.7116 -3.1743
   24CHL1  H15B 1722   0.040   2.131   9.695  2.5933  0.8933  0.7467
   24CHL1   C16 1723   0.121   2.062   9.487  0.0125 -0.4524 -0.9484
   24CHL1  H16A 1724   0.063   1.986   9.431 -1.4763 -0.4825  0.5436
   24CHL1  H16B 1725   0.094   2.166   9.459 -1.1177 -0.4271  0.1335
   24CHL1   C17 1726   0.272   2.029   9.470 -0.1260  0.0913 -0.0756
   24CHL1   H17 1727   0.315   2.131   9.481 -1.9667  0.7172  2.1590
   24CHL1   C13 1728   0.321   1.958   9.599  0.2596  0.0074  0.7622
   24CHL1   C18 1729   0.293   1.801   9.579  0.4687 -0.0286  0.1953
   24CHL1  H18A 1730   0.185   1.792   9.555  0.8581  1.3998 -2.4172
   24CHL1  H18B 1731   0.339   1.752   9.491 -0.1661 -2.9474  1.3528
   24CHL1  H18C 1732   0.304   1.736   9.669 -0.6243 -0.5687 -0.0397
   24CHL1   C12 1733   0.468   1.971   9.636 -0.2377 -0.1958 -0.2158
   24CHL1  H12A 1734   0.530   1.912   9.565  0.3814  2.2837 -1.8643
   24CHL1  H12B 1735   0.503   2.076   9.635 -1.3756  0.1909 -0.4178
   24CHL1   C11 1736   0.487   1.910   9.782  0.6440 -0.5146 -0.1470
   24CHL1  H11A 1737   0.487   1.800   9.762  0.8643 -0.6076  0.3523
   24CHL1  H11B 1738   0.585   1.936   9.828  1.0264 -2.1871  0.0576
   24CHL1    C9 1739   0.381   1.948   9.887  0.3149 -0.3251  0.6758
   24CHL1    H9 1740   0.404   2.057   9.897  3.2524 -0.8063 -0.0749
   24CHL1   C10 1741   0.393   1.882  10.025  0.1026  0.2491  0.5453
   24CHL1   C19 1742   0.403   1.730  10.009  0.7879 -0.2903  0.3156
   24CHL1  H19A 1743   0.484   1.691   9.944 -1.4588 -3.0436 -1.0719
   24CHL1  H19B 1744   0.419   1.685  10.109  0.8104 -0.6413  0.1547
   24CHL1  H19C 1745   0.304   1.700   9.968  0.2343  1.4262  0.3147
   24CHL1    C1 1746   0.517   1.930  10.097  0.3762 -0.1423 -0.6600
   24CHL1   H1A 1747   0.606   1.887  10.047  1.7020 -0.4587  1.7985
   24CHL1   H1B 1748   0.519   2.041  10.100  1.6466 -0.0975 -2.1256
   24CHL1    C2 1749   0.538   1.886  10.246  0.0059  0.6040  0.4296
   24CHL1   H2A 1750   0.624   1.930  10.302 -0.4121  1.7464  0.1973
   24CHL1   H2B 1751   0.560   1.777  10.241  2.4277  0.9966  0.9545
   24CHL1   C20 1752   0.323   1.976   9.332  0.8501 -0.3518 -0.5240
   24CHL1   H20 1753   0.290   1.870   9.319  0.3786 -0.2678 -0.0368
   24CHL1   C21 1754   0.477   1.974   9.316 -0.4001  0.7972  0.5833
   24CHL1  H21A 1755   0.524   1.884   9.362  2.3382  1.1494 -1.3100
   24CHL1  H21B 1756   0.526   2.070   9.343  2.6780 -0.8371  1.2937
   24CHL1  H21C 1757   0.479   1.957   9.207 -0.2261 -0.4535  0.7626
   24CHL1   C22 1758   0.262   2.051   9.208 -0.5285 -0.1989  0.6394
   24CHL1  H22A 1759   0.246   2.157   9.236  2.7540 -0.0777  2.5379
   24CHL1  H22B 1760   0.322   2.034   9.116 -0.1017  0.2016  0.8423
   24CHL1   C23 1761   0.119   1.998   9.168 -0.4050 -0.0445  0.2742
   24CHL1  H23A 1762   0.110   1.893   9.204  0.8439 -0.7665 -1.4066
   24CHL1  H23B 1763   0.049   2.066   9.223  0.9111  2.5845 -1.1213
   24CHL1   C24 1764   0.078   2.015   9.020 -0.5182 -0.5312 -0.1137
   24CHL1  H24A 1765   0.060   2.123   9.000 -0.7365 -0.1689  1.7836
   24CHL1  H24B 1766   0.158   1.994   8.946 -1.9713 -2.6417 -1.1681
   24CHL1   C25 1767  -0.048   1.940   8.980  0.1591 -0.9020 -0.3848
   24CHL1   H25 1768  -0.126   1.964   9.055  0.8497 -0.7901  0.3125
   24CHL1   C26 1769  -0.095   1.989   8.845  0.3667 -0.0399  0.0600
   24CHL1  H26A 1770  -0.033   1.937   8.769 -0.8473  2.4585 -2.7926
   24CHL1  H26B 1771  -0.201   1.971   8.820  0.5654  0.4215 -1.1572
   24CHL1  H26C 1772  -0.084   2.097   8.823 -0.8863  0.0221 -0.3008
   24CHL1   C27 1773  -0.024   1.788   8.967  0.4802 -0.2156  0.3596
   24CHL1  H27A 1774  -0.101   1.742   8.902  1.3773  0.0606 -0.9219
   24CHL1  H27B 1775   0.072   1.776   8.914  0.8540  0.4630  0.8728
   24CHL1  H27C 1776  -0.021   1.742   9.068 -3.6850  0.0033  0.7516
   25CHL1    C3 1777   4.776   3.093  10.302 -0.6253  0.3829 -0.1105
   25CHL1    H3 1778   4.809   3.199  10.294 -0.6637  0.7716  3.2579
   25CHL1    O3 1779   4.761   3.068  10.440 -0.0523  0.1342 -0.1710
   25CHL1   H3' 1780   4.739   2.975  10.449 -4.1926  0.9352  0.1604
   25CHL1    C4 1781   4.645   3.064  10.229  0.1592 -0.7694 -0.1556
   25CHL1   H4A 1782   4.589   2.975  10.266  0.1697 -0.9960 -0.6853
   25CHL1   H4B 1783   4.577   3.147  10.257 -2.7534 -2.8358 -0.6383
   25CHL1    C5 1784   4.664   3.053  10.077  0.1122  0.9254  0.0096
   25CHL1    C6 1785   4.576   3.114   9.995 -0.2007  0.7037 -0.0913
   25CHL1    H6 1786   4.491   3.170  10.037 -0.5488  0.9007 -1.0154
   25CHL1    C7 1787   4.576   3.089   9.844  0.2192 -0.4318 -0.5254
   25CHL1   H7A 1788   4.472   3.062   9.817 -1.2779  2.8143  1.3762
   25CHL1   H7B 1789   4.585   3.187   9.794 -1.2865  1.0457  1.8966
   25CHL1    C8 1790   4.679   2.988   9.797  0.2846  0.2116  0.4538
   25CHL1    H8 1791   4.635   2.888   9.813 -0.1982  0.4314  0.5281
   25CHL1   C14 1792   4.700   3.005   9.642 -0.8434 -0.0478 -0.4929
   25CHL1   H14 1793   4.739   3.105   9.613  0.4200 -1.2623 -3.3865
   25CHL1   C15 1794   4.582   2.989   9.542 -0.0845  0.3337 -0.1284
   25CHL1  H15A 1795   4.515   2.913   9.588 -0.2717 -0.9367 -2.3618
   25CHL1  H15B 1796   4.525   3.084   9.546 -1.6921 -0.6264  0.8468
   25CHL1   C16 1797   4.649   2.965   9.411  0.3228  0.2970 -0.3505
   25CHL1  H16A 1798   4.615   2.869   9.366  0.8857  0.0601 -0.2853
   25CHL1  H16B 1799   4.636   3.055   9.347 -0.5558  1.0283  0.8145
   25CHL1   C17 1800   4.797   2.947   9.448 -0.4381 -0.3546  0.1349
   25CHL1   H17 1801   4.845   3.047   9.438  0.3842 -0.3566  3.1238
   25CHL1   C13 1802   4.812   2.911   9.593  0.1153 -0.5132 -0.3880
   25CHL1   C18 1803   4.766   2.766   9.610  0.8801 -0.3357  0.0268
   25CHL1  H18A 1804   4.675   2.739   9.550 -0.9233  2.4080  1.3456
   25CHL1  H18B 1805   4.853   2.702   9.584  1.6956  1.2252 -1.1962
   25CHL1  H18C 1806   4.754   2.742   9.718  1.7445 -0.3550  0.1209
   25CHL1   C12 1807   4.946   2.947   9.662 -0.9033  0.6034  0.0937
   25CHL1  H12A 1808   5.027   2.875   9.635 -0.2657  0.7645  1.4885
   25CHL1  H12B 1809   4.971   3.052   9.636  2.0919  0.0317  0.2423
   25CHL1   C11 1810   4.930   2.928   9.816  0.4950 -0.3022  0.0091
   25CHL1  H11A 1811   4.923   2.819   9.835  0.0434 -0.2780 -0.0083
   25CHL1  H11B 1812   5.027   2.957   9.863 -0.6975  2.9299  0.7665
   25CHL1    C9 1813   4.809   3.001   9.878  0.6650  0.0156 -0.2569
   25CHL1    H9 1814   4.824   3.111   9.868 -5.2005  1.0192 -2.0272
   25CHL1   C10 1815   4.777   2.977  10.026 -0.2930 -0.5687  0.6195
   25CHL1   C19 1816   4.756   2.823  10.054 -0.3883 -0.0889  0.2418
   25CHL1  H19A 1817   4.738   2.804  10.162 -0.0135 -1.3125  0.1072
   25CHL1  H19B 1818   4.669   2.781   9.999  0.0875 -0.9282  0.1058
   25CHL1  H19C 1819   4.847   2.762  10.033 -1.6203 -1.5655 -1.0825
   25CHL1    C1 1820   4.912   3.014  10.102 -0.4588  0.4119  0.1348
   25CHL1   H1A 1821   4.981   2.933  10.070  0.7770  1.2394  0.6404
   25CHL1   H1B 1822   4.931   3.116  10.063 -0.1239  0.7860  1.2131
   25CHL1    C2 1823   4.899   3.004  10.254  0.3752 -0.1771  0.3925
   25CHL1   H2A 1824   4.993   3.044  10.297 -0.5481  1.8473  0.6408
   25CHL1   H2B 1825   4.876   2.903  10.295 -1.1671 -0.5911 -1.3418
   25CHL1   C20 1826   4.866   2.855   9.343  0.3663  0.2787  0.5368
   25CHL1   H20 1827   4.829   2.750   9.352  1.8247 -0.3120 -0.0366
   25CHL1   C21 1828   5.020   2.834   9.357  0.1156 -0.1206 -0.4066
   25CHL1  H21A 1829   5.065   2.936   9.354 -0.6539  0.2134 -1.5924
   25CHL1  H21B 1830   5.066   2.775   9.276 -0.4689  0.2888 -1.0533
   25CHL1  H21C 1831   5.049   2.792   9.456 -0.6576  1.2092  0.4195
   25CHL1   C22 1832   4.837   2.895   9.198 -0.3539  0.1091 -0.2555
   25CHL1  H22A 1833   4.877   2.811   9.137  0.7292 -2.2036  3.2960
   25CHL1  H22B 1834   4.727   2.892   9.187 -0.4088 -1.4046  0.4180
   25CHL1   C23 1835   4.884   3.039   9.157 -0.2072 -0.0530 -0.2942
   25CHL1  H23A 1836   4.821   3.112   9.214  0.8965  0.8381 -0.1660
   25CHL1  H23B 1837   4.990   3.059   9.184 -0.2519  0.0144 -0.1664
   25CHL1   C24 1838   4.865   3.063   9.009 -0.0393  0.3803 -0.3266
   25CHL1  H24A 1839   4.934   3.002   8.947  0.8713  0.8513  0.2089
   25CHL1  H24B 1840   4.761   3.035   8.981  1.2977 -1.3464 -4.2289
   25CHL1   C25 1841   4.880   3.207   8.958 -0.1922  0.0665 -0.6783
   25CHL1   H25 1842   4.985   3.231   8.989 -0.6640  1.0968  0.2085
   25CHL1   C26 1843   4.871   3.201   8.807  0.3089 -0.0339 -0.3093
   25CHL1  H26A 1844   4.922   3.291   8.766 -1.0465  1.2360  0.7092
   25CHL1  H26B 1845   4.923   3.111   8.768 -0.7095 -1.1259  0.7724
   25CHL1  H26C 1846   4.767   3.207   8.770  0.6748  1.9364 -1.1522
   25CHL1   C27 1847   4.797   3.307   9.033 -0.5398 -0.3370  0.7567
   25CHL1  H27A 1848   4.824   3.309   9.141  1.7194  0.8270  0.2339
   25CHL1  H27B 1849   4.823   3.406   8.990 -2.4242 -0.1979 -0.1644
   25CHL1  H27C 1850   4.686   3.303   9.027 -0.5433  0.2456  0.3563
   26CHL1    C3 1851   0.178   5.077  10.123 -0.1297 -0.9290 -0.2461
   26CHL1    H3 1852   0.076   5.116  10.106 -0.0288  0.3544  1.7339
   26CHL1    O3 1853   0.191   5.057  10.263 -0.5375 -0.2264 -0.3416
   26CHL1   H3' 1854   0.158   5.139  10.300  1.5284  0.8543 -0.7450
   26CHL1    C4 1855   0.216   4.956  10.046 -0.1397 -0.4913  0.4741
   26CHL1   H4A 1856   0.319   4.928  10.078  0.4082 -0.9434 -1.5229
   26CHL1   H4B 1857   0.153   4.866  10.067 -0.1321 -0.7482 -0.5335
   26CHL1    C5 1858   0.224   4.969   9.894  0.1695  0.2848  0.0472
   26CHL1    C6 1859   0.162   4.887   9.809 -0.6361  0.2412 -0.0850
   26CHL1    H6 1860   0.119   4.797   9.855  0.1417 -0.8657 -1.4412
   26CHL1    C7 1861   0.169   4.878   9.665  0.6910  0.2176  0.6475
   26CHL1   H7A 1862   0.179   4.774   9.627 -1.2211  0.7020 -1.3732
   26CHL1   H7B 1863   0.068   4.903   9.628  0.4523 -1.5520  0.0242
   26CHL1    C8 1864   0.276   4.979   9.617  0.0080 -0.0492 -0.4103
   26CHL1    H8 1865   0.371   4.923   9.630 -0.5064 -0.9756 -0.5894
   26CHL1   C14 1866   0.269   5.007   9.465  0.4801  0.2177 -0.7538
   26CHL1   H14 1867   0.173   5.062   9.451 -0.1524 -0.7888 -0.4422
   26CHL1   C15 1868   0.270   4.885   9.374  0.1231  0.7333  0.5421
   26CHL1  H15A 1869   0.358   4.830   9.414  0.1059 -0.0550 -0.4506
   26CHL1  H15B 1870   0.178   4.824   9.388  0.2176  0.0572 -1.5007
   26CHL1   C16 1871   0.279   4.943   9.234 -0.8304  0.4427  0.0164
   26CHL1  H16A 1872   0.362   4.888   9.184 -1.9256 -0.4292 -0.8843
   26CHL1  H16B 1873   0.187   4.949   9.173  0.2108 -0.2542 -1.6791
   26CHL1   C17 1874   0.326   5.092   9.249  0.5416 -0.0039 -0.1635
   26CHL1   H17 1875   0.236   5.157   9.248  1.1341  0.8407  0.3005
   26CHL1   C13 1876   0.371   5.102   9.402  0.6559  0.7697 -0.1218
   26CHL1   C18 1877   0.517   5.055   9.420 -0.2526  0.0404 -0.9278
   26CHL1  H18A 1878   0.529   5.014   9.523  1.0754  1.0406 -0.6540
   26CHL1  H18B 1879   0.544   4.962   9.366 -0.5493 -0.8633  0.4290
   26CHL1  H18C 1880   0.588   5.140   9.409  0.0738 -0.4240 -2.6432
   26CHL1   C12 1881   0.351   5.234   9.480  0.5845 -0.2238  0.2243
   26CHL1  H12A 1882   0.411   5.315   9.433 -0.8453  1.5701  1.3727
   26CHL1  H12B 1883   0.246   5.266   9.468  1.0442  2.0140  1.5243
   26CHL1   C11 1884   0.375   5.210   9.629 -0.2223 -0.1244  0.1989
   26CHL1  H11A 1885   0.474   5.163   9.648 -1.2143 -1.8619  1.4000
   26CHL1  H11B 1886   0.366   5.309   9.678  1.8419  1.3067 -2.0981
   26CHL1    C9 1887   0.271   5.111   9.695 -0.5182 -0.6165 -0.0260
   26CHL1    H9 1888   0.168   5.149   9.685 -0.6153 -1.5336 -3.7771
   26CHL1   C10 1889   0.300   5.094   9.852  1.0094  0.0642 -0.5657
   26CHL1   C19 1890   0.455   5.067   9.868  0.3392 -0.3707  1.1493
   26CHL1  H19A 1891   0.492   4.987   9.801 -0.1714 -0.6403  1.1908
   26CHL1  H19B 1892   0.514   5.160   9.852  0.4381 -0.2724  2.0194
   26CHL1  H19C 1893   0.476   5.038   9.973 -2.9003  2.3058  2.7381
   26CHL1    C1 1894   0.259   5.227   9.931  0.6756 -0.1119  0.2215
   26CHL1   H1A 1895   0.315   5.320   9.909  0.7925 -0.6380 -1.9542
   26CHL1   H1B 1896   0.153   5.248   9.907  0.2208 -1.2288  1.1856
   26CHL1    C2 1897   0.265   5.198  10.085 -0.6077 -0.2296 -0.1015
   26CHL1   H2A 1898   0.238   5.287  10.146  0.9695 -0.2758  0.7040
   26CHL1   H2B 1899   0.370   5.177  10.114 -0.6138 -2.0740 -1.2510
   26CHL1   C20 1900   0.428   5.129   9.143  1.0056  0.0819  0.0312
   26CHL1   H20 1901   0.513   5.061   9.165  2.1151  0.1514 -3.3599
   26CHL1   C21 1902   0.491   5.270   9.151  1.3224  0.8037  0.2790
   26CHL1  H21A 1903   0.575   5.279   9.079  1.9814  0.3680  0.9905
   26CHL1  H21B 1904   0.535   5.289   9.251 -1.4849  0.2716  1.7092
   26CHL1  H21C 1905   0.414   5.347   9.125  0.5567 -0.4529 -1.4123
   26CHL1   C22 1906   0.388   5.095   8.993  0.6303 -0.3448  0.4880
   26CHL1  H22A 1907   0.471   5.133   8.929  0.5836 -0.5414  0.3089
   26CHL1  H22B 1908   0.388   4.984   8.995  2.0410 -0.4534  4.7260
   26CHL1   C23 1909   0.254   5.156   8.942 -0.6060  0.5565 -0.8705
   26CHL1  H23A 1910   0.171   5.123   9.008 -2.3630  1.2512 -2.6278
   26CHL1  H23B 1911   0.249   5.267   8.940  0.1878  0.6416  0.3022
   26CHL1   C24 1912   0.215   5.090   8.811  0.6480 -0.7438  0.1573
   26CHL1  H24A 1913   0.274   5.132   8.726 -0.6369  0.9801  0.0807
   26CHL1  H24B 1914   0.233   4.980   8.802  0.1239 -0.9203  1.1726
   26CHL1   C25 1915   0.060   5.099   8.785 -0.5091 -0.5145  0.5518
   26CHL1   H25 1916   0.014   5.089   8.886  0.0972  0.9029  0.9920
   26CHL1   C26 1917   0.011   5.238   8.727 -0.7962  0.2434  0.4152
   26CHL1  H26A 1918   0.054   5.329   8.773  0.4854 -1.4081  2.6900
   26CHL1  H26B 1919   0.043   5.246   8.621 -2.3158  1.8319  0.0338
   26CHL1  H26C 1920  -0.100   5.244   8.720 -0.7410  0.7277 -0.1798
   26CHL1   C27 1921   0.009   4.979   8.701 -0.0299 -0.2204  0.0548
   26CHL1  H27A 1922   0.044   4.886   8.750  3.1172  1.2559  0.8648
   26CHL1  H27B 1923  -0.101   4.984   8.686 -0.1033  1.6748  0.8277
   26CHL1  H27C 1924   0.054   4.980   8.600  0.3814 -0.9178  0.2230
   27CHL1    C3 1925   6.362   2.214  10.445  0.0162 -0.9612  0.3296
   27CHL1    H3 1926   6.292   2.298  10.425  0.2085 -0.2348  2.5261
   27CHL1    O3 1927   6.383   2.215  10.586 -0.0039  0.6010  0.4539
   27CHL1   H3' 1928   6.403   2.127  10.617  0.4600  0.3383 -0.5736
   27CHL1    C4 1929   6.302   2.082  10.404  0.5593  0.0338  1.1563
   27CHL1   H4A 1930   6.370   1.997  10.429 -0.7349 -1.0507  1.1239
   27CHL1   H4B 1931   6.208   2.057  10.458  0.4451 -1.4587  0.3309
   27CHL1    C5 1932   6.286   2.069  10.251 -0.3112 -0.6871  0.2032
   27CHL1    C6 1933   6.164   2.052  10.194 -0.3530 -0.5036 -0.2153
   27CHL1    H6 1934   6.074   2.055  10.258  0.4780 -1.7336  1.0711
   27CHL1    C7 1935   6.147   2.053  10.041  0.3887  0.0867 -0.1360
   27CHL1   H7A 1936   6.075   1.972  10.014 -0.3453  0.8084 -0.3783
   27CHL1   H7B 1937   6.092   2.142  10.005  1.0923  0.5205 -0.1459
   27CHL1    C8 1938   6.273   2.028   9.967  0.3497  0.1469  0.8238
   27CHL1    H8 1939   6.296   1.919   9.975 -3.2392 -0.6252  2.3758
   27CHL1   C14 1940   6.249   2.047   9.815  0.2412  0.2476  0.2281
   27CHL1   H14 1941   6.225   2.155   9.810  0.8736  0.3870  0.0229
   27CHL1   C15 1942   6.130   1.974   9.744  0.5360 -0.2981  0.0835
   27CHL1  H15A 1943   6.106   1.869   9.770  0.0955  0.1067  1.3609
   27CHL1  H15B 1944   6.033   2.023   9.767 -2.2106 -3.4305 -3.5724
   27CHL1   C16 1945   6.169   1.991   9.600 -0.4018  1.0055  0.0936
   27CHL1  H16A 1946   6.156   1.896   9.543  0.6479  0.8332  0.1194
   27CHL1  H16B 1947   6.098   2.063   9.553  0.1446  0.6823 -1.2883
   27CHL1   C17 1948   6.307   2.044   9.587  0.2556  0.4243 -0.1141
   27CHL1   H17 1949   6.299   2.155   9.582  2.3788  0.5649 -1.1100
   27CHL1   C13 1950   6.368   2.016   9.724 -0.5224 -0.8857  0.0981
   27CHL1   C18 1951   6.416   1.869   9.720  0.2827  0.5902  0.0869
   27CHL1  H18A 1952   6.510   1.858   9.662 -0.0797 -1.8698 -0.1300
   27CHL1  H18B 1953   6.436   1.826   9.820  1.2143  0.4139 -0.1631
   27CHL1  H18C 1954   6.340   1.811   9.663 -0.0710  2.0175 -0.9597
   27CHL1   C12 1955   6.477   2.111   9.768  0.1350  0.2884 -0.3906
   27CHL1  H12A 1956   6.563   2.095   9.699  0.8399 -0.3760  0.6260
   27CHL1  H12B 1957   6.453   2.217   9.744 -1.6222  0.1748  0.6994
   27CHL1   C11 1958   6.510   2.105   9.918  0.0965  0.1382 -0.4114
   27CHL1  H11A 1959   6.571   2.014   9.936  1.4436  1.3752  1.6599
   27CHL1  H11B 1960   6.582   2.188   9.934 -0.1776  0.2583  0.2228
   27CHL1    C9 1961   6.388   2.122  10.014  0.3463 -0.0166  0.4846
   27CHL1    H9 1962   6.340   2.220   9.992  0.3074 -0.1625 -0.0985
   27CHL1   C10 1963   6.412   2.099  10.167 -0.1033  0.1235 -0.1624
   27CHL1   C19 1964   6.510   1.984  10.199  0.0804 -0.5266  0.4764
   27CHL1  H19A 1965   6.606   1.995  10.144  0.2503 -0.1676  0.8356
   27CHL1  H19B 1966   6.540   1.981  10.307 -2.2318 -0.7138  1.1623
   27CHL1  H19C 1967   6.478   1.880  10.176  0.1746 -0.8435  1.6923
   27CHL1    C1 1968   6.472   2.235  10.219 -0.0008 -0.0991 -0.3266
   27CHL1   H1A 1969   6.576   2.240  10.181 -0.0013 -1.7041 -0.6131
   27CHL1   H1B 1970   6.421   2.327  10.182  0.0170  0.0059 -0.0896
   27CHL1    C2 1971   6.488   2.240  10.371 -0.0142 -0.8159  0.1256
   27CHL1   H2A 1972   6.518   2.344  10.397 -1.7589 -0.8477  2.5915
   27CHL1   H2B 1973   6.579   2.182  10.397 -0.2378 -2.9501 -3.2507
   27CHL1   C20 1974   6.380   2.006   9.458 -0.1014  0.9573  0.5179
   27CHL1   H20 1975   6.415   1.901   9.465  0.4707  0.8972 -2.2319
   27CHL1   C21 1976   6.492   2.108   9.430 -0.8748  0.3261  0.5538
   27CHL1  H21A 1977   6.515   2.110   9.321  2.4273  2.9886  1.1594
   27CHL1  H21B 1978   6.578   2.073   9.490 -2.9514  0.3165  3.7356
   27CHL1  H21C 1979   6.456   2.206   9.469 -2.0872 -0.2070  0.8179
   27CHL1   C22 1980   6.275   2.013   9.341 -0.8496 -0.1131 -0.0847
   27CHL1  H22A 1981   6.201   1.930   9.341 -2.4133  1.2026 -1.5675
   27CHL1  H22B 1982   6.210   2.103   9.349  1.3027  1.5985 -0.8065
   27CHL1   C23 1983   6.328   2.008   9.195  0.1993  0.3281 -0.2782
   27CHL1  H23A 1984   6.370   2.109   9.175  0.5816 -0.1476 -2.0200
   27CHL1  H23B 1985   6.413   1.937   9.187  0.4113  0.5611 -0.0996
   27CHL1   C24 1986   6.227   1.967   9.088 -0.0668  0.0877 -0.4729
   27CHL1  H24A 1987   6.182   1.874   9.126 -2.6560  1.2214 -0.5746
   27CHL1  H24B 1988   6.139   2.035   9.084 -1.6417 -1.6875  1.8507
   27CHL1   C25 1989   6.295   1.944   8.948  0.3128  0.8038  0.0158
   27CHL1   H25 1990   6.390   1.887   8.964  0.8808  1.9689  0.9658
   27CHL1   C26 1991   6.192   1.859   8.865 -0.9269 -0.2852  0.2828
   27CHL1  H26A 1992   6.174   1.752   8.890  0.2438 -0.6867 -0.5453
   27CHL1  H26B 1993   6.094   1.911   8.862 -1.4244 -1.2379 -0.8348
   27CHL1  H26C 1994   6.237   1.863   8.764 -0.4684  0.2574  0.5059
   27CHL1   C27 1995   6.325   2.080   8.886 -0.6162 -0.0206  0.1689
   27CHL1  H27A 1996   6.363   2.056   8.784  0.7781  1.3129  0.3268
   27CHL1  H27B 1997   6.237   2.148   8.878 -0.0128  0.7730  0.1356
   27CHL1  H27C 1998   6.416   2.124   8.933 -0.0037 -2.5348  1.5563
   28CHL1    C3 1999   3.876   0.904   9.891  0.3319  0.1119  0.8816
   28CHL1    H3 2000   3.811   0.993   9.902  0.2102  0.0418  0.7371
   28CHL1    O3 2001   3.892   0.845  10.019 -0.3154 -0.1751  0.0440
   28CHL1   H3' 2002   3.819   0.787  10.042 -0.3130  0.9520  3.5757
   28CHL1    C4 2003   3.814   0.792   9.799  1.1603  0.6784 -0.6398
   28CHL1   H4A 2004   3.873   0.699   9.809 -0.7390 -0.7493 -2.0815
   28CHL1   H4B 2005   3.711   0.774   9.837  1.8675 -0.4302  0.8380
   28CHL1    C5 2006   3.806   0.823   9.651 -0.6538  0.1701 -0.3221
   28CHL1    C6 2007   3.692   0.822   9.582  0.1844  0.0915  0.4689
   28CHL1    H6 2008   3.594   0.808   9.632 -0.3443 -0.6712 -0.7390
   28CHL1    C7 2009   3.671   0.849   9.436  0.2277  0.0204  0.2197
   28CHL1   H7A 2010   3.625   0.758   9.392  0.5530  0.1992 -0.5099
   28CHL1   H7B 2011   3.597   0.931   9.431  1.2666  0.9716 -0.1473
   28CHL1    C8 2012   3.815   0.868   9.373 -0.4063 -1.2555 -0.1387
   28CHL1    H8 2013   3.862   0.768   9.368  0.3896 -0.8510 -0.9140
   28CHL1   C14 2014   3.798   0.922   9.237  0.4171  0.6435 -0.7934
   28CHL1   H14 2015   3.747   1.020   9.249  1.3598  1.0601 -0.0694
   28CHL1   C15 2016   3.702   0.837   9.147 -0.2420 -0.3866  0.0324
   28CHL1  H15A 2017   3.711   0.728   9.165 -1.5122 -0.8678 -1.8981
   28CHL1  H15B 2018   3.597   0.870   9.165  0.0069 -0.0059  0.7985
   28CHL1   C16 2019   3.743   0.872   9.006 -0.3576 -0.2369  0.6346
   28CHL1  H16A 2020   3.771   0.777   8.956 -1.1061  0.1572 -0.5903
   28CHL1  H16B 2021   3.663   0.927   8.951 -0.7865 -0.1247  1.3539
   28CHL1   C17 2022   3.867   0.965   9.013 -0.4779  0.8316 -0.1948
   28CHL1   H17 2023   3.817   1.063   9.006 -0.1382  0.9012 -2.3344
   28CHL1   C13 2024   3.927   0.933   9.152  0.5110  0.1734  0.3512
   28CHL1   C18 2025   3.995   0.796   9.131 -0.4123  0.5131  0.1325
   28CHL1  H18A 2026   3.927   0.720   9.088  0.3517 -0.8265  1.2252
   28CHL1  H18B 2027   4.077   0.807   9.058 -0.1667 -0.6596  0.2132
   28CHL1  H18C 2028   4.022   0.756   9.231 -2.1004  0.7378  0.7087
   28CHL1   C12 2029   4.021   1.030   9.231  0.0719 -1.6348 -0.0726
   28CHL1  H12A 2030   4.114   1.036   9.172 -0.8354 -0.6946 -1.4622
   28CHL1  H12B 2031   3.976   1.130   9.218 -0.0856 -1.9044 -1.7563
   28CHL1   C11 2032   4.033   0.987   9.376 -0.2850 -0.4393  0.1857
   28CHL1  H11A 2033   4.105   0.902   9.367  1.0930  0.8324 -1.4185
   28CHL1  H11B 2034   4.087   1.071   9.425 -2.1868 -0.6575  2.8344
   28CHL1    C9 2035   3.905   0.949   9.456 -0.4313  0.6960 -0.1479
   28CHL1    H9 2036   3.863   1.050   9.475 -0.0533  1.2094 -1.8734
   28CHL1   C10 2037   3.932   0.886   9.594 -0.4199 -0.2223 -0.0225
   28CHL1   C19 2038   4.039   0.769   9.576  0.8058 -1.2170  0.8784
   28CHL1  H19A 2039   4.068   0.717   9.670 -0.9579 -1.2116  1.4809
   28CHL1  H19B 2040   3.998   0.691   9.508  0.2293 -0.5620  0.4674
   28CHL1  H19C 2041   4.134   0.805   9.533 -0.8711  1.3704 -0.9391
   28CHL1    C1 2042   3.998   0.996   9.688  0.2114 -0.3833 -1.0345
   28CHL1   H1A 2043   4.101   1.019   9.655 -0.3006  2.5546 -0.8564
   28CHL1   H1B 2044   3.941   1.091   9.686  1.2817  0.2649 -2.1308
   28CHL1    C2 2045   4.014   0.956   9.838  0.3935 -0.6978  0.1715
   28CHL1   H2A 2046   4.041   1.043   9.901 -0.2808 -1.2010  1.1895
   28CHL1   H2B 2047   4.087   0.873   9.849  0.5330 -0.2544  3.5668
   28CHL1   C20 2048   3.951   0.963   8.885 -0.0112 -0.1840 -0.6257
   28CHL1   H20 2049   3.977   0.856   8.868 -0.9657 -0.4692 -0.3216
   28CHL1   C21 2050   4.071   1.053   8.896  0.4312  0.5186 -0.0774
   28CHL1  H21A 2051   4.140   1.000   8.965 -1.4414 -2.3126 -0.1973
   28CHL1  H21B 2052   4.038   1.139   8.957  0.2959 -0.0356  0.6489
   28CHL1  H21C 2053   4.117   1.071   8.797 -1.3809 -1.0514 -1.2758
   28CHL1   C22 2054   3.876   1.001   8.758 -0.2406  0.1575 -0.6613
   28CHL1  H22A 2055   3.956   0.982   8.683  0.1465 -1.5715  0.1242
   28CHL1  H22B 2056   3.795   0.925   8.749  0.3865 -0.3574 -2.3141
   28CHL1   C23 2057   3.825   1.146   8.737 -0.1366  0.1561 -0.6821
   28CHL1  H23A 2058   3.782   1.173   8.836  1.6323  1.3642 -0.1997
   28CHL1  H23B 2059   3.910   1.214   8.719 -0.6285  0.8461 -0.4411
   28CHL1   C24 2060   3.720   1.165   8.629 -0.5370 -0.1451  1.0286
   28CHL1  H24A 2061   3.705   1.274   8.610 -2.0893 -0.5588 -0.3787
   28CHL1  H24B 2062   3.780   1.138   8.540 -2.0842  3.2772 -1.2851
   28CHL1   C25 2063   3.587   1.088   8.638 -0.1695 -0.3688  0.4366
   28CHL1   H25 2064   3.616   0.981   8.644  0.2716 -0.3645 -1.1843
   28CHL1   C26 2065   3.501   1.120   8.762  0.2620  0.6600 -0.0359
   28CHL1  H26A 2066   3.421   1.045   8.779 -0.2085  0.5598 -2.4041
   28CHL1  H26B 2067   3.562   1.115   8.855 -0.2200  0.5619  0.2831
   28CHL1  H26C 2068   3.448   1.218   8.761 -1.9781 -0.4802 -0.0913
   28CHL1   C27 2069   3.500   1.116   8.514 -0.7930  0.2202 -0.6921
   28CHL1  H27A 2070   3.526   1.041   8.437  0.7518  0.6139 -0.5715
   28CHL1  H27B 2071   3.390   1.111   8.530 -0.8961  0.4205 -1.2947
   28CHL1  H27C 2072   3.511   1.219   8.472  1.5837  0.3131  0.0481
   29CHL1    C3 2073   5.286   0.490   6.869  0.0898 -0.2195 -0.0165
   29CHL1    H3 2074   5.361   0.438   6.933  0.1372 -0.9451 -0.6437
   29CHL1    O3 2075   5.249   0.397   6.771  0.3833  0.0595  0.0750
   29CHL1   H3' 2076   5.186   0.432   6.708  0.7203 -2.2410 -1.6912
   29CHL1    C4 2077   5.169   0.532   6.946 -0.4481  0.1955  0.0670
   29CHL1   H4A 2078   5.092   0.574   6.878  1.1442 -0.3388 -2.1830
   29CHL1   H4B 2079   5.125   0.436   6.981  2.8757 -1.0331  1.2754
   29CHL1    C5 2080   5.188   0.633   7.060 -0.1671  0.4776 -0.1724
   29CHL1    C6 2081   5.160   0.603   7.188 -0.3130 -0.7032  0.3745
   29CHL1    H6 2082   5.126   0.502   7.216  0.9162 -1.1192  0.4426
   29CHL1    C7 2083   5.192   0.695   7.304  0.4284  1.1671  0.1278
   29CHL1   H7A 2084   5.105   0.706   7.372  1.1209  0.9786  1.0548
   29CHL1   H7B 2085   5.281   0.663   7.363  0.2202 -0.6878 -0.4811
   29CHL1    C8 2086   5.244   0.832   7.264  0.1735  0.2419  0.1244
   29CHL1    H8 2087   5.152   0.889   7.241 -1.2880 -1.2470  1.9627
   29CHL1   C14 2088   5.315   0.904   7.377 -0.7068 -0.0836  0.4678
   29CHL1   H14 2089   5.404   0.841   7.399  0.4353  0.9509 -0.9785
   29CHL1   C15 2090   5.250   0.922   7.511  1.4390 -0.0092  0.4599
   29CHL1  H15A 2091   5.148   0.965   7.503  1.2545 -0.2347  1.4008
   29CHL1  H15B 2092   5.231   0.829   7.569 -3.1295  1.0006  0.9466
   29CHL1   C16 2093   5.330   1.023   7.583  0.4127  0.7007  0.3826
   29CHL1  H16A 2094   5.266   1.103   7.625  0.0365  1.7629 -2.0380
   29CHL1  H16B 2095   5.397   0.986   7.664  2.4481  0.5294 -1.2663
   29CHL1   C17 2096   5.426   1.081   7.476  0.0583  0.8175  0.6754
   29CHL1   H17 2097   5.517   1.020   7.491  0.0934  0.7353  0.1418
   29CHL1   C13 2098   5.371   1.046   7.336 -0.4212  0.2926  0.0421
   29CHL1   C18 2099   5.253   1.143   7.302 -0.2938  0.5834 -0.0659
   29CHL1  H18A 2100   5.201   1.115   7.208  1.4322 -0.8279 -0.6421
   29CHL1  H18B 2101   5.170   1.128   7.375 -0.4543  2.6304  0.2312
   29CHL1  H18C 2102   5.296   1.244   7.291  1.3060  0.0996  1.3841
   29CHL1   C12 2103   5.466   1.032   7.217 -0.3606 -0.4564  0.3161
   29CHL1  H12A 2104   5.511   1.127   7.181 -3.0680  2.6416  4.2252
   29CHL1  H12B 2105   5.555   0.970   7.240 -0.0636  0.7937  2.8468
   29CHL1   C11 2106   5.395   0.961   7.103 -0.5783 -0.2771  0.5383
   29CHL1  H11A 2107   5.304   1.018   7.072 -2.4322 -3.9728 -1.4916
   29CHL1  H11B 2108   5.463   0.950   7.016 -1.0109 -0.6216  0.2365
   29CHL1    C9 2109   5.332   0.827   7.138  0.0922  1.4024  0.5319
   29CHL1    H9 2110   5.421   0.764   7.157 -1.2955 -1.2393 -1.1061
   29CHL1   C10 2111   5.263   0.759   7.019 -0.1370  0.8063 -0.1134
   29CHL1   C19 2112   5.157   0.849   6.956 -0.3210 -1.0480  0.3431
   29CHL1  H19A 2113   5.081   0.891   7.025 -1.9350  0.4275 -2.1621
   29CHL1  H19B 2114   5.206   0.937   6.909 -1.0495 -0.9751 -0.3081
   29CHL1  H19C 2115   5.097   0.800   6.876 -0.8825  1.1072 -0.6195
   29CHL1    C1 2116   5.379   0.722   6.915  0.3925 -0.0743 -0.4939
   29CHL1   H1A 2117   5.389   0.818   6.859 -0.1748  0.4664  0.3140
   29CHL1   H1B 2118   5.466   0.681   6.969  0.9724 -1.3620 -2.2792
   29CHL1    C2 2119   5.349   0.619   6.809  0.0297  0.3963  0.6647
   29CHL1   H2A 2120   5.433   0.595   6.741  0.1691  0.0667  0.9532
   29CHL1   H2B 2121   5.274   0.671   6.745  0.4346 -1.4945 -1.4908
   29CHL1   C20 2122   5.447   1.229   7.503  0.3837 -0.1727  0.5644
   29CHL1   H20 2123   5.356   1.293   7.494  0.6870  0.4026  1.4800
   29CHL1   C21 2124   5.549   1.283   7.401  0.4794 -0.9535  0.0158
   29CHL1  H21A 2125   5.627   1.212   7.365  2.0681  1.2698 -1.1439
   29CHL1  H21B 2126   5.588   1.368   7.460  0.3988 -0.1199 -1.0940
   29CHL1  H21C 2127   5.495   1.326   7.314  1.5301 -0.8345 -0.5912
   29CHL1   C22 2128   5.507   1.252   7.643  0.1860  0.1350 -0.1434
   29CHL1  H22A 2129   5.521   1.362   7.646  1.2535 -0.0089  1.4071
   29CHL1  H22B 2130   5.436   1.224   7.724  2.2490 -3.1853  0.7234
   29CHL1   C23 2131   5.637   1.187   7.668 -0.1131  1.1357 -0.7965
   29CHL1  H23A 2132   5.644   1.076   7.660  1.5359  1.2920 -1.9206
   29CHL1  H23B 2133   5.712   1.228   7.597  1.4485 -0.8772 -0.3988
   29CHL1   C24 2134   5.695   1.205   7.813 -1.1106 -0.8154  0.3372
   29CHL1  H24A 2135   5.801   1.173   7.820 -0.9055 -0.1401  0.4174
   29CHL1  H24B 2136   5.691   1.314   7.834  0.5008 -0.3034 -1.7529
   29CHL1   C25 2137   5.629   1.123   7.927  0.0481  0.4778 -0.0761
   29CHL1   H25 2138   5.522   1.152   7.925 -0.4434 -1.1388  0.8244
   29CHL1   C26 2139   5.642   0.973   7.909  0.2990 -0.0855 -0.0821
   29CHL1  H26A 2140   5.587   0.938   7.820  2.1817 -1.1162 -0.8864
   29CHL1  H26B 2141   5.747   0.939   7.899 -0.9388 -3.6851 -3.3922
   29CHL1  H26C 2142   5.604   0.924   8.001 -2.2903 -0.2639 -1.1654
   29CHL1   C27 2143   5.682   1.170   8.062 -0.6243 -0.0924  0.5163
   29CHL1  H27A 2144   5.790   1.156   8.082 -0.6942  1.4204  2.1702
   29CHL1  H27B 2145   5.670   1.280   8.072  0.7987  0.0057  1.3393
   29CHL1  H27C 2146   5.615   1.129   8.140 -0.4508 -2.1439 -0.3389
   30CHL1    C3 2147   2.590   4.924   7.215 -0.2329  0.2084  0.4823
   30CHL1    H3 2148   2.480   4.931   7.208 -0.2066  1.8643  1.2221
   30CHL1    O3 2149   2.648   4.927   7.088 -0.1617 -0.1341  0.2904
   30CHL1   H3' 2150   2.638   5.017   7.057 -0.9290 -0.2149  0.2896
   30CHL1    C4 2151   2.642   5.048   7.295  0.3785 -0.6416 -0.6870
   30CHL1   H4A 2152   2.752   5.054   7.310  0.0679  2.7448  1.1136
   30CHL1   H4B 2153   2.603   5.135   7.238  0.0147  0.2483  0.8782
   30CHL1    C5 2154   2.601   5.048   7.443 -0.4278  0.7431  0.4694
   30CHL1    C6 2155   2.540   5.157   7.494  0.4905 -0.3149  0.5280
   30CHL1    H6 2156   2.524   5.252   7.441 -2.1010 -0.6589  0.5651
   30CHL1    C7 2157   2.488   5.160   7.635 -0.1518 -0.0826 -0.1050
   30CHL1   H7A 2158   2.519   5.253   7.686 -1.6296  0.5359 -0.2717
   30CHL1   H7B 2159   2.377   5.159   7.636 -0.2019 -0.6309 -1.8660
   30CHL1    C8 2160   2.537   5.042   7.718 -0.0154 -0.2765  0.5472
   30CHL1    H8 2161   2.644   5.052   7.749 -0.3894 -0.7575  2.1161
   30CHL1   C14 2162   2.450   5.035   7.842 -0.0314  0.2598 -0.5552
   30CHL1   H14 2163   2.349   5.012   7.801  0.0808 -3.1284  0.7652
   30CHL1   C15 2164   2.433   5.166   7.926 -0.2470  0.6085 -0.6100
   30CHL1  H15A 2165   2.532   5.210   7.952  0.5368 -0.7546 -1.1390
   30CHL1  H15B 2166   2.363   5.237   7.877 -1.9955  0.3708  1.4078
   30CHL1   C16 2167   2.366   5.117   8.060 -0.5268  0.3656  0.0165
   30CHL1  H16A 2168   2.431   5.149   8.144 -0.3547 -0.5869  0.2558
   30CHL1  H16B 2169   2.259   5.144   8.075 -0.8703 -1.2217  0.6237
   30CHL1   C17 2170   2.355   4.961   8.050 -0.4793  0.5025  0.8723
   30CHL1   H17 2171   2.258   4.935   8.001  0.1394 -1.0117  0.3795
   30CHL1   C13 2172   2.470   4.922   7.947  0.5559  0.4817  0.1257
   30CHL1   C18 2173   2.603   4.950   8.013  0.8997 -0.2102  0.0797
   30CHL1  H18A 2174   2.689   4.962   7.943  1.3944 -0.9069  0.5508
   30CHL1  H18B 2175   2.604   5.025   8.095 -1.8425 -1.9953  1.9102
   30CHL1  H18C 2176   2.622   4.852   8.063 -2.2629 -0.6238  0.6511
   30CHL1   C12 2177   2.465   4.794   7.871  0.5315 -0.5711  0.3751
   30CHL1  H12A 2178   2.502   4.713   7.937 -0.9683 -0.5514  1.2968
   30CHL1  H12B 2179   2.365   4.753   7.847  0.8896 -0.3479 -1.6222
   30CHL1   C11 2180   2.554   4.798   7.741 -0.2592  0.0150  0.4920
   30CHL1  H11A 2181   2.659   4.804   7.775 -0.0654 -1.9936  0.3936
   30CHL1  H11B 2182   2.550   4.704   7.681 -0.2279  1.0437 -1.1882
   30CHL1    C9 2183   2.524   4.915   7.643 -1.2416 -0.7548  0.4648
   30CHL1    H9 2184   2.421   4.894   7.606 -0.8356 -1.1742 -0.4690
   30CHL1   C10 2185   2.616   4.909   7.516 -0.2146  0.4228 -0.2476
   30CHL1   C19 2186   2.769   4.894   7.556  0.3036  1.0811  0.0262
   30CHL1  H19A 2187   2.805   4.974   7.624 -0.0107  0.4811  0.9038
   30CHL1  H19B 2188   2.786   4.801   7.612 -1.4503  0.7885  0.1270
   30CHL1  H19C 2189   2.831   4.892   7.464  1.1427  1.3702  0.5790
   30CHL1    C1 2190   2.561   4.789   7.425  0.3001  0.2746  0.0334
   30CHL1   H1A 2191   2.576   4.694   7.480 -1.8025 -0.0002  0.2156
   30CHL1   H1B 2192   2.450   4.785   7.416  0.2064 -1.3008  1.4512
   30CHL1    C2 2193   2.618   4.788   7.284  0.2436 -0.3821  1.4789
   30CHL1   H2A 2194   2.570   4.715   7.215  1.8853  2.0683 -2.6697
   30CHL1   H2B 2195   2.727   4.767   7.286  0.4813 -0.4985 -2.9785
   30CHL1   C20 2196   2.361   4.888   8.184  1.1609 -0.1817  0.2987
   30CHL1   H20 2197   2.454   4.900   8.244  0.5659 -1.7310  1.6197
   30CHL1   C21 2198   2.338   4.733   8.148 -0.1932 -0.6133  0.5571
   30CHL1  H21A 2199   2.256   4.709   8.079 -0.2831  0.9969  0.0596
   30CHL1  H21B 2200   2.326   4.680   8.245  1.9077 -1.5950  0.3323
   30CHL1  H21C 2201   2.432   4.689   8.108  0.7601  1.8316 -0.0783
   30CHL1   C22 2202   2.245   4.939   8.271 -0.1698 -0.4148  0.4787
   30CHL1  H22A 2203   2.251   5.050   8.284 -1.2938 -0.0969 -1.3901
   30CHL1  H22B 2204   2.153   4.911   8.215 -0.1810 -1.3837  0.9719
   30CHL1   C23 2205   2.217   4.872   8.401 -0.7319 -0.1235 -0.0263
   30CHL1  H23A 2206   2.155   4.781   8.386 -2.3698  0.5810  1.9813
   30CHL1  H23B 2207   2.313   4.839   8.447 -0.3550  0.1161 -0.6225
   30CHL1   C24 2208   2.135   4.959   8.502 -0.3141  0.1269 -0.0496
   30CHL1  H24A 2209   2.201   5.043   8.532 -2.6797  1.1257  2.9515
   30CHL1  H24B 2210   2.047   4.985   8.439 -0.1887 -0.4500 -0.4781
   30CHL1   C25 2211   2.091   4.890   8.638 -1.1751 -0.0426 -0.3627
   30CHL1   H25 2212   2.076   4.783   8.614  1.7954 -0.1983 -1.8685
   30CHL1   C26 2213   2.202   4.910   8.738 -0.0230  0.1959  0.1562
   30CHL1  H26A 2214   2.202   5.018   8.764  2.3809  0.2430  0.2072
   30CHL1  H26B 2215   2.193   4.851   8.832 -0.8039 -0.2325 -0.1765
   30CHL1  H26C 2216   2.304   4.880   8.705  0.2681 -0.1799  1.3588
   30CHL1   C27 2217   1.967   4.952   8.686  0.2040 -0.5835  0.5065
   30CHL1  H27A 2218   1.885   4.954   8.612  0.7036 -1.5993 -0.1117
   30CHL1  H27B 2219   1.917   4.899   8.770 -1.7559 -0.8325 -0.7624
   30CHL1  H27C 2220   1.981   5.058   8.714  1.8600 -0.8999  1.0424
   31CHL1    C3 2221   4.397   2.860   6.932  0.3212  0.2137  1.1018
   31CHL1    H3 2222   4.411   2.968   6.952 -2.8157  0.9898 -0.3314
   31CHL1    O3 2223   4.388   2.839   6.790  0.3448 -0.3372  0.2515
   31CHL1   H3' 2224   4.475   2.851   6.752 -1.1668 -0.3500 -3.6919
   31CHL1    C4 2225   4.529   2.796   6.988 -0.3033 -0.1642 -0.3677
   31CHL1   H4A 2226   4.538   2.689   6.958  1.6358 -0.8827  2.3616
   31CHL1   H4B 2227   4.618   2.846   6.945  0.8692 -0.9609  1.0322
   31CHL1    C5 2228   4.535   2.787   7.143 -0.5287  0.6748 -0.6453
   31CHL1    C6 2229   4.653   2.813   7.206 -0.3761  0.0404 -0.2976
   31CHL1    H6 2230   4.743   2.847   7.152 -0.3662  1.3734  0.5068
   31CHL1    C7 2231   4.662   2.804   7.355 -0.7906  0.5197 -0.4143
   31CHL1   H7A 2232   4.753   2.752   7.392  0.8575  1.2652 -3.1434
   31CHL1   H7B 2233   4.669   2.912   7.383  1.7167  0.1526  0.6590
   31CHL1    C8 2234   4.540   2.746   7.430  0.0773  0.1506 -0.0285
   31CHL1    H8 2235   4.553   2.636   7.424  2.7834  0.4346 -0.6657
   31CHL1   C14 2236   4.543   2.797   7.578  0.1079 -0.3715  0.4894
   31CHL1   H14 2237   4.522   2.906   7.567 -2.1726 -0.9451 -2.0409
   31CHL1   C15 2238   4.666   2.787   7.668  0.2738  0.0383  0.1988
   31CHL1  H15A 2239   4.721   2.691   7.654 -1.2293 -1.2063  2.2174
   31CHL1  H15B 2240   4.734   2.874   7.651 -1.3876  0.7899 -3.8183
   31CHL1   C16 2241   4.614   2.793   7.813 -0.3277 -0.8320  0.7411
   31CHL1  H16A 2242   4.637   2.691   7.848 -0.1884 -2.0054 -2.4244
   31CHL1  H16B 2243   4.645   2.878   7.878  0.8793 -0.4644 -0.2781
   31CHL1   C17 2244   4.458   2.807   7.802  1.1255 -0.1571 -0.1547
   31CHL1   H17 2245   4.444   2.916   7.789  2.8883  0.3554  1.6485
   31CHL1   C13 2246   4.425   2.748   7.664  0.5551 -0.6285 -0.1204
   31CHL1   C18 2247   4.423   2.600   7.678 -0.3602 -0.1089  0.1111
   31CHL1  H18A 2248   4.390   2.552   7.583 -2.8388  0.5412  0.5801
   31CHL1  H18B 2249   4.526   2.561   7.691  1.0518  2.0884 -3.1369
   31CHL1  H18C 2250   4.343   2.568   7.748 -2.9048  3.2081 -1.0032
   31CHL1   C12 2251   4.298   2.796   7.607  0.4351 -0.0507 -0.2288
   31CHL1  H12A 2252   4.204   2.781   7.665 -0.2519  1.0982 -1.0129
   31CHL1  H12B 2253   4.311   2.904   7.587  0.4254 -0.1652 -0.8772
   31CHL1   C11 2254   4.279   2.759   7.455  0.3148 -0.4800  0.2387
   31CHL1  H11A 2255   4.266   2.648   7.452  0.7587 -0.6271  2.3126
   31CHL1  H11B 2256   4.187   2.814   7.425  0.3824  0.2008  1.2567
   31CHL1    C9 2257   4.403   2.790   7.367 -0.6973  0.0431 -0.0538
   31CHL1    H9 2258   4.396   2.900   7.371 -0.2159  0.0558  3.7991
   31CHL1   C10 2259   4.406   2.759   7.217  0.3942 -0.0930 -1.0989
   31CHL1   C19 2260   4.404   2.601   7.213  0.0897 -0.1008  0.4892
   31CHL1  H19A 2261   4.367   2.563   7.115  1.6930 -1.2097  0.2713
   31CHL1  H19B 2262   4.501   2.550   7.229 -0.6635 -1.2893  1.4080
   31CHL1  H19C 2263   4.328   2.561   7.284 -1.3215  1.0874 -0.2817
   31CHL1    C1 2264   4.285   2.817   7.151  0.1685 -0.0614  0.7798
   31CHL1   H1A 2265   4.197   2.765   7.193  1.1238 -1.9511  0.5625
   31CHL1   H1B 2266   4.277   2.926   7.171  0.1195  0.0627  0.1101
   31CHL1    C2 2267   4.277   2.806   6.997  0.1296 -0.3967  0.4220
   31CHL1   H2A 2268   4.192   2.867   6.961  2.2206  1.4467 -1.7677
   31CHL1   H2B 2269   4.261   2.702   6.963  0.2353 -0.3779  0.3116
   31CHL1   C20 2270   4.376   2.754   7.925 -0.5407 -0.3382  0.3082
   31CHL1   H20 2271   4.289   2.710   7.871  0.3776 -1.7484 -0.0831
   31CHL1   C21 2272   4.330   2.879   8.008  0.1994  0.0318  0.0800
   31CHL1  H21A 2273   4.296   2.956   7.935  2.9138 -0.8649 -2.3691
   31CHL1  H21B 2274   4.409   2.922   8.072 -0.8138 -1.6273  2.6040
   31CHL1  H21C 2275   4.247   2.850   8.076 -0.7259  0.1494 -0.9651
   31CHL1   C22 2276   4.431   2.628   8.003  0.8556  1.0562  0.2247
   31CHL1  H22A 2277   4.468   2.552   7.932 -1.2345 -0.1158  0.3005
   31CHL1  H22B 2278   4.510   2.676   8.065 -2.1751  3.3637  2.6365
   31CHL1   C23 2279   4.341   2.549   8.091 -0.3467  0.1470 -0.5670
   31CHL1  H23A 2280   4.394   2.470   8.149  1.5829  2.0107  0.3660
   31CHL1  H23B 2281   4.298   2.622   8.163  0.0105 -3.5388  3.8634
   31CHL1   C24 2282   4.230   2.475   8.014 -0.6747  0.8715  0.2904
   31CHL1  H24A 2283   4.167   2.550   7.963  1.6955  1.4340 -2.0176
   31CHL1  H24B 2284   4.285   2.405   7.948 -1.4131 -0.5005  1.0682
   31CHL1   C25 2285   4.134   2.397   8.113 -0.1587  0.0710  0.0351
   31CHL1   H25 2286   4.205   2.330   8.165 -0.4286 -1.1400 -1.1183
   31CHL1   C26 2287   4.053   2.486   8.208  0.0721 -0.0338  0.8467
   31CHL1  H26A 2288   3.983   2.552   8.153 -0.5259  0.4819  2.1805
   31CHL1  H26B 2289   3.991   2.419   8.271 -0.3694  0.5516  1.0521
   31CHL1  H26C 2290   4.115   2.547   8.277  1.4408 -3.3995  2.7972
   31CHL1   C27 2291   4.036   2.312   8.030 -0.1207  0.3907 -0.1800
   31CHL1  H27A 2292   3.988   2.233   8.093  2.2776  0.5688  2.0541
   31CHL1  H27B 2293   4.087   2.259   7.947  0.5358  0.3033  0.2707
   31CHL1  H27C 2294   3.953   2.374   7.991  1.0451  2.4817  0.5089
   32CHL1    C3 2295   4.414   6.428   6.852  0.1382 -0.0450 -0.6108
   32CHL1    H3 2296   4.412   6.537   6.873 -1.8111 -0.5674  2.5347
   32CHL1    O3 2297   4.402   6.403   6.710 -0.1578  0.1358  0.2209
   32CHL1   H3' 2298   4.405   6.307   6.709  2.3741  0.0879  1.6452
   32CHL1    C4 2299   4.546   6.362   6.902 -0.7756  0.2339 -0.2741
   32CHL1   H4A 2300   4.544   6.254   6.877 -2.0331  0.6526 -2.1697
   32CHL1   H4B 2301   4.628   6.412   6.847  1.4852 -0.7341  2.0404
   32CHL1    C5 2302   4.566   6.387   7.045 -0.3724 -0.3348 -0.8311
   32CHL1    C6 2303   4.677   6.437   7.110 -0.7908 -0.0777  0.0821
   32CHL1    H6 2304   4.765   6.465   7.050 -1.1272  2.2499  0.5836
   32CHL1    C7 2305   4.706   6.449   7.252 -0.3543 -0.2292 -0.9415
   32CHL1   H7A 2306   4.813   6.421   7.267 -0.1492  0.8408 -0.2744
   32CHL1   H7B 2307   4.700   6.553   7.291 -1.0410 -0.9422  0.9275
   32CHL1    C8 2308   4.612   6.359   7.334  0.0575 -0.4298 -0.2585
   32CHL1    H8 2309   4.644   6.253   7.333  1.2300 -0.1039  0.7737
   32CHL1   C14 2310   4.621   6.393   7.482 -0.4894 -0.8265  0.3461
   32CHL1   H14 2311   4.574   6.492   7.496  0.0985 -0.6018  0.7931
   32CHL1   C15 2312   4.761   6.395   7.540 -0.2455  0.7544 -0.0758
   32CHL1  H15A 2313   4.810   6.302   7.504  3.7141  2.5693  0.0609
   32CHL1  H15B 2314   4.813   6.484   7.498 -0.1310  0.5037 -0.4631
   32CHL1   C16 2315   4.737   6.398   7.690 -0.4480 -0.4392 -0.2324
   32CHL1  H16A 2316   4.793   6.314   7.737  1.0990  0.3025 -0.6724
   32CHL1  H16B 2317   4.763   6.495   7.737  0.2439 -1.2762  1.1975
   32CHL1   C17 2318   4.585   6.370   7.713  0.2453  0.5156 -0.0882
   32CHL1   H17 2319   4.543   6.472   7.724 -0.8409  0.1821 -0.9618
   32CHL1   C13 2320   4.533   6.307   7.578  0.1994 -0.0703 -0.2925
   32CHL1   C18 2321   4.576   6.162   7.570 -0.2826  0.2022  0.2862
   32CHL1  H18A 2322   4.534   6.121   7.476  2.2049  1.1342 -1.3268
   32CHL1  H18B 2323   4.685   6.140   7.568 -0.6338 -1.9428  1.7124
   32CHL1  H18C 2324   4.544   6.100   7.656  1.0078  0.8900  1.3134
   32CHL1   C12 2325   4.388   6.329   7.541 -0.6800  0.0935 -0.7800
   32CHL1  H12A 2326   4.321   6.263   7.599 -0.8442  0.9559  0.0342
   32CHL1  H12B 2327   4.362   6.429   7.582  2.5571  1.0208 -0.6632
   32CHL1   C11 2328   4.366   6.304   7.391  0.1786 -0.0205  0.3513
   32CHL1  H11A 2329   4.364   6.198   7.360 -0.3681  0.4190 -1.1597
   32CHL1  H11B 2330   4.272   6.353   7.358  0.2543 -0.8802 -1.2237
   32CHL1    C9 2331   4.470   6.365   7.289 -0.4356 -0.5704 -0.3661
   32CHL1    H9 2332   4.451   6.474   7.298 -0.6403 -0.4854 -1.6884
   32CHL1   C10 2333   4.452   6.335   7.135 -0.2296  0.3479 -0.9740
   32CHL1   C19 2334   4.445   6.175   7.131  0.0192 -0.8334  0.3149
   32CHL1  H19A 2335   4.451   6.148   7.023  1.4666 -1.6236  0.5649
   32CHL1  H19B 2336   4.527   6.126   7.188 -0.6251 -2.8146 -0.3651
   32CHL1  H19C 2337   4.349   6.133   7.167  1.5895 -2.9854  2.2760
   32CHL1    C1 2338   4.322   6.396   7.083 -0.1644  0.2258  0.1130
   32CHL1   H1A 2339   4.238   6.351   7.142 -2.7890  1.6959 -2.2661
   32CHL1   H1B 2340   4.318   6.506   7.092 -0.3250  0.3866 -1.6598
   32CHL1    C2 2341   4.291   6.374   6.932 -0.3100 -0.2396  0.1440
   32CHL1   H2A 2342   4.199   6.422   6.892  1.4313  2.2056 -1.1149
   32CHL1   H2B 2343   4.274   6.266   6.913  0.9224 -0.4453  0.1387
   32CHL1   C20 2344   4.559   6.305   7.846 -0.0684 -0.0382 -0.2451
   32CHL1   H20 2345   4.590   6.198   7.842 -0.1034 -0.1838  2.0164
   32CHL1   C21 2346   4.410   6.303   7.864 -0.2535 -0.5120 -0.9289
   32CHL1  H21A 2347   4.354   6.398   7.853  0.3025 -0.1142 -0.4165
   32CHL1  H21B 2348   4.389   6.276   7.970  2.8512 -2.4117 -0.6952
   32CHL1  H21C 2349   4.365   6.223   7.802  1.6292 -1.7372 -0.8074
   32CHL1   C22 2350   4.634   6.379   7.967 -0.1609 -0.3357 -0.1615
   32CHL1  H22A 2351   4.611   6.328   8.063  0.6178  0.6914  0.5962
   32CHL1  H22B 2352   4.743   6.361   7.955  0.1501  0.4073  1.2757
   32CHL1   C23 2353   4.603   6.532   7.976  0.2139 -0.0356 -0.1391
   32CHL1  H23A 2354   4.641   6.572   7.880  0.4373 -1.2936 -0.5951
   32CHL1  H23B 2355   4.491   6.533   7.979  0.1749 -1.5503 -0.3570
   32CHL1   C24 2356   4.671   6.611   8.094 -0.3817 -0.2583  0.0360
   32CHL1  H24A 2357   4.683   6.547   8.184  0.1220 -1.2898 -0.7354
   32CHL1  H24B 2358   4.776   6.614   8.056 -0.7246  1.3091 -0.8526
   32CHL1   C25 2359   4.616   6.747   8.132 -0.2382 -0.0355 -0.0437
   32CHL1   H25 2360   4.507   6.733   8.147 -0.0730 -0.6286  0.6534
   32CHL1   C26 2361   4.670   6.803   8.266  0.3534  0.2249 -0.1909
   32CHL1  H26A 2362   4.781   6.796   8.273  0.1828 -1.1788  4.4546
   32CHL1  H26B 2363   4.637   6.905   8.293 -0.5883 -0.1412  0.0687
   32CHL1  H26C 2364   4.640   6.732   8.346 -1.1286 -0.0102 -0.9343
   32CHL1   C27 2365   4.619   6.849   8.012 -0.0500 -0.6781 -0.4023
   32CHL1  H27A 2366   4.725   6.873   7.985 -0.6371  1.1403 -1.2524
   32CHL1  H27B 2367   4.574   6.806   7.920 -0.5298  0.0395 -0.5147
   32CHL1  H27C 2368   4.568   6.942   8.044  1.5051  0.4074 -0.9262
   33CHL1    C3 2369   5.106   6.767   6.772  0.8367  0.2170 -0.0113
   33CHL1    H3 2370   5.072   6.871   6.751  2.0856  0.4161 -1.2122
   33CHL1    O3 2371   5.114   6.705   6.647 -0.3829  0.4245 -1.2832
   33CHL1   H3' 2372   5.158   6.625   6.676 -1.0393  0.8608  1.1015
   33CHL1    C4 2373   5.239   6.765   6.849 -0.1011  0.1735 -0.5262
   33CHL1   H4A 2374   5.302   6.673   6.850 -0.2732  0.0582  0.4691
   33CHL1   H4B 2375   5.300   6.837   6.791 -3.0075  2.6981 -0.7328
   33CHL1    C5 2376   5.220   6.817   6.991 -0.2808 -0.2986  0.0831
   33CHL1    C6 2377   5.284   6.931   7.044 -0.2151  0.1549 -0.2584
   33CHL1    H6 2378   5.351   6.995   6.984  1.8372  0.4407  2.1678
   33CHL1    C7 2379   5.282   6.974   7.189  0.4288 -0.0662  0.2312
   33CHL1   H7A 2380   5.381   6.985   7.240 -1.0850 -0.6249  3.5643
   33CHL1   H7B 2381   5.219   7.065   7.189 -1.1851 -1.1478 -0.5112
   33CHL1    C8 2382   5.217   6.856   7.272  0.3408 -0.5962  0.5387
   33CHL1    H8 2383   5.290   6.774   7.285  2.7164  1.5252  1.3027
   33CHL1   C14 2384   5.183   6.918   7.407  1.0192  0.2028  0.4136
   33CHL1   H14 2385   5.122   7.006   7.377 -2.3577 -2.7871 -2.5408
   33CHL1   C15 2386   5.303   6.970   7.496  0.2581 -0.8251  0.2361
   33CHL1  H15A 2387   5.380   6.890   7.492 -1.4810 -2.6689  1.3940
   33CHL1  H15B 2388   5.333   7.069   7.456 -0.2577  0.0259  1.8606
   33CHL1   C16 2389   5.245   6.987   7.636 -0.7858  0.2947 -0.5925
   33CHL1  H16A 2390   5.319   6.935   7.700  0.0107 -0.9219 -2.4009
   33CHL1  H16B 2391   5.235   7.089   7.678  2.1125  0.0738  0.8687
   33CHL1   C17 2392   5.101   6.927   7.628  0.1428  0.1013  0.0895
   33CHL1   H17 2393   5.039   7.015   7.600  1.2320 -0.0594 -3.3036
   33CHL1   C13 2394   5.103   6.829   7.510 -0.1738  0.3125 -0.0859
   33CHL1   C18 2395   5.190   6.704   7.559  0.3186 -0.1973  0.5228
   33CHL1  H18A 2396   5.122   6.625   7.597 -1.1432 -0.5033 -2.4327
   33CHL1  H18B 2397   5.242   6.678   7.464 -0.1847 -0.5766  0.3462
   33CHL1  H18C 2398   5.258   6.738   7.639  1.0241  0.3126 -0.2716
   33CHL1   C12 2399   4.969   6.777   7.447 -0.4215  0.0743 -1.0080
   33CHL1  H12A 2400   4.922   6.701   7.513  0.6065  0.6296  0.4230
   33CHL1  H12B 2401   4.901   6.865   7.452  1.8083  1.8063  1.2461
   33CHL1   C11 2402   4.993   6.722   7.308 -0.0487 -0.3490  0.7275
   33CHL1  H11A 2403   5.026   6.616   7.314  0.2988 -0.3762 -1.1481
   33CHL1  H11B 2404   4.891   6.722   7.265 -1.0255 -4.3879  2.5623
   33CHL1    C9 2405   5.083   6.809   7.211 -0.8430 -0.3270 -0.3572
   33CHL1    H9 2406   5.035   6.908   7.192  1.4033  0.4903 -2.1866
   33CHL1   C10 2407   5.111   6.742   7.073 -0.3003  0.6630 -1.0336
   33CHL1   C19 2408   5.181   6.607   7.092 -0.0721  0.7908 -0.0650
   33CHL1  H19A 2409   5.109   6.539   7.143 -1.3389  0.3585 -2.3049
   33CHL1  H19B 2410   5.197   6.556   6.994  1.5536  1.8290 -0.3859
   33CHL1  H19C 2411   5.276   6.608   7.150 -0.0948  0.6604 -0.0245
   33CHL1    C1 2412   4.981   6.729   6.997 -0.0172  0.0988  0.2725
   33CHL1   H1A 2413   4.914   6.659   7.052  0.2667 -0.9940 -0.7371
   33CHL1   H1B 2414   4.932   6.829   7.000 -1.8311 -0.6838 -1.3480
   33CHL1    C2 2415   4.991   6.686   6.847  0.2650  0.8941  0.0096
   33CHL1   H2A 2416   4.901   6.685   6.782 -0.3474  0.2025  0.8546
   33CHL1   H2B 2417   5.018   6.579   6.860  0.4609  0.9837  0.3465
   33CHL1   C20 2418   5.058   6.880   7.767  0.4818 -0.2813  0.1698
   33CHL1   H20 2419   5.138   6.815   7.810 -0.2042  0.6029  3.0543
   33CHL1   C21 2420   4.920   6.811   7.778 -0.2231 -0.1917  0.3219
   33CHL1  H21A 2421   4.847   6.875   7.724 -0.5340 -0.1650  0.7713
   33CHL1  H21B 2422   4.893   6.801   7.886 -0.4120 -0.8018  0.2259
   33CHL1  H21C 2423   4.932   6.714   7.725  1.0722 -0.4076  0.9756
   33CHL1   C22 2424   5.049   7.001   7.869 -0.0284  0.4414 -0.5072
   33CHL1  H22A 2425   5.043   6.956   7.970 -0.0960  0.1462 -0.6431
   33CHL1  H22B 2426   5.140   7.066   7.862 -1.8148  3.0067 -1.4296
   33CHL1   C23 2427   4.938   7.106   7.845 -0.7393 -0.7743  0.5744
   33CHL1  H23A 2428   4.950   7.155   7.746  1.3490 -4.2018 -1.0460
   33CHL1  H23B 2429   4.844   7.048   7.858  1.1790 -3.9595  1.4236
   33CHL1   C24 2430   4.951   7.218   7.956 -0.3954 -0.0452 -0.1474
   33CHL1  H24A 2431   4.947   7.168   8.055  1.3399 -1.4889 -0.7568
   33CHL1  H24B 2432   5.056   7.253   7.943  0.1232 -1.4019  0.2393
   33CHL1   C25 2433   4.848   7.331   7.946 -0.0510  0.4409  0.8686
   33CHL1   H25 2434   4.749   7.279   7.952  0.3978 -0.3549  1.6274
   33CHL1   C26 2435   4.878   7.428   8.061 -0.0213 -0.4678  0.6554
   33CHL1  H26A 2436   4.970   7.486   8.042  0.1579 -0.4056  1.6459
   33CHL1  H26B 2437   4.797   7.503   8.077 -0.5578 -0.5590 -1.4077
   33CHL1  H26C 2438   4.895   7.376   8.158  0.4213 -1.7832 -0.1095
   33CHL1   C27 2439   4.872   7.404   7.815 -0.1819 -0.4163 -0.8537
   33CHL1  H27A 2440   4.978   7.431   7.798 -0.1344  0.0080  0.0689
   33CHL1  H27B 2441   4.846   7.344   7.725 -0.0130  1.2689 -2.0881
   33CHL1  H27C 2442   4.807   7.494   7.801  0.2502 -0.0786 -0.7005
   34CHL1    C3 2443   5.997   4.454   7.167 -0.5294  0.6622  0.4007
   34CHL1    H3 2444   5.984   4.344   7.179  1.4382  0.6268  3.3935
   34CHL1    O3 2445   6.001   4.495   7.026 -0.1170 -0.3096 -0.0524
   34CHL1   H3' 2446   6.075   4.456   6.978  1.7170  0.8583  1.6834
   34CHL1    C4 2447   5.889   4.525   7.239  0.3380 -0.3594 -0.1650
   34CHL1   H4A 2448   5.894   4.636   7.228 -1.9787  0.2658  3.3978
   34CHL1   H4B 2449   5.793   4.503   7.188  0.1452 -1.9936  0.8397
   34CHL1    C5 2450   5.868   4.488   7.382 -0.4959  0.2015  0.0606
   34CHL1    C6 2451   5.764   4.436   7.435  0.5833  0.1910 -0.3443
   34CHL1    H6 2452   5.681   4.408   7.369  3.2438 -1.5394 -3.1819
   34CHL1    C7 2453   5.750   4.404   7.580 -0.7979 -0.4060  0.4433
   34CHL1   H7A 2454   5.646   4.422   7.614 -0.7825 -0.9599  0.7994
   34CHL1   H7B 2455   5.768   4.297   7.605 -1.7458 -0.1664  2.3600
   34CHL1    C8 2456   5.855   4.468   7.676 -0.7506 -0.3518  0.4271
   34CHL1    H8 2457   5.832   4.576   7.685 -1.6352 -0.4128 -0.9018
   34CHL1   C14 2458   5.854   4.395   7.810  0.6070  0.3486  0.5361
   34CHL1   H14 2459   5.871   4.290   7.780  1.7251  0.9804 -1.2348
   34CHL1   C15 2460   5.726   4.388   7.891 -0.0779 -0.0320 -0.1655
   34CHL1  H15A 2461   5.665   4.481   7.892 -1.3251 -0.7519 -2.5681
   34CHL1  H15B 2462   5.666   4.298   7.868  0.3256  0.2391 -2.5869
   34CHL1   C16 2463   5.777   4.379   8.036  0.9286  0.2485 -0.1817
   34CHL1  H16A 2464   5.743   4.470   8.090  2.4619  1.2020 -0.7805
   34CHL1  H16B 2465   5.727   4.291   8.082  0.9331 -0.7061 -1.9231
   34CHL1   C17 2466   5.927   4.349   8.030  0.9144 -0.9054  0.4436
   34CHL1   H17 2467   5.916   4.245   7.992 -2.4767 -0.0788 -1.2296
   34CHL1   C13 2468   5.967   4.434   7.900  0.1003 -1.0546  0.1767
   34CHL1   C18 2469   5.964   4.587   7.933  0.1521 -0.4262 -0.9052
   34CHL1  H18A 2470   6.057   4.612   7.989 -0.2432 -0.5347 -0.1792
   34CHL1  H18B 2471   5.958   4.655   7.846  0.8736  0.2655 -0.4358
   34CHL1  H18C 2472   5.881   4.616   8.001 -0.0071 -0.1712 -1.2092
   34CHL1   C12 2473   6.100   4.399   7.832 -0.2148  0.1597 -0.0585
   34CHL1  H12A 2474   6.193   4.417   7.889  2.0671 -1.9048 -2.8328
   34CHL1  H12B 2475   6.100   4.289   7.815  1.7305  0.1508 -0.2441
   34CHL1   C11 2476   6.117   4.470   7.700 -0.4448 -0.4416 -0.6582
   34CHL1  H11A 2477   6.120   4.580   7.707 -1.4237 -0.4942  0.9908
   34CHL1  H11B 2478   6.207   4.437   7.643  0.7399  0.4212  0.6471
   34CHL1    C9 2479   5.999   4.448   7.608  0.6398 -0.0427 -0.8155
   34CHL1    H9 2480   6.004   4.339   7.587  2.0476 -0.2755  0.5690
   34CHL1   C10 2481   6.005   4.512   7.465 -0.6149  0.3271 -0.4224
   34CHL1   C19 2482   6.028   4.663   7.480  0.1140 -0.1861  0.1103
   34CHL1  H19A 2483   6.115   4.699   7.538  0.7128  0.7104 -1.2839
   34CHL1  H19B 2484   6.027   4.709   7.378 -0.9111 -0.1477  0.1280
   34CHL1  H19C 2485   5.938   4.702   7.533 -0.2337  0.6034 -1.0069
   34CHL1    C1 2486   6.118   4.439   7.382  0.4974 -0.3278  0.2307
   34CHL1   H1A 2487   6.218   4.460   7.427 -0.2806  2.9883  0.6622
   34CHL1   H1B 2488   6.112   4.328   7.379  4.0644 -0.6789  1.1666
   34CHL1    C2 2489   6.128   4.478   7.233  0.0924 -0.4040  0.4351
   34CHL1   H2A 2490   6.194   4.412   7.173 -2.2549  0.4329 -3.4405
   34CHL1   H2B 2491   6.156   4.584   7.215  0.5406 -0.5834  0.0693
   34CHL1   C20 2492   6.015   4.361   8.146 -0.2386  0.1296 -0.3249
   34CHL1   H20 2493   6.118   4.382   8.113 -0.5783 -0.6277 -1.9731
   34CHL1   C21 2494   6.015   4.221   8.217 -0.0122  0.1382 -0.3098
   34CHL1  H21A 2495   6.101   4.218   8.288 -0.9123 -0.8284  0.7764
   34CHL1  H21B 2496   6.038   4.150   8.135  0.5865  0.2294 -0.2298
   34CHL1  H21C 2497   5.925   4.191   8.275  1.3005 -0.2370  1.6181
   34CHL1   C22 2498   5.984   4.457   8.258 -0.1027  0.0587 -0.4114
   34CHL1  H22A 2499   5.970   4.561   8.221 -0.4648  1.7233  3.8098
   34CHL1  H22B 2500   5.894   4.418   8.310 -0.0753 -0.0650 -0.4580
   34CHL1   C23 2501   6.087   4.479   8.369 -0.0939  0.6516 -0.0974
   34CHL1  H23A 2502   6.035   4.539   8.446 -1.1516 -2.5953  1.9217
   34CHL1  H23B 2503   6.122   4.387   8.421 -0.3407  1.5440  1.7304
   34CHL1   C24 2504   6.217   4.536   8.321 -0.2533 -0.1238  0.1542
   34CHL1  H24A 2505   6.259   4.462   8.249 -0.1357  0.9251 -0.9020
   34CHL1  H24B 2506   6.209   4.632   8.266  2.5386  0.5694  0.8360
   34CHL1   C25 2507   6.305   4.559   8.442  0.0761  0.2289  0.2435
   34CHL1   H25 2508   6.302   4.469   8.507 -2.3451  1.1492  1.5158
   34CHL1   C26 2509   6.449   4.590   8.405  0.5650  0.1016 -0.4841
   34CHL1  H26A 2510   6.467   4.690   8.360  3.0559  1.1335  2.4557
   34CHL1  H26B 2511   6.512   4.597   8.496  1.5153  3.1209 -1.2409
   34CHL1  H26C 2512   6.490   4.519   8.330  0.7460  1.3894 -1.6561
   34CHL1   C27 2513   6.260   4.664   8.547  0.4235  1.1396  0.5955
   34CHL1  H27A 2514   6.253   4.766   8.504  0.5209  0.9475  0.1195
   34CHL1  H27B 2515   6.156   4.638   8.576  1.0161  0.3708  2.0984
   34CHL1  H27C 2516   6.323   4.655   8.638 -1.3649 -0.3160  1.7529
   35CHL1    C3 2517   4.047   5.059   7.146 -0.7610  0.2064  0.3198
   35CHL1    H3 2518   3.998   4.959   7.142  1.3478 -0.8879  0.6205
   35CHL1    O3 2519   4.087   5.082   7.007  0.1413 -0.3426 -0.0724
   35CHL1   H3' 2520   4.139   5.018   6.957  0.3074 -1.7426  1.8086
   35CHL1    C4 2521   3.956   5.181   7.190  0.3409 -0.1696 -0.2737
   35CHL1   H4A 2522   4.010   5.271   7.155 -0.2886 -0.2312 -1.4545
   35CHL1   H4B 2523   3.858   5.179   7.136  0.3337 -0.4437 -0.2544
   35CHL1    C5 2524   3.938   5.203   7.339 -0.1453 -0.3947 -0.2226
   35CHL1    C6 2525   3.815   5.222   7.394 -0.3550  1.2076  0.3537
   35CHL1    H6 2526   3.732   5.228   7.321 -0.2938 -2.5070 -0.2354
   35CHL1    C7 2527   3.800   5.254   7.540  0.2808 -0.2403 -0.2209
   35CHL1   H7A 2528   3.719   5.330   7.536  0.0072 -0.4804  0.6186
   35CHL1   H7B 2529   3.775   5.162   7.598 -0.7319 -0.4809 -0.9921
   35CHL1    C8 2530   3.927   5.299   7.610  0.0730  0.1475  0.5567
   35CHL1    H8 2531   3.949   5.403   7.579 -1.9261  0.4917  0.1630
   35CHL1   C14 2532   3.902   5.302   7.765 -0.2938  0.2134 -0.7860
   35CHL1   H14 2533   3.875   5.198   7.793  0.1273  0.4119  0.3920
   35CHL1   C15 2534   3.788   5.385   7.822  1.0250 -0.6164  1.0824
   35CHL1  H15A 2535   3.793   5.489   7.783  0.9545  0.3510  3.4366
   35CHL1  H15B 2536   3.694   5.337   7.787  2.3648 -1.2557 -1.9807
   35CHL1   C16 2537   3.824   5.419   7.968  1.1214  0.0291  0.0377
   35CHL1  H16A 2538   3.829   5.530   7.972 -2.2821  0.3326 -1.0103
   35CHL1  H16B 2539   3.742   5.375   8.029  2.2293 -0.8725  0.9300
   35CHL1   C17 2540   3.961   5.341   7.985 -0.0467 -0.2088 -0.2192
   35CHL1   H17 2541   3.939   5.237   8.016  1.8680 -0.2776  1.1065
   35CHL1   C13 2542   4.031   5.343   7.847  0.5708 -0.2834  0.2912
   35CHL1   C18 2543   4.075   5.483   7.806 -0.1109  0.5823  0.1975
   35CHL1  H18A 2544   3.996   5.558   7.828 -2.1523 -1.6603  0.9880
   35CHL1  H18B 2545   4.164   5.520   7.861 -0.7824 -0.5262  2.1272
   35CHL1  H18C 2546   4.113   5.486   7.702  2.8831 -0.2281  1.1805
   35CHL1   C12 2547   4.139   5.239   7.816  0.0518  0.3312 -0.5040
   35CHL1  H12A 2548   4.220   5.292   7.870 -1.6268  0.0905  2.4854
   35CHL1  H12B 2549   4.114   5.139   7.856  0.4144  0.5458  0.2914
   35CHL1   C11 2550   4.172   5.229   7.664 -0.0388  0.3240 -0.3502
   35CHL1  H11A 2551   4.233   5.317   7.636  1.4466 -0.1214  1.2405
   35CHL1  H11B 2552   4.241   5.142   7.649 -0.4835  0.0855 -1.0336
   35CHL1    C9 2553   4.043   5.203   7.578  0.2838  0.2216 -0.0041
   35CHL1    H9 2554   4.004   5.104   7.611  1.3688 -0.2629 -0.1295
   35CHL1   C10 2555   4.064   5.195   7.427 -0.6424  0.2705  0.2584
   35CHL1   C19 2556   4.155   5.322   7.384  0.3514  0.6217 -0.2040
   35CHL1  H19A 2557   4.257   5.310   7.425 -0.2442  1.0678  1.4817
   35CHL1  H19B 2558   4.160   5.344   7.275  1.9481  0.3097 -0.2190
   35CHL1  H19C 2559   4.116   5.415   7.431  0.5896  0.9252 -0.5967
   35CHL1    C1 2560   4.130   5.056   7.384  0.0341  0.3860 -0.1504
   35CHL1   H1A 2561   4.225   5.056   7.442 -0.4121  4.2075  0.8457
   35CHL1   H1B 2562   4.062   4.973   7.412  0.9714 -1.0522 -1.8735
   35CHL1    C2 2563   4.166   5.046   7.239  0.4490 -0.4506 -0.0471
   35CHL1   H2A 2564   4.222   4.953   7.213  0.3066 -0.4611 -0.3253
   35CHL1   H2B 2565   4.229   5.130   7.204 -1.8149  1.6108  0.6056
   35CHL1   C20 2566   4.054   5.390   8.095  0.2910 -0.0852  0.1560
   35CHL1   H20 2567   4.138   5.445   8.047  0.9289 -1.3103 -0.1771
   35CHL1   C21 2568   4.110   5.256   8.166 -0.2142 -0.3189  0.1652
   35CHL1  H21A 2569   4.156   5.191   8.088 -1.9569  0.3271 -1.4794
   35CHL1  H21B 2570   4.019   5.211   8.212 -1.4813 -0.1783 -2.0700
   35CHL1  H21C 2571   4.193   5.278   8.237  2.8699 -1.2658 -2.8242
   35CHL1   C22 2572   3.978   5.486   8.190 -0.4544  0.4214 -0.0400
   35CHL1  H22A 2573   3.960   5.584   8.140 -1.6934  0.7575  1.0141
   35CHL1  H22B 2574   3.885   5.435   8.222  1.0331 -0.8977  2.4223
   35CHL1   C23 2575   4.061   5.529   8.309 -0.4013  0.5812  0.8070
   35CHL1  H23A 2576   4.122   5.447   8.351  0.9702  0.8611 -0.5619
   35CHL1  H23B 2577   4.135   5.610   8.293 -0.0331  0.2271  0.7110
   35CHL1   C24 2578   3.972   5.578   8.424 -0.0052  0.5776 -0.2201
   35CHL1  H24A 2579   3.898   5.497   8.445  2.7421 -2.2672 -0.8639
   35CHL1  H24B 2580   4.038   5.597   8.511  0.6851 -0.7520 -0.4283
   35CHL1   C25 2581   3.897   5.702   8.386 -0.0102 -0.4129  0.1363
   35CHL1   H25 2582   3.865   5.692   8.280  2.1343 -4.5767 -0.3355
   35CHL1   C26 2583   3.772   5.714   8.469  0.2793  0.5566  0.4881
   35CHL1  H26A 2584   3.791   5.718   8.579  0.9122 -0.3353  0.4138
   35CHL1  H26B 2585   3.730   5.814   8.444 -0.9540  0.0528  0.4555
   35CHL1  H26C 2586   3.700   5.635   8.437  1.5483 -0.6416  0.5197
   35CHL1   C27 2587   3.980   5.836   8.403  0.3303 -0.1954 -0.0593
   35CHL1  H27A 2588   3.910   5.914   8.365 -0.6598 -0.5491  0.9573
   35CHL1  H27B 2589   4.078   5.828   8.351  1.0103  1.7114  0.8180
   35CHL1  H27C 2590   3.997   5.840   8.513  0.1712 -2.5998  0.0921
   36CHL1    C3 2591   2.049   3.878   7.154 -0.0605  0.5380 -0.6925
   36CHL1    H3 2592   1.959   3.940   7.175 -0.0330 -0.2616  2.2429
   36CHL1    O3 2593   2.101   3.917   7.027 -0.3574 -0.1008 -0.2514
   36CHL1   H3' 2594   2.178   3.863   7.005 -1.7585 -2.3790  0.0759
   36CHL1    C4 2595   2.162   3.906   7.249 -0.2659 -0.1526  0.5193
   36CHL1   H4A 2596   2.248   3.845   7.215 -0.9538 -1.1738  0.5331
   36CHL1   H4B 2597   2.171   4.016   7.251 -1.6437 -0.0292  1.8823
   36CHL1    C5 2598   2.118   3.853   7.384  0.0341 -0.3433 -0.0921
   36CHL1    C6 2599   2.114   3.945   7.489  0.7762 -0.1315  0.9617
   36CHL1    H6 2600   2.127   4.051   7.462  0.9480 -0.5136 -0.5228
   36CHL1    C7 2601   2.078   3.908   7.628 -0.2177  0.5823  0.1807
   36CHL1   H7A 2602   2.154   3.951   7.696  0.5926 -1.2148  0.4604
   36CHL1   H7B 2603   1.983   3.963   7.648 -0.9749  0.6395 -3.0436
   36CHL1    C8 2604   2.062   3.764   7.661  1.0832  0.8068 -0.2650
   36CHL1    H8 2605   2.165   3.732   7.686  1.6059  0.7375 -2.3561
   36CHL1   C14 2606   1.971   3.736   7.783 -0.1502  0.0538  1.6410
   36CHL1   H14 2607   1.873   3.774   7.748  1.4446  1.6809 -1.4706
   36CHL1   C15 2608   2.008   3.821   7.902  0.1351  0.4382 -0.6854
   36CHL1  H15A 2609   2.114   3.854   7.909 -0.1430  1.2262 -0.0200
   36CHL1  H15B 2610   1.948   3.914   7.906  2.1653  1.7726  1.7319
   36CHL1   C16 2611   1.954   3.739   8.018  0.2205 -0.5733 -0.2945
   36CHL1  H16A 2612   2.027   3.707   8.095 -0.5230  0.8113  1.0407
   36CHL1  H16B 2613   1.880   3.802   8.073  0.0398 -1.9372  1.0638
   36CHL1   C17 2614   1.893   3.611   7.953  0.0906 -0.7679 -0.4363
   36CHL1   H17 2615   1.787   3.629   7.926 -0.4772 -1.6659  1.0714
   36CHL1   C13 2616   1.969   3.592   7.820 -0.6317  0.1333  1.2733
   36CHL1   C18 2617   2.116   3.545   7.859 -0.8116  0.4056 -0.1799
   36CHL1  H18A 2618   2.110   3.436   7.880 -1.1691  0.3109 -0.7517
   36CHL1  H18B 2619   2.186   3.548   7.772  0.5440 -1.5488  0.7639
   36CHL1  H18C 2620   2.152   3.599   7.949 -0.0184  1.4504 -1.0876
   36CHL1   C12 2621   1.908   3.504   7.704  0.0239 -0.3625 -0.2560
   36CHL1  H12A 2622   1.908   3.399   7.738 -2.8865 -0.4064 -0.1332
   36CHL1  H12B 2623   1.801   3.531   7.688 -0.3406 -0.5489  1.6899
   36CHL1   C11 2624   1.983   3.535   7.574  0.0118  0.3005 -0.1968
   36CHL1  H11A 2625   2.079   3.480   7.585 -1.4432 -2.3918  0.0589
   36CHL1  H11B 2626   1.931   3.472   7.498 -0.7705 -0.0158  0.5757
   36CHL1    C9 2627   2.008   3.689   7.542  0.1038  0.2987  0.3435
   36CHL1    H9 2628   1.906   3.733   7.528  0.1523  0.1789 -0.3979
   36CHL1   C10 2629   2.071   3.704   7.407  0.1276  0.7709  0.8684
   36CHL1   C19 2630   2.196   3.617   7.392  0.2512 -0.1373  0.3233
   36CHL1  H19A 2631   2.175   3.508   7.385  0.4527 -0.2436  1.2340
   36CHL1  H19B 2632   2.267   3.651   7.314  1.3037  3.8770  2.7113
   36CHL1  H19C 2633   2.254   3.627   7.486 -1.6186  1.0108  1.4099
   36CHL1    C1 2634   1.959   3.675   7.298  0.2462 -1.0577  0.3222
   36CHL1   H1A 2635   1.926   3.569   7.295 -0.7579 -0.7613  0.5295
   36CHL1   H1B 2636   1.868   3.727   7.334  0.3122 -1.0707  0.5108
   36CHL1    C2 2637   2.006   3.722   7.155  0.9781  0.1449  0.0182
   36CHL1   H2A 2638   1.925   3.700   7.082  0.5639 -1.0201  0.7880
   36CHL1   H2B 2639   2.094   3.667   7.118 -0.3005 -0.5052 -2.2749
   36CHL1   C20 2640   1.883   3.488   8.051 -0.4413 -0.4360 -0.2191
   36CHL1   H20 2641   1.987   3.451   8.060 -0.7413 -1.1983  0.2283
   36CHL1   C21 2642   1.798   3.374   7.992  0.3149 -0.4501 -0.6217
   36CHL1  H21A 2643   1.851   3.322   7.909 -0.0768 -0.3448 -0.9409
   36CHL1  H21B 2644   1.695   3.413   7.975 -0.4731 -1.0106  2.2539
   36CHL1  H21C 2645   1.792   3.291   8.065  0.3890  0.0460 -0.0406
   36CHL1   C22 2646   1.822   3.519   8.189  0.4180  0.5989  0.5026
   36CHL1  H22A 2647   1.878   3.604   8.233  1.9325 -0.0929  0.0047
   36CHL1  H22B 2648   1.718   3.554   8.178  0.7202  0.9492 -1.6587
   36CHL1   C23 2649   1.836   3.403   8.283 -0.0482  0.0199 -1.3649
   36CHL1  H23A 2650   1.797   3.309   8.240  1.2054 -0.8793 -0.6237
   36CHL1  H23B 2651   1.942   3.383   8.310 -0.5597  0.9540  1.7550
   36CHL1   C24 2652   1.759   3.430   8.411  0.2880 -0.3280  0.0638
   36CHL1  H24A 2653   1.793   3.522   8.462 -1.3118  1.0672 -1.2496
   36CHL1  H24B 2654   1.656   3.464   8.386 -0.3423 -0.4453  2.3027
   36CHL1   C25 2655   1.730   3.307   8.503 -0.2580 -0.5890 -0.3542
   36CHL1   H25 2656   1.664   3.230   8.457 -1.6497 -1.3670  2.6368
   36CHL1   C26 2657   1.869   3.254   8.541 -0.1577  0.1565  0.1593
   36CHL1  H26A 2658   1.933   3.337   8.577 -0.3009  0.7978 -1.0138
   36CHL1  H26B 2659   1.857   3.188   8.630 -0.5368  2.7107  2.1291
   36CHL1  H26C 2660   1.909   3.197   8.455 -3.0044 -4.8370  1.6832
   36CHL1   C27 2661   1.650   3.356   8.626 -0.3895  0.1062  0.6561
   36CHL1  H27A 2662   1.701   3.439   8.679 -1.1387  1.4106 -0.5834
   36CHL1  H27B 2663   1.553   3.402   8.597 -0.6152 -0.3206  0.7184
   36CHL1  H27C 2664   1.630   3.270   8.695 -0.7671  0.1006  0.5442
   37CHL1    C3 2665   0.962   0.265   7.069  0.0744  0.1051 -0.7823
   37CHL1    H3 2666   0.869   0.220   7.111 -0.5798  1.1783 -1.0350
   37CHL1    O3 2667   0.976   0.227   6.934 -0.4163  0.0974 -0.3900
   37CHL1   H3' 2668   0.988   0.303   6.876  0.9111  1.7005  1.8095
   37CHL1    C4 2669   0.942   0.417   7.070 -0.3087 -0.0492 -0.4552
   37CHL1   H4A 2670   1.041   0.456   7.036 -0.3965 -0.5130 -1.2505
   37CHL1   H4B 2671   0.858   0.446   7.005 -0.3278 -0.5139 -0.6375
   37CHL1    C5 2672   0.926   0.464   7.214 -1.0211 -0.5106 -0.0694
   37CHL1    C6 2673   0.819   0.548   7.253 -1.2247  0.4133  0.0721
   37CHL1    H6 2674   0.744   0.565   7.174 -0.0094 -0.1673 -1.2641
   37CHL1    C7 2675   0.788   0.602   7.389  0.7338  0.3404 -0.0800
   37CHL1   H7A 2676   0.764   0.709   7.375  0.7962  0.2770 -0.7049
   37CHL1   H7B 2677   0.701   0.548   7.432  0.3640  1.2552  0.3205
   37CHL1    C8 2678   0.914   0.582   7.475  0.2959  0.4196  0.6458
   37CHL1    H8 2679   1.000   0.652   7.464  1.8074 -1.0920  2.1512
   37CHL1   C14 2680   0.873   0.614   7.621  0.0509 -0.5805 -0.3935
   37CHL1   H14 2681   0.786   0.549   7.645 -1.5346  1.5397 -0.1469
   37CHL1   C15 2682   0.813   0.755   7.656  0.0021 -0.1551  0.2031
   37CHL1  H15A 2683   0.872   0.831   7.602  1.5833 -1.0477  0.6067
   37CHL1  H15B 2684   0.707   0.749   7.623  0.8713  0.2650 -3.0108
   37CHL1   C16 2685   0.823   0.773   7.804 -0.1676 -0.3361 -0.4912
   37CHL1  H16A 2686   0.878   0.863   7.837  0.1447  0.1245 -2.1501
   37CHL1  H16B 2687   0.730   0.757   7.863 -0.1637  0.3067 -0.3119
   37CHL1   C17 2688   0.903   0.647   7.855  0.3473  1.0045  0.6528
   37CHL1   H17 2689   0.833   0.561   7.867  1.3343  0.3073  1.6340
   37CHL1   C13 2690   0.981   0.597   7.725  0.3449  0.8422 -0.6222
   37CHL1   C18 2691   1.101   0.693   7.704  0.5388  0.2646 -0.4146
   37CHL1  H18A 2692   1.181   0.673   7.779  1.8153 -4.1865 -2.6150
   37CHL1  H18B 2693   1.147   0.691   7.603 -0.1455  0.1697 -0.7275
   37CHL1  H18C 2694   1.062   0.796   7.717  1.0287  0.2108  1.8253
   37CHL1   C12 2695   1.023   0.451   7.725  0.2424  0.4632  0.1048
   37CHL1  H12A 2696   1.107   0.441   7.798  0.8006 -1.8841 -0.7722
   37CHL1  H12B 2697   0.935   0.389   7.751  0.0071  1.1881  1.0832
   37CHL1   C11 2698   1.075   0.415   7.584 -0.3343  0.8053  0.2086
   37CHL1  H11A 2699   1.173   0.467   7.577 -0.9246  1.7589 -1.6002
   37CHL1  H11B 2700   1.100   0.307   7.590  2.3618  1.3440 -0.2498
   37CHL1    C9 2701   0.979   0.447   7.466 -0.6016  0.0152 -1.0590
   37CHL1    H9 2702   0.893   0.382   7.490 -0.2542 -0.0437  0.1168
   37CHL1   C10 2703   1.026   0.413   7.322  0.0454  0.0886  0.0561
   37CHL1   C19 2704   1.159   0.481   7.299 -0.0905  0.0294 -0.3793
   37CHL1  H19A 2705   1.197   0.459   7.197  0.2956 -0.4405 -0.1411
   37CHL1  H19B 2706   1.162   0.590   7.321 -1.5218 -0.7211  4.7878
   37CHL1  H19C 2707   1.239   0.434   7.360 -0.0938 -0.4427 -0.7355
   37CHL1    C1 2708   1.050   0.258   7.304 -0.2060 -0.3382 -0.2656
   37CHL1   H1A 2709   1.131   0.222   7.370  0.6042 -0.7833 -1.4516
   37CHL1   H1B 2710   0.957   0.201   7.324  0.1086 -0.6261  0.4005
   37CHL1    C2 2711   1.077   0.221   7.157 -0.0682 -0.5282 -0.0530
   37CHL1   H2A 2712   1.084   0.110   7.149 -0.4700 -0.4403 -2.4175
   37CHL1   H2B 2713   1.171   0.268   7.121  1.0568 -0.7511  2.4154
   37CHL1   C20 2714   0.971   0.660   7.989  0.2015  0.2818 -0.2381
   37CHL1   H20 2715   1.042   0.574   7.992  1.4987  1.3534  0.3367
   37CHL1   C21 2716   0.859   0.645   8.089 -0.0035  0.2261 -0.3179
   37CHL1  H21A 2717   0.795   0.736   8.097 -0.6950 -0.3658  1.4516
   37CHL1  H21B 2718   0.891   0.619   8.193 -0.1738 -0.2699 -0.3864
   37CHL1  H21C 2719   0.797   0.557   8.063  1.3445 -0.9700  0.3950
   37CHL1   C22 2720   1.054   0.791   8.019 -0.0562  0.1801 -0.5494
   37CHL1  H22A 2721   1.117   0.816   7.931 -0.5398  3.3728 -0.0883
   37CHL1  H22B 2722   0.967   0.859   8.032 -1.1221 -1.5630  2.4535
   37CHL1   C23 2723   1.155   0.800   8.134  0.7344  0.2254  1.0338
   37CHL1  H23A 2724   1.108   0.771   8.231 -2.3723 -0.1980 -0.4496
   37CHL1  H23B 2725   1.232   0.722   8.114  0.2191  0.0303 -0.2635
   37CHL1   C24 2726   1.220   0.940   8.150  0.1215  0.2794  0.5077
   37CHL1  H24A 2727   1.286   0.955   8.062  0.5568 -0.5219  0.6924
   37CHL1  H24B 2728   1.140   1.017   8.149  0.4473  0.6406  1.3633
   37CHL1   C25 2729   1.308   0.970   8.274  0.3669  0.0751  0.6480
   37CHL1   H25 2730   1.396   0.902   8.279  0.3213 -0.2942 -2.1107
   37CHL1   C26 2731   1.373   1.110   8.272 -0.1194 -0.1617 -0.4735
   37CHL1  H26A 2732   1.433   1.111   8.179 -0.5147 -1.1840 -0.7528
   37CHL1  H26B 2733   1.290   1.184   8.264 -0.8866 -0.4834  2.8480
   37CHL1  H26C 2734   1.434   1.134   8.362  0.5092  0.5470 -1.0798
   37CHL1   C27 2735   1.230   0.954   8.408  0.3063 -0.3812 -0.0502
   37CHL1  H27A 2736   1.205   0.846   8.419  1.0772 -0.5366  0.3218
   37CHL1  H27B 2737   1.271   1.008   8.496 -3.1322 -0.3016  1.6459
   37CHL1  H27C 2738   1.136   1.011   8.399  0.0224 -0.7993  0.2598
   38CHL1    C3 2739   3.824   1.780   6.782  0.1325 -0.0588 -0.1703
   38CHL1    H3 2740   3.931   1.766   6.808  0.3541 -1.4120 -1.6676
   38CHL1    O3 2741   3.789   1.770   6.642 -0.8872 -0.0919 -0.0958
   38CHL1   H3' 2742   3.797   1.677   6.620 -0.3700  0.3339 -1.9170
   38CHL1    C4 2743   3.728   1.695   6.867  0.0894 -0.2240 -0.2748
   38CHL1   H4A 2744   3.622   1.715   6.840  0.1506  0.1292 -0.2520
   38CHL1   H4B 2745   3.759   1.591   6.843 -2.5644 -1.4872  1.3660
   38CHL1    C5 2746   3.752   1.724   7.022  0.2874 -0.0738 -0.1035
   38CHL1    C6 2747   3.776   1.615   7.098  0.3055  0.2687  0.5755
   38CHL1    H6 2748   3.782   1.517   7.049 -1.1273  0.6249 -0.3406
   38CHL1    C7 2749   3.804   1.623   7.248  0.6624  0.3493  0.6376
   38CHL1   H7A 2750   3.739   1.546   7.297  0.0392  0.1023 -0.5402
   38CHL1   H7B 2751   3.905   1.594   7.282  0.1018 -0.5047  1.6766
   38CHL1    C8 2752   3.772   1.763   7.312 -0.0932 -0.2056 -0.0590
   38CHL1    H8 2753   3.661   1.763   7.321 -0.1261  2.7929  0.5058
   38CHL1   C14 2754   3.834   1.783   7.448 -0.0140  0.1659  0.0892
   38CHL1   H14 2755   3.943   1.795   7.430  0.0161 -2.5607 -2.1272
   38CHL1   C15 2756   3.822   1.668   7.551  0.2534 -0.0242 -0.2063
   38CHL1  H15A 2757   3.719   1.626   7.540  0.5223 -0.9468  0.6454
   38CHL1  H15B 2758   3.890   1.583   7.529  1.9389  1.9641 -3.4998
   38CHL1   C16 2759   3.854   1.738   7.685 -0.3547  0.8813  0.1230
   38CHL1  H16A 2760   3.774   1.719   7.760 -0.6296  2.9520  0.4098
   38CHL1  H16B 2761   3.951   1.692   7.713 -1.2586 -0.2839  1.4495
   38CHL1   C17 2762   3.857   1.886   7.653 -0.6834  0.6169 -0.1730
   38CHL1   H17 2763   3.964   1.895   7.624 -0.0523 -1.6368  1.1435
   38CHL1   C13 2764   3.785   1.909   7.520  0.0768  0.2410 -0.1668
   38CHL1   C18 2765   3.636   1.889   7.541  0.0451  0.1061 -0.0788
   38CHL1  H18A 2766   3.579   1.893   7.446 -0.8647  0.0668  0.4564
   38CHL1  H18B 2767   3.606   1.804   7.606  2.2768 -1.1483 -0.5992
   38CHL1  H18C 2768   3.596   1.978   7.595 -0.6706 -0.2414 -0.0168
   38CHL1   C12 2769   3.834   2.024   7.432  0.1052 -0.4833  0.7711
   38CHL1  H12A 2770   3.800   2.122   7.470 -2.5836 -1.2683  0.5704
   38CHL1  H12B 2771   3.944   2.032   7.445  0.0346  0.6769  0.7594
   38CHL1   C11 2772   3.788   2.015   7.288  1.2069 -0.4833  0.4952
   38CHL1  H11A 2773   3.682   2.047   7.293  1.3072 -0.2914  1.8269
   38CHL1  H11B 2774   3.840   2.095   7.231 -1.0203  1.4921  1.0654
   38CHL1    C9 2775   3.811   1.877   7.218 -0.7011  0.3948  0.1719
   38CHL1    H9 2776   3.920   1.867   7.203 -1.1194 -5.1636 -1.4477
   38CHL1   C10 2777   3.750   1.870   7.070  0.4645  0.6326 -0.3301
   38CHL1   C19 2778   3.600   1.908   7.068  0.4495  0.0372  0.1504
   38CHL1  H19A 2779   3.583   2.008   7.113 -0.9488 -0.2245  0.2740
   38CHL1  H19B 2780   3.561   1.915   6.964 -1.8432  0.8390  0.9927
   38CHL1  H19C 2781   3.539   1.842   7.134  0.9996 -2.0147 -1.3031
   38CHL1    C1 2782   3.836   1.950   6.976  0.3092 -0.2051  0.5296
   38CHL1   H1A 2783   3.812   2.057   6.996 -3.7875 -0.7816 -0.3098
   38CHL1   H1B 2784   3.943   1.924   6.990  0.6560  0.1558 -1.1760
   38CHL1    C2 2785   3.805   1.928   6.822  0.1328 -0.5201 -0.4786
   38CHL1   H2A 2786   3.873   1.991   6.762  0.9026 -0.4632  0.4369
   38CHL1   H2B 2787   3.694   1.938   6.818 -0.0312 -1.8859 -0.1820
   38CHL1   C20 2788   3.811   1.971   7.768  0.1675  0.0923  0.2425
   38CHL1   H20 2789   3.705   1.943   7.785 -0.3019 -0.4536 -2.9565
   38CHL1   C21 2790   3.808   2.118   7.729  0.0352  0.7846 -0.7426
   38CHL1  H21A 2791   3.908   2.146   7.689 -0.4280  1.5019 -1.4197
   38CHL1  H21B 2792   3.788   2.179   7.820  0.8657 -1.0052  0.7116
   38CHL1  H21C 2793   3.728   2.147   7.657  0.6371  3.6821 -0.3457
   38CHL1   C22 2794   3.885   1.950   7.903  0.0636 -0.6404  0.2317
   38CHL1  H22A 2795   3.895   1.842   7.927 -1.3459 -0.5436  1.3986
   38CHL1  H22B 2796   3.979   2.008   7.896 -0.2060 -0.3218 -1.2039
   38CHL1   C23 2797   3.805   2.002   8.022  0.1605 -0.0566  0.2263
   38CHL1  H23A 2798   3.813   2.112   8.025 -0.5273 -0.0122  0.6182
   38CHL1  H23B 2799   3.696   1.984   8.013 -0.1410  1.6737  0.1695
   38CHL1   C24 2800   3.871   1.969   8.152 -0.3252  0.3698 -0.1467
   38CHL1  H24A 2801   3.885   1.859   8.147  1.7029  0.6185 -0.8453
   38CHL1  H24B 2802   3.971   2.017   8.161  0.3617 -1.3312  2.1732
   38CHL1   C25 2803   3.804   2.012   8.278 -0.1491  0.3203  0.5128
   38CHL1   H25 2804   3.702   1.973   8.259 -0.4498  1.3796 -0.1361
   38CHL1   C26 2805   3.865   1.944   8.408  0.3421  0.0599 -0.1252
   38CHL1  H26A 2806   3.895   1.841   8.379  0.3686  0.7127 -2.6292
   38CHL1  H26B 2807   3.952   2.003   8.445  0.5154  0.9738 -1.8841
   38CHL1  H26C 2808   3.797   1.937   8.496 -0.4632  0.5782 -0.6940
   38CHL1   C27 2809   3.793   2.162   8.298 -0.3811 -0.1596  0.3162
   38CHL1  H27A 2810   3.734   2.223   8.225  3.2951  0.9225 -2.0154
   38CHL1  H27B 2811   3.735   2.167   8.393  0.5041 -0.3903  0.8706
   38CHL1  H27C 2812   3.890   2.213   8.313  0.6322 -0.6798 -3.4960
   39CHL1    C3 2813   3.256   5.604   6.998 -0.1497  0.1511  0.3051
   39CHL1    H3 2814   3.162   5.548   7.019 -0.6918  1.1094  0.4524
   39CHL1    O3 2815   3.259   5.628   6.861  0.2305  0.4802  0.1458
   39CHL1   H3' 2816   3.345   5.613   6.822 -0.2300 -1.5129 -0.2429
   39CHL1    C4 2817   3.263   5.732   7.082 -0.0969  0.4394  0.8006
   39CHL1   H4A 2818   3.363   5.775   7.058 -0.1927  0.5181  0.5422
   39CHL1   H4B 2819   3.188   5.803   7.040 -1.3186 -2.2419 -1.8559
   39CHL1    C5 2820   3.258   5.715   7.230 -0.5136 -0.1854 -0.3997
   39CHL1    C6 2821   3.166   5.776   7.307  0.1027  0.3527 -0.3167
   39CHL1    H6 2822   3.101   5.848   7.257  0.8646 -0.7960 -3.1957
   39CHL1    C7 2823   3.161   5.764   7.458  0.4732  0.5163 -0.0710
   39CHL1   H7A 2824   3.172   5.869   7.495 -0.2358  0.7257 -0.4320
   39CHL1   H7B 2825   3.057   5.733   7.480  0.3848  0.4323 -0.5923
   39CHL1    C8 2826   3.272   5.679   7.520 -0.8698  0.5497 -0.5491
   39CHL1    H8 2827   3.358   5.747   7.539  1.1001 -1.9926  0.1158
   39CHL1   C14 2828   3.228   5.634   7.656 -0.3487  0.1083  0.4052
   39CHL1   H14 2829   3.145   5.567   7.626 -0.2838  0.3467 -0.3131
   39CHL1   C15 2830   3.172   5.752   7.741  0.1601  0.0418  0.0049
   39CHL1  H15A 2831   3.236   5.842   7.732  0.3079 -0.1310 -0.6887
   39CHL1  H15B 2832   3.069   5.770   7.704 -1.2837  0.8801  3.8963
   39CHL1   C16 2833   3.171   5.680   7.880  0.2184 -0.0627  0.1633
   39CHL1  H16A 2834   3.226   5.749   7.947  0.0572  2.8878 -2.5193
   39CHL1  H16B 2835   3.072   5.662   7.926  0.4034  2.9109  2.0086
   39CHL1   C17 2836   3.253   5.543   7.865  0.1480  0.4850  0.3116
   39CHL1   H17 2837   3.182   5.463   7.837  0.7289  0.6261 -1.7457
   39CHL1   C13 2838   3.334   5.559   7.736 -0.3568 -0.0494  0.8512
   39CHL1   C18 2839   3.454   5.653   7.770  0.1406  0.4677 -0.2048
   39CHL1  H18A 2840   3.508   5.675   7.676  0.7515 -2.7599 -0.7253
   39CHL1  H18B 2841   3.415   5.746   7.817 -0.2423 -0.0870  0.6130
   39CHL1  H18C 2842   3.536   5.602   7.827  0.0384 -0.0743 -0.5307
   39CHL1   C12 2843   3.377   5.433   7.653  0.6552 -0.5818 -0.3930
   39CHL1  H12A 2844   3.450   5.367   7.704  0.2248  0.0659  1.1078
   39CHL1  H12B 2845   3.291   5.365   7.635 -0.3609  0.6203 -0.1794
   39CHL1   C11 2846   3.426   5.471   7.512  0.2443 -0.5027  0.3027
   39CHL1  H11A 2847   3.520   5.530   7.516  0.8755 -1.0119 -3.4895
   39CHL1  H11B 2848   3.457   5.379   7.457  3.5832  0.5714  0.1588
   39CHL1    C9 2849   3.321   5.558   7.434 -0.4125 -0.0092  0.0706
   39CHL1    H9 2850   3.230   5.496   7.418 -0.7934  0.3042  0.9317
   39CHL1   C10 2851   3.352   5.608   7.288  0.3498 -0.2294  0.3032
   39CHL1   C19 2852   3.488   5.676   7.284  0.0218 -0.3755  0.6448
   39CHL1  H19A 2853   3.526   5.704   7.184 -2.3540 -0.5314 -0.3739
   39CHL1  H19B 2854   3.489   5.769   7.345  1.3439 -0.6488  1.0776
   39CHL1  H19C 2855   3.565   5.604   7.321 -0.1216 -1.6754 -1.4343
   39CHL1    C1 2856   3.350   5.485   7.190 -0.1855 -0.3877 -0.6147
   39CHL1   H1A 2857   3.433   5.419   7.223  0.6974  0.8411 -0.3162
   39CHL1   H1B 2858   3.254   5.431   7.206 -1.2302  0.9766 -2.0098
   39CHL1    C2 2859   3.366   5.513   7.041 -0.0220 -0.1776 -0.2400
   39CHL1   H2A 2860   3.375   5.425   6.974 -1.6297  1.5739 -2.9413
   39CHL1   H2B 2861   3.456   5.574   7.017 -0.4047 -0.1549 -1.6962
   39CHL1   C20 2862   3.318   5.498   7.991  0.3866  0.4118 -0.1289
   39CHL1   H20 2863   3.384   5.580   8.026  1.0002  0.6929 -1.8919
   39CHL1   C21 2864   3.390   5.370   7.959 -0.7844  0.5426 -0.3235
   39CHL1  H21A 2865   3.338   5.301   7.889 -0.2772 -1.6750  1.3978
   39CHL1  H21B 2866   3.413   5.297   8.039 -3.1309 -0.5260 -0.5421
   39CHL1  H21C 2867   3.485   5.398   7.908 -0.7207  0.2511 -0.3630
   39CHL1   C22 2868   3.228   5.461   8.107  0.7185  0.7341 -0.9766
   39CHL1  H22A 2869   3.174   5.557   8.127  3.3552  2.0701  0.1905
   39CHL1  H22B 2870   3.163   5.377   8.075  1.7048 -0.7266  0.6911
   39CHL1   C23 2871   3.297   5.444   8.246 -0.1366  0.3541  0.1192
   39CHL1  H23A 2872   3.365   5.356   8.250  1.2409  1.3304 -0.9397
   39CHL1  H23B 2873   3.363   5.532   8.259  3.5415 -2.2334  0.5294
   39CHL1   C24 2874   3.190   5.428   8.355  0.2879 -0.1994  0.1116
   39CHL1  H24A 2875   3.098   5.488   8.336  1.6448  1.4894 -1.3885
   39CHL1  H24B 2876   3.146   5.330   8.328 -0.2312 -0.1152  0.6149
   39CHL1   C25 2877   3.232   5.436   8.504 -0.1950 -0.2202  0.3586
   39CHL1   H25 2878   3.322   5.370   8.503 -0.9465 -1.2632 -0.8139
   39CHL1   C26 2879   3.262   5.587   8.540  0.1745 -0.2021 -0.2770
   39CHL1  H26A 2880   3.327   5.642   8.468 -2.6655  2.0890 -1.3006
   39CHL1  H26B 2881   3.159   5.626   8.524 -0.3155 -1.8837 -1.4856
   39CHL1  H26C 2882   3.296   5.607   8.644 -2.3541  1.5823  0.2956
   39CHL1   C27 2883   3.124   5.382   8.598  0.4632 -0.7557 -0.5545
   39CHL1  H27A 2884   3.154   5.392   8.705  1.0035  2.9745 -0.9493
   39CHL1  H27B 2885   3.032   5.444   8.590  0.6268 -0.1476  1.5490
   39CHL1  H27C 2886   3.099   5.275   8.577  0.3733 -0.8531  0.0195
   40CHL1    C3 2887   5.957   0.691   6.817 -0.1705  0.5746  0.7411
   40CHL1    H3 2888   5.991   0.589   6.790 -2.1607  0.7430 -3.0831
   40CHL1    O3 2889   5.954   0.764   6.694 -0.1331 -0.1058  0.2057
   40CHL1   H3' 2890   5.864   0.756   6.661 -0.3461 -0.2591  0.8115
   40CHL1    C4 2891   5.805   0.698   6.868 -0.2332 -0.1665  0.2730
   40CHL1   H4A 2892   5.774   0.804   6.857  1.2415  0.2189 -0.4072
   40CHL1   H4B 2893   5.748   0.635   6.797  0.5675 -1.4307  0.7102
   40CHL1    C5 2894   5.788   0.648   7.008 -0.3878  0.8594  0.1888
   40CHL1    C6 2895   5.710   0.550   7.030  0.7084  0.4180 -0.7628
   40CHL1    H6 2896   5.644   0.510   6.951 -1.3496 -0.6796  1.4108
   40CHL1    C7 2897   5.679   0.510   7.170 -0.3294 -0.1438  0.2124
   40CHL1   H7A 2898   5.569   0.502   7.172 -0.4893  1.6447  0.4127
   40CHL1   H7B 2899   5.726   0.411   7.188 -1.3127 -0.7305 -0.3636
   40CHL1    C8 2900   5.725   0.611   7.276 -0.2398  0.1060 -0.0414
   40CHL1    H8 2901   5.666   0.704   7.264  1.0211  0.7893 -1.0333
   40CHL1   C14 2902   5.713   0.552   7.423  0.4734  0.2590  0.4029
   40CHL1   H14 2903   5.782   0.466   7.431  0.0588 -0.1378 -0.2096
   40CHL1   C15 2904   5.581   0.488   7.473 -0.1402 -1.0126  0.0679
   40CHL1  H15A 2905   5.485   0.540   7.449 -0.6272 -1.1357  1.6275
   40CHL1  H15B 2906   5.569   0.389   7.424  2.0296 -0.9094 -0.8104
   40CHL1   C16 2907   5.582   0.483   7.624 -0.0755 -0.8459  0.2340
   40CHL1  H16A 2908   5.496   0.542   7.662 -0.6278  0.4685 -2.7948
   40CHL1  H16B 2909   5.586   0.379   7.663 -0.9663 -0.3180  1.8183
   40CHL1   C17 2910   5.716   0.558   7.655  0.5640 -0.1634  0.1561
   40CHL1   H17 2911   5.785   0.470   7.651 -0.0968 -0.6640 -0.6775
   40CHL1   C13 2912   5.759   0.648   7.535  0.2778  0.9457 -0.4005
   40CHL1   C18 2913   5.681   0.783   7.531 -0.0272 -0.5725 -0.2615
   40CHL1  H18A 2914   5.726   0.843   7.449  0.2812 -0.9309 -0.3577
   40CHL1  H18B 2915   5.572   0.767   7.517 -0.8385  2.5994  1.5313
   40CHL1  H18C 2916   5.687   0.844   7.623  2.1786  0.8663 -1.2808
   40CHL1   C12 2917   5.911   0.667   7.512 -0.5809 -0.0638  0.4356
   40CHL1  H12A 2918   5.957   0.737   7.585 -2.7361  1.9315  0.0180
   40CHL1  H12B 2919   5.960   0.568   7.519 -1.3726 -0.5678 -0.7181
   40CHL1   C11 2920   5.933   0.728   7.370 -1.2255 -0.4284 -0.2724
   40CHL1  H11A 2921   5.903   0.834   7.380 -0.4835 -0.2867  0.6261
   40CHL1  H11B 2922   6.044   0.731   7.361 -0.9784  1.2099  2.3437
   40CHL1    C9 2923   5.868   0.652   7.250 -0.4535  0.8125 -0.1432
   40CHL1    H9 2924   5.927   0.557   7.248 -0.0285  1.0575  0.5356
   40CHL1   C10 2925   5.877   0.716   7.110 -0.0449 -0.0198 -0.2456
   40CHL1   C19 2926   5.841   0.867   7.121 -0.2147  0.2046 -0.1752
   40CHL1  H19A 2927   5.864   0.920   7.025 -0.0289  2.2999  0.9608
   40CHL1  H19B 2928   5.730   0.871   7.127 -0.1923  1.6347 -0.2905
   40CHL1  H19C 2929   5.890   0.924   7.203 -1.0188 -0.0477  0.4909
   40CHL1    C1 2930   6.025   0.700   7.059 -0.2730  0.1937  0.5001
   40CHL1   H1A 2931   6.094   0.756   7.126  1.7403 -0.9023 -0.5803
   40CHL1   H1B 2932   6.051   0.593   7.068 -0.2381  0.0410 -1.2357
   40CHL1    C2 2933   6.060   0.751   6.916  0.5905 -0.5753  0.0657
   40CHL1   H2A 2934   6.162   0.739   6.874 -0.1309  0.3511 -2.0925
   40CHL1   H2B 2935   6.031   0.858   6.918 -2.8265 -1.3718 -0.2609
   40CHL1   C20 2936   5.740   0.613   7.798 -0.1759 -0.3238 -0.2159
   40CHL1   H20 2937   5.703   0.718   7.803  2.6510  0.8495 -1.4992
   40CHL1   C21 2938   5.888   0.596   7.842 -0.5490  0.2475 -0.2437
   40CHL1  H21A 2939   5.915   0.490   7.861 -2.2643 -0.2459 -0.3740
   40CHL1  H21B 2940   5.915   0.651   7.935  0.7846  3.2853 -2.2500
   40CHL1  H21C 2941   5.955   0.630   7.761 -0.6683 -1.4604 -1.1097
   40CHL1   C22 2942   5.672   0.521   7.907  0.2181 -0.4663 -0.2078
   40CHL1  H22A 2943   5.564   0.513   7.883 -0.4318  2.5090  1.2903
   40CHL1  H22B 2944   5.710   0.417   7.900 -2.3445 -1.4099 -1.0270
   40CHL1   C23 2945   5.693   0.573   8.055  0.0131 -0.9240  0.1849
   40CHL1  H23A 2946   5.796   0.582   8.093 -0.4876 -0.2841  1.4398
   40CHL1  H23B 2947   5.654   0.677   8.056  0.0910 -0.8998  0.8543
   40CHL1   C24 2948   5.622   0.480   8.162 -0.4432  0.2601 -0.3998
   40CHL1  H24A 2949   5.513   0.499   8.153 -0.5407 -0.4756 -0.8448
   40CHL1  H24B 2950   5.655   0.379   8.129  1.3709  0.0266  1.8679
   40CHL1   C25 2951   5.672   0.492   8.306  0.7761  0.4260  0.6838
   40CHL1   H25 2952   5.665   0.602   8.323 -3.3713  0.6253 -1.0677
   40CHL1   C26 2953   5.576   0.430   8.411  0.6404  0.1147 -0.2566
   40CHL1  H26A 2954   5.614   0.463   8.510 -1.0960  0.2414  0.4006
   40CHL1  H26B 2955   5.468   0.455   8.413  0.7755  0.7911  2.2289
   40CHL1  H26C 2956   5.572   0.319   8.410  0.3451  0.0488 -3.7513
   40CHL1   C27 2957   5.818   0.433   8.327 -0.3190  0.5924  0.4135
   40CHL1  H27A 2958   5.839   0.437   8.436 -0.5284  3.1549  0.4364
   40CHL1  H27B 2959   5.826   0.329   8.291 -0.5481  0.2111  1.4192
   40CHL1  H27C 2960   5.889   0.493   8.267 -1.3344  1.4824  0.0664
   41CHL1    C3 2961   0.347   4.694   6.946 -0.6961  0.0023  0.4008
   41CHL1    H3 2962   0.422   4.636   7.004 -2.8750 -3.1256  0.3487
   41CHL1    O3 2963   0.344   4.630   6.820 -0.2899 -0.1027  0.2120
   41CHL1   H3' 2964   0.268   4.662   6.771  0.7412 -0.0707 -1.4605
   41CHL1    C4 2965   0.217   4.656   7.025  0.2576  0.0393  0.2313
   41CHL1   H4A 2966   0.125   4.675   6.965  0.3564 -0.7401 -0.1749
   41CHL1   H4B 2967   0.212   4.546   7.037  0.9845  0.1743  1.9441
   41CHL1    C5 2968   0.215   4.733   7.159 -0.5673  0.6299  0.4837
   41CHL1    C6 2969   0.193   4.666   7.270  0.4045 -0.0860 -0.0738
   41CHL1    H6 2970   0.172   4.558   7.274 -0.3095  0.0802  2.7069
   41CHL1    C7 2971   0.182   4.747   7.399 -0.0916  0.0830  0.4711
   41CHL1   H7A 2972   0.121   4.699   7.479  0.6479 -0.6206  0.6225
   41CHL1   H7B 2973   0.281   4.741   7.449 -1.6042 -1.1379  3.5894
   41CHL1    C8 2974   0.157   4.901   7.384 -0.1596 -0.3710 -0.4999
   41CHL1    H8 2975   0.053   4.933   7.364  0.6176  3.5885  0.8649
   41CHL1   C14 2976   0.181   4.963   7.523  0.2387  0.0019  0.6763
   41CHL1   H14 2977   0.282   4.927   7.553 -0.5924 -2.1709  1.0641
   41CHL1   C15 2978   0.090   4.920   7.645 -0.3080  0.7597  0.1031
   41CHL1  H15A 2979  -0.016   4.934   7.616  0.7531  0.1929 -5.0131
   41CHL1  H15B 2980   0.121   4.818   7.678 -0.7294 -0.0812 -1.9319
   41CHL1   C16 2981   0.110   5.027   7.753 -0.4324 -0.5848  0.2526
   41CHL1  H16A 2982   0.008   5.068   7.769  0.7155  3.3786 -1.1731
   41CHL1  H16B 2983   0.166   4.996   7.843  2.0688  0.3651 -0.8703
   41CHL1   C17 2984   0.205   5.133   7.686  0.6511 -0.0483 -0.4676
   41CHL1   H17 2985   0.306   5.087   7.698  0.1446 -1.2894 -0.8657
   41CHL1   C13 2986   0.182   5.116   7.530  0.1557  0.4030  0.3944
   41CHL1   C18 2987   0.048   5.175   7.491  0.5464  0.0870 -0.2923
   41CHL1  H18A 2988  -0.031   5.155   7.566 -0.1226 -0.9284 -1.2370
   41CHL1  H18B 2989   0.053   5.286   7.489  0.6761  0.0818 -1.7735
   41CHL1  H18C 2990   0.019   5.151   7.386  0.3651 -0.0401 -0.2154
   41CHL1   C12 2991   0.291   5.159   7.427 -0.3596  0.3790  0.1658
   41CHL1  H12A 2992   0.288   5.270   7.435  0.3784  0.3119  1.7672
   41CHL1  H12B 2993   0.386   5.113   7.463  0.0398 -1.3264 -2.7573
   41CHL1   C11 2994   0.270   5.107   7.288  0.1944 -0.2610  0.8077
   41CHL1  H11A 2995   0.183   5.162   7.246  1.5857  1.8687  0.5698
   41CHL1  H11B 2996   0.358   5.145   7.231  0.5934  2.4528  3.0355
   41CHL1    C9 2997   0.255   4.954   7.285 -0.7991 -0.1409 -0.1600
   41CHL1    H9 2998   0.353   4.917   7.321 -0.1239  1.8578  0.1575
   41CHL1   C10 2999   0.239   4.885   7.150 -0.0123  0.0532  0.8289
   41CHL1   C19 3000   0.109   4.944   7.091 -0.3533 -0.0642  0.7849
   41CHL1  H19A 3001   0.109   5.055   7.084 -0.5563 -0.0592  0.8520
   41CHL1  H19B 3002   0.106   4.907   6.986  1.6600  0.0630  0.6474
   41CHL1  H19C 3003   0.018   4.913   7.146  0.5797 -0.9956  1.8508
   41CHL1    C1 3004   0.360   4.916   7.055  0.0025  0.7152 -1.0146
   41CHL1   H1A 3005   0.363   5.026   7.044  1.1933  0.9655  1.2948
   41CHL1   H1B 3006   0.458   4.883   7.095  0.1980  0.4421 -1.6976
   41CHL1    C2 3007   0.364   4.843   6.926 -0.1854 -0.0846  0.1809
   41CHL1   H2A 3008   0.451   4.874   6.866  0.7718 -1.2509  0.9145
   41CHL1   H2B 3009   0.275   4.870   6.864  1.2293  0.0825 -1.8658
   41CHL1   C20 3010   0.217   5.271   7.756  0.9120 -0.4151  0.1346
   41CHL1   H20 3011   0.112   5.302   7.772  0.6355 -0.9722 -0.5266
   41CHL1   C21 3012   0.287   5.378   7.676  0.7865 -0.0951  0.3824
   41CHL1  H21A 3013   0.227   5.391   7.583 -1.7533  0.4045  1.9921
   41CHL1  H21B 3014   0.390   5.352   7.643  1.2034  2.5416 -0.6387
   41CHL1  H21C 3015   0.288   5.482   7.715 -1.1956 -0.4527  1.5479
   41CHL1   C22 3016   0.278   5.255   7.897 -0.5565  0.5320 -0.3237
   41CHL1  H22A 3017   0.215   5.185   7.956 -0.9213  0.5815 -0.6459
   41CHL1  H22B 3018   0.382   5.216   7.890 -0.6139  0.1133  0.9648
   41CHL1   C23 3019   0.281   5.388   7.974 -0.0921 -0.4909 -0.0555
   41CHL1  H23A 3020   0.358   5.462   7.941 -0.6100  1.9801  3.6836
   41CHL1  H23B 3021   0.183   5.436   7.956 -0.5626 -1.5618 -0.4194
   41CHL1   C24 3022   0.302   5.376   8.124 -0.7321  0.1382  0.0456
   41CHL1  H24A 3023   0.223   5.309   8.164 -1.7100  2.0098  1.3877
   41CHL1  H24B 3024   0.392   5.314   8.138  1.1406  2.1516 -2.1447
   41CHL1   C25 3025   0.310   5.513   8.191  1.3752  0.3168 -0.6035
   41CHL1   H25 3026   0.377   5.582   8.135 -1.8691  4.1582 -0.1937
   41CHL1   C26 3027   0.170   5.576   8.217 -0.2564 -0.2231  0.4817
   41CHL1  H26A 3028   0.180   5.686   8.228  0.2378  0.1627 -2.9686
   41CHL1  H26B 3029   0.099   5.565   8.133  0.0382  1.4493 -0.0257
   41CHL1  H26C 3030   0.125   5.538   8.312  0.6580 -0.6994  0.7383
   41CHL1   C27 3031   0.381   5.493   8.335 -0.0217  0.3439 -0.4023
   41CHL1  H27A 3032   0.397   5.595   8.376 -0.7262  0.2168  0.2228
   41CHL1  H27B 3033   0.308   5.438   8.398  2.4428 -1.5341  0.9668
   41CHL1  H27C 3034   0.466   5.425   8.316 -1.9991 -1.9468 -1.5460
   42CHL1    C3 3035   1.307   3.746   6.893 -0.3107 -0.4223 -0.1604
   42CHL1    H3 3036   1.353   3.846   6.905  1.5154 -1.3353  0.8870
   42CHL1    O3 3037   1.298   3.729   6.754  0.0352  0.5551 -0.0835
   42CHL1   H3' 3038   1.259   3.645   6.732 -1.7664  1.6080 -1.1306
   42CHL1    C4 3039   1.400   3.643   6.946  0.6969 -0.3360  0.0968
   42CHL1   H4A 3040   1.357   3.546   6.916 -0.2028  0.3354 -0.8490
   42CHL1   H4B 3041   1.493   3.661   6.888  0.7031 -0.5721  0.0353
   42CHL1    C5 3042   1.410   3.650   7.098 -1.1168 -1.0055  0.2314
   42CHL1    C6 3043   1.527   3.663   7.158 -0.9077  0.3654  0.1081
   42CHL1    H6 3044   1.614   3.659   7.091 -0.6408 -0.6271  0.4910
   42CHL1    C7 3045   1.541   3.658   7.309  0.4056 -0.1248 -0.6243
   42CHL1   H7A 3046   1.621   3.589   7.341  0.5004  0.0508 -0.4776
   42CHL1   H7B 3047   1.564   3.765   7.330 -0.9640 -0.3889  2.9148
   42CHL1    C8 3048   1.413   3.632   7.388  0.4341  0.1554  0.0353
   42CHL1    H8 3049   1.402   3.522   7.374  0.1451  0.3918 -2.0473
   42CHL1   C14 3050   1.423   3.663   7.534  0.1108 -0.0411 -0.0524
   42CHL1   H14 3051   1.438   3.773   7.548 -2.9369  0.6354 -1.3727
   42CHL1   C15 3052   1.534   3.596   7.611 -0.0658 -0.2761  0.2065
   42CHL1  H15A 3053   1.542   3.485   7.602 -2.5919 -0.5182  0.1711
   42CHL1  H15B 3054   1.629   3.650   7.595 -0.6076  0.2450 -1.3986
   42CHL1   C16 3055   1.498   3.620   7.758 -0.5153 -0.1300 -0.4141
   42CHL1  H16A 3056   1.509   3.521   7.808  1.8662  0.7451  0.9488
   42CHL1  H16B 3057   1.570   3.696   7.794  1.0241 -1.3681 -0.7556
   42CHL1   C17 3058   1.348   3.660   7.763 -0.5030  0.4152  0.6024
   42CHL1   H17 3059   1.351   3.771   7.771 -0.4145  0.3544  1.4354
   42CHL1   C13 3060   1.297   3.635   7.619 -0.3372 -0.0768 -0.0535
   42CHL1   C18 3061   1.255   3.489   7.614 -0.8931  0.1811 -0.9726
   42CHL1  H18A 3062   1.245   3.448   7.511  2.2416  0.9317 -1.6821
   42CHL1  H18B 3063   1.329   3.436   7.677 -2.4736 -0.8732  0.0851
   42CHL1  H18C 3064   1.161   3.474   7.672  0.8119 -2.2234  1.4026
   42CHL1   C12 3065   1.188   3.727   7.559 -0.5785 -0.0256  0.6797
   42CHL1  H12A 3066   1.087   3.713   7.602 -1.9840 -2.4678 -2.9039
   42CHL1  H12B 3067   1.221   3.831   7.579  1.3412 -0.7249  1.4016
   42CHL1   C11 3068   1.171   3.706   7.405  0.2203 -0.2022 -0.3299
   42CHL1  H11A 3069   1.125   3.605   7.397  0.2175 -0.2294  0.0092
   42CHL1  H11B 3070   1.095   3.779   7.369 -1.6602 -1.9231 -0.0793
   42CHL1    C9 3071   1.297   3.710   7.318  1.3842  0.1587 -0.0139
   42CHL1    H9 3072   1.329   3.817   7.316 -0.0628  0.6089 -1.8208
   42CHL1   C10 3073   1.275   3.659   7.170  0.2105  0.1201 -0.2032
   42CHL1   C19 3074   1.218   3.514   7.156  0.9403  0.2221 -0.5889
   42CHL1  H19A 3075   1.115   3.504   7.196  1.8659 -1.3986  1.6412
   42CHL1  H19B 3076   1.196   3.487   7.050 -2.7460 -1.2504  0.4096
   42CHL1  H19C 3077   1.290   3.440   7.198  0.3465 -0.5919 -0.9724
   42CHL1    C1 3078   1.187   3.767   7.106 -0.2664 -0.1109 -0.1790
   42CHL1   H1A 3079   1.085   3.753   7.149  0.2572  0.5909  1.3698
   42CHL1   H1B 3080   1.231   3.864   7.138  1.0136 -0.4249 -0.9376
   42CHL1    C2 3081   1.174   3.761   6.957  0.2005  0.4810 -0.1929
   42CHL1   H2A 3082   1.125   3.856   6.927  1.0114  0.2882 -2.2668
   42CHL1   H2B 3083   1.111   3.676   6.926  0.4248  0.3463 -0.2848
   42CHL1   C20 3084   1.264   3.624   7.882 -0.6792 -0.1635 -0.7652
   42CHL1   H20 3085   1.275   3.514   7.900  0.6612  0.2536  1.2324
   42CHL1   C21 3086   1.117   3.654   7.882 -0.1076  0.5214 -0.3552
   42CHL1  H21A 3087   1.064   3.588   7.811 -0.1263  0.5072 -0.3277
   42CHL1  H21B 3088   1.085   3.755   7.847 -0.2460  0.2036 -1.1824
   42CHL1  H21C 3089   1.053   3.631   7.969 -2.3222 -0.7199 -2.2169
   42CHL1   C22 3090   1.316   3.687   8.019 -0.6291 -0.5929 -0.6819
   42CHL1  H22A 3091   1.422   3.655   8.013 -0.3954  0.1541 -0.6166
   42CHL1  H22B 3092   1.312   3.798   8.008  1.1899 -0.5228 -0.8768
   42CHL1   C23 3093   1.261   3.645   8.158  0.5764  0.3773 -0.6301
   42CHL1  H23A 3094   1.159   3.682   8.185  0.8766 -0.0046  1.1438
   42CHL1  H23B 3095   1.240   3.536   8.150  0.2171  0.4896 -1.3015
   42CHL1   C24 3096   1.352   3.686   8.276 -0.2185  0.5177  0.3073
   42CHL1  H24A 3097   1.457   3.659   8.248 -0.5379  0.7476 -1.1928
   42CHL1  H24B 3098   1.362   3.795   8.295  2.4493  0.3457  0.3304
   42CHL1   C25 3099   1.312   3.623   8.411  0.4595  0.6157  0.2423
   42CHL1   H25 3100   1.203   3.642   8.421  0.5391  1.5582 -0.5356
   42CHL1   C26 3101   1.312   3.473   8.406 -0.4897  0.3346  0.0721
   42CHL1  H26A 3102   1.415   3.440   8.380 -0.8507  0.0725 -1.1133
   42CHL1  H26B 3103   1.276   3.429   8.501  0.7050  0.4896  0.6075
   42CHL1  H26C 3104   1.244   3.433   8.327 -0.2185 -0.9136  0.4403
   42CHL1   C27 3105   1.379   3.682   8.529  0.1407 -0.3263  0.4033
   42CHL1  H27A 3106   1.354   3.790   8.538 -0.5654 -0.5600  1.6121
   42CHL1  H27B 3107   1.489   3.674   8.521  0.0645 -1.0035 -0.1073
   42CHL1  H27C 3108   1.338   3.631   8.620  1.2764 -3.7314 -0.8462
   43CHL1    C3 3109   0.947   2.056   7.012 -0.3306  0.2415 -0.1145
   43CHL1    H3 3110   1.013   1.969   7.033  2.1457  1.9915 -0.2918
   43CHL1    O3 3111   0.929   2.053   6.871 -0.3685  0.1806 -0.2169
   43CHL1   H3' 3112   0.909   2.145   6.854 -1.0680  0.1660  0.4935
   43CHL1    C4 3113   0.804   2.052   7.071  0.2316 -0.6724  0.1874
   43CHL1   H4A 3114   0.739   2.128   7.023  1.2438 -0.3408 -0.6862
   43CHL1   H4B 3115   0.758   1.954   7.043 -2.1856  0.9918 -2.1050
   43CHL1    C5 3116   0.801   2.060   7.216 -0.2328 -0.7454 -0.0321
   43CHL1    C6 3117   0.748   1.956   7.291  0.0052  0.3479 -0.0313
   43CHL1    H6 3118   0.706   1.862   7.252  0.8505  0.0371 -0.2320
   43CHL1    C7 3119   0.748   1.961   7.445  0.1403  0.2628  0.1639
   43CHL1   H7A 3120   0.652   1.915   7.476 -0.3956  1.4893  0.4130
   43CHL1   H7B 3121   0.816   1.884   7.486 -1.1541 -1.5125 -0.8689
   43CHL1    C8 3122   0.787   2.103   7.503 -0.4470 -0.3447 -0.4813
   43CHL1    H8 3123   0.698   2.169   7.495  1.2409  2.0668 -0.4649
   43CHL1   C14 3124   0.826   2.083   7.642  0.1207 -0.6587 -0.8893
   43CHL1   H14 3125   0.911   2.012   7.648 -1.7039 -3.1316 -2.2633
   43CHL1   C15 3126   0.712   2.030   7.738 -0.1747 -0.5543 -0.2540
   43CHL1  H15A 3127   0.623   2.089   7.705  1.0442  1.0830 -0.7328
   43CHL1  H15B 3128   0.691   1.922   7.722  0.0543 -0.5923 -0.3059
   43CHL1   C16 3129   0.747   2.062   7.875  0.4004  0.3763 -0.2317
   43CHL1  H16A 3130   0.663   2.094   7.941  0.9315 -1.2763  1.3148
   43CHL1  H16B 3131   0.782   1.973   7.932  0.3413  0.4098 -0.1423
   43CHL1   C17 3132   0.862   2.167   7.866  0.9672  0.6597  0.6917
   43CHL1   H17 3133   0.949   2.099   7.879  0.2976 -0.5399 -0.8828
   43CHL1   C13 3134   0.874   2.211   7.714  0.9350 -0.0249  0.8153
   43CHL1   C18 3135   0.766   2.325   7.699  0.5652  0.7960 -0.3888
   43CHL1  H18A 3136   0.793   2.417   7.755 -0.1126  0.2905  0.8195
   43CHL1  H18B 3137   0.759   2.358   7.593 -1.1216  1.4979 -0.0942
   43CHL1  H18C 3138   0.672   2.285   7.742  1.9491  0.3293  2.4696
   43CHL1   C12 3139   1.014   2.252   7.660  0.1298  0.2774  0.7097
   43CHL1  H12A 3140   1.071   2.338   7.702  4.1437 -0.6259 -2.2531
   43CHL1  H12B 3141   1.082   2.165   7.669 -3.0377 -2.4181  0.5790
   43CHL1   C11 3142   0.992   2.266   7.506 -0.1417  0.2493  0.0673
   43CHL1  H11A 3143   0.946   2.367   7.494  0.5959  0.6718  0.6876
   43CHL1  H11B 3144   1.092   2.270   7.457 -0.1705  0.7046  0.0389
   43CHL1    C9 3145   0.910   2.156   7.431 -0.3546  0.0892 -0.2472
   43CHL1    H9 3146   0.980   2.069   7.428  3.0246  2.6207 -0.5125
   43CHL1   C10 3147   0.887   2.174   7.279  0.4238  0.1538  0.4110
   43CHL1   C19 3148   0.801   2.301   7.259 -0.0123 -0.0002  0.3440
   43CHL1  H19A 3149   0.791   2.321   7.150  1.7363  0.8813  0.2983
   43CHL1  H19B 3150   0.699   2.304   7.303  0.7484  1.2716  2.1396
   43CHL1  H19C 3151   0.857   2.395   7.281  0.7889 -0.5785  0.8063
   43CHL1    C1 3152   1.019   2.200   7.196  0.1702  0.5263  0.3442
   43CHL1   H1A 3153   1.069   2.298   7.213 -0.5142  0.9015  0.2182
   43CHL1   H1B 3154   1.094   2.127   7.233  2.3746  2.4860 -0.0601
   43CHL1    C2 3155   1.012   2.188   7.044  0.3083 -0.4481 -0.6923
   43CHL1   H2A 3156   1.114   2.192   7.001  0.1698  1.6656 -0.9283
   43CHL1   H2B 3157   0.956   2.275   7.003 -0.5932 -0.2324  0.8829
   43CHL1   C20 3158   0.858   2.264   7.994  0.5160 -0.0178  0.0257
   43CHL1   H20 3159   0.768   2.324   7.970  0.2275  0.3150  1.8429
   43CHL1   C21 3160   0.984   2.348   7.994 -0.1150 -0.1124  0.3127
   43CHL1  H21A 3161   0.962   2.457   7.996 -1.6848 -0.4017  2.6065
   43CHL1  H21B 3162   1.058   2.325   7.914  1.4779 -0.0115  1.7044
   43CHL1  H21C 3163   1.052   2.330   8.080  2.0847 -0.0350 -1.3250
   43CHL1   C22 3164   0.846   2.189   8.125 -0.0697  0.0307  0.0598
   43CHL1  H22A 3165   0.871   2.249   8.215  1.2258 -1.2383  0.5767
   43CHL1  H22B 3166   0.741   2.155   8.136  0.1948 -0.7606  0.1831
   43CHL1   C23 3167   0.940   2.072   8.148 -0.0446 -0.0037 -0.5515
   43CHL1  H23A 3168   0.940   1.994   8.069  3.2350  0.2226 -0.9176
   43CHL1  H23B 3169   1.040   2.115   8.128 -1.2910  3.1973 -0.5357
   43CHL1   C24 3170   0.945   2.007   8.293 -0.1194 -0.2358  0.1896
   43CHL1  H24A 3171   1.030   1.937   8.310  0.1182  0.5243  2.3547
   43CHL1  H24B 3172   0.975   2.090   8.360  4.0173 -0.6854 -0.8205
   43CHL1   C25 3173   0.812   1.957   8.343 -0.1537  0.1660  0.0852
   43CHL1   H25 3174   0.738   2.040   8.351 -1.1867 -0.8708  2.0648
   43CHL1   C26 3175   0.754   1.846   8.257  0.2936  0.4448 -0.1655
   43CHL1  H26A 3176   0.829   1.766   8.236 -0.0413  0.0328  0.2006
   43CHL1  H26B 3177   0.653   1.814   8.289  0.6285  1.1649  1.7722
   43CHL1  H26C 3178   0.746   1.885   8.153  0.3353  2.4228  0.5368
   43CHL1   C27 3179   0.828   1.914   8.491 -0.9651  0.7061 -0.1565
   43CHL1  H27A 3180   0.857   2.003   8.551 -0.7509  0.8025 -0.3996
   43CHL1  H27B 3181   0.733   1.890   8.542  0.0683  1.8671  2.4890
   43CHL1  H27C 3182   0.904   1.833   8.495 -0.8566  0.7628 -0.8840
   44CHL1    C3 3183   0.279   4.150   6.756  0.3399  0.1764  0.0732
   44CHL1    H3 3184   0.200   4.075   6.780 -0.5288  0.9645 -0.2486
   44CHL1    O3 3185   0.285   4.180   6.616 -0.0125 -0.2829 -0.1355
   44CHL1   H3' 3186   0.220   4.250   6.606 -0.8248 -0.3653  3.2484
   44CHL1    C4 3187   0.233   4.284   6.829  0.3652 -0.1935  0.3661
   44CHL1   H4A 3188   0.310   4.358   6.801  1.8958 -2.2475 -1.1113
   44CHL1   H4B 3189   0.138   4.324   6.786  1.2532  0.7144 -0.8202
   44CHL1    C5 3190   0.228   4.262   6.977  0.1592 -0.6749 -0.5992
   44CHL1    C6 3191   0.116   4.268   7.044  0.0535  0.2477 -0.9224
   44CHL1    H6 3192   0.022   4.292   6.993 -0.7304 -0.2703  0.2300
   44CHL1    C7 3193   0.110   4.255   7.194  0.2515 -0.2005 -0.9692
   44CHL1   H7A 3194   0.035   4.334   7.217 -0.0386 -0.4169 -1.1743
   44CHL1   H7B 3195   0.059   4.158   7.210  2.3778 -1.4334 -1.2195
   44CHL1    C8 3196   0.242   4.275   7.261 -0.5155  0.0314  0.5772
   44CHL1    H8 3197   0.283   4.377   7.247  0.7041 -0.4257  0.7085
   44CHL1   C14 3198   0.234   4.246   7.405 -0.9840  0.0878 -0.3384
   44CHL1   H14 3199   0.205   4.138   7.397  0.0613 -0.2341  0.0932
   44CHL1   C15 3200   0.112   4.310   7.480  0.1968 -0.1197 -0.2085
   44CHL1  H15A 3201   0.094   4.410   7.435 -2.2432  0.2128  1.3046
   44CHL1  H15B 3202   0.018   4.250   7.478  0.2598 -0.2600 -3.4075
   44CHL1   C16 3203   0.167   4.314   7.631 -0.7043 -0.3534 -0.3901
   44CHL1  H16A 3204   0.180   4.417   7.672  0.2158 -0.2175 -0.9961
   44CHL1  H16B 3205   0.093   4.266   7.699 -2.1705  0.3664 -1.4272
   44CHL1   C17 3206   0.306   4.241   7.630 -0.5170 -0.4770  0.2936
   44CHL1   H17 3207   0.286   4.132   7.635 -1.2159 -0.6389 -3.2041
   44CHL1   C13 3208   0.359   4.262   7.486  0.2176  0.1720 -0.0874
   44CHL1   C18 3209   0.420   4.398   7.469  0.1091 -0.3876  0.3415
   44CHL1  H18A 3210   0.445   4.409   7.361 -0.5600 -2.3805 -0.0517
   44CHL1  H18B 3211   0.353   4.481   7.501  0.4936  0.8343 -1.8187
   44CHL1  H18C 3212   0.516   4.409   7.523 -0.7203 -1.0141  2.0092
   44CHL1   C12 3213   0.458   4.160   7.431 -0.0507 -0.0662 -0.3620
   44CHL1  H12A 3214   0.561   4.178   7.469 -0.6367  0.3738  1.0867
   44CHL1  H12B 3215   0.426   4.054   7.445  2.3905 -1.0999 -1.7429
   44CHL1   C11 3216   0.475   4.175   7.273 -0.0987  0.0230  0.6919
   44CHL1  H11A 3217   0.534   4.268   7.256  0.1186 -0.4030 -1.0719
   44CHL1  H11B 3218   0.542   4.091   7.246 -2.3883 -1.7488  0.2376
   44CHL1    C9 3219   0.340   4.182   7.192  0.1188  0.1994  0.3422
   44CHL1    H9 3220   0.294   4.081   7.198  1.5389 -0.4165  1.3136
   44CHL1   C10 3221   0.359   4.219   7.040 -0.6476 -0.7181  0.2114
   44CHL1   C19 3222   0.458   4.339   7.039 -0.2367  0.3016 -0.4258
   44CHL1  H19A 3223   0.466   4.377   6.935  0.4518  0.5232 -0.3002
   44CHL1  H19B 3224   0.434   4.427   7.102 -1.4088  0.7294 -1.4328
   44CHL1  H19C 3225   0.558   4.296   7.061 -0.4684 -0.1396 -0.2306
   44CHL1    C1 3226   0.425   4.097   6.964 -0.6718 -0.3909  0.2759
   44CHL1   H1A 3227   0.533   4.096   6.992 -1.1285  0.8873  2.2760
   44CHL1   H1B 3228   0.391   3.998   7.000  0.0517 -0.1662  1.6618
   44CHL1    C2 3229   0.420   4.109   6.809  0.0574  0.2072 -0.0028
   44CHL1   H2A 3230   0.441   4.007   6.772 -3.3901 -1.0493  1.0858
   44CHL1   H2B 3231   0.488   4.191   6.778 -2.6681  2.4159 -0.6068
   44CHL1   C20 3232   0.406   4.264   7.745  0.3667 -0.9804  0.0921
   44CHL1   H20 3233   0.507   4.229   7.716  0.8743  1.1139 -0.8316
   44CHL1   C21 3234   0.365   4.178   7.860  0.6336 -0.4493 -0.0141
   44CHL1  H21A 3235   0.426   4.197   7.951  0.7990 -1.5812  0.1306
   44CHL1  H21B 3236   0.368   4.069   7.836  1.2659 -0.4157 -0.1253
   44CHL1  H21C 3237   0.259   4.202   7.880  0.3384 -2.0325  0.4889
   44CHL1   C22 3238   0.406   4.410   7.794  0.4244  0.3136  0.1211
   44CHL1  H22A 3239   0.430   4.481   7.713 -1.9753  0.9274 -0.1325
   44CHL1  H22B 3240   0.305   4.443   7.827  0.8170 -0.3721  2.2162
   44CHL1   C23 3241   0.512   4.436   7.905  1.0344 -1.1720  0.3552
   44CHL1  H23A 3242   0.518   4.546   7.903 -0.8555 -1.0005  1.3919
   44CHL1  H23B 3243   0.472   4.425   8.008 -1.2539  0.9200 -0.2080
   44CHL1   C24 3244   0.653   4.387   7.881 -0.3645  0.3482  0.3409
   44CHL1  H24A 3245   0.663   4.276   7.885 -1.4503  0.1435 -1.2149
   44CHL1  H24B 3246   0.662   4.403   7.771  2.8952 -2.8596 -0.0421
   44CHL1   C25 3247   0.755   4.448   7.965  0.4524  0.5523  0.6579
   44CHL1   H25 3248   0.736   4.557   7.971 -0.2682  0.3523  3.2157
   44CHL1   C26 3249   0.744   4.381   8.108 -0.2507 -0.0632  0.3484
   44CHL1  H26A 3250   0.832   4.421   8.162 -2.1027  2.8303  1.4509
   44CHL1  H26B 3251   0.654   4.429   8.150 -1.4174 -0.0723 -1.9532
   44CHL1  H26C 3252   0.744   4.270   8.105  1.3231 -0.0808 -1.4657
   44CHL1   C27 3253   0.890   4.424   7.900 -0.2728 -0.3166 -0.1760
   44CHL1  H27A 3254   0.972   4.480   7.951  0.9394 -1.4111 -0.8666
   44CHL1  H27B 3255   0.919   4.317   7.893 -0.9011 -0.5237  0.2383
   44CHL1  H27C 3256   0.895   4.452   7.793  1.9049 -1.0830 -0.3197
   45CHL1    C3 3257   1.078   4.212   6.772  0.2429  0.1977  0.7458
   45CHL1    H3 3258   1.056   4.104   6.760 -2.3429  0.5339  1.8736
   45CHL1    O3 3259   1.094   4.271   6.644  0.7554  0.1454 -0.5910
   45CHL1   H3' 3260   1.181   4.310   6.652  0.9550 -0.2296 -0.8762
   45CHL1    C4 3261   0.971   4.281   6.847  0.6611 -0.2087 -0.5759
   45CHL1   H4A 3262   0.976   4.392   6.841  1.9427 -0.1787  0.4477
   45CHL1   H4B 3263   0.872   4.253   6.805  0.4558 -1.3505  0.6067
   45CHL1    C5 3264   0.977   4.246   6.997  0.0717  0.5712 -0.4916
   45CHL1    C6 3265   0.860   4.210   7.056 -0.4742 -0.2821 -0.4703
   45CHL1    H6 3266   0.763   4.199   7.006 -1.6645 -0.2831  1.7294
   45CHL1    C7 3267   0.840   4.185   7.205 -0.1215  0.3210  0.5474
   45CHL1   H7A 3268   0.763   4.254   7.247 -1.1061 -1.1893  1.3087
   45CHL1   H7B 3269   0.823   4.077   7.226  1.0445 -0.4970 -2.2360
   45CHL1    C8 3270   0.967   4.226   7.281 -0.4161  0.3412  0.4173
   45CHL1    H8 3271   0.962   4.335   7.302 -0.6651  0.8548 -2.0852
   45CHL1   C14 3272   0.968   4.152   7.416 -0.3629  0.3784 -0.5037
   45CHL1   H14 3273   0.993   4.046   7.393 -1.7285 -0.1480  0.3107
   45CHL1   C15 3274   0.833   4.132   7.487 -0.1920 -0.4596 -0.0500
   45CHL1  H15A 3275   0.777   4.228   7.480  0.2613 -0.1504  0.4445
   45CHL1  H15B 3276   0.780   4.045   7.444  2.5890 -1.6532 -1.3095
   45CHL1   C16 3277   0.879   4.110   7.630  0.8568  0.4703  0.0099
   45CHL1  H16A 3278   0.853   4.196   7.696  0.0740 -0.1144  0.4792
   45CHL1  H16B 3279   0.823   4.025   7.675  1.1235 -0.2427 -0.9678
   45CHL1   C17 3280   1.033   4.095   7.631 -0.2479 -0.3793 -0.0383
   45CHL1   H17 3281   1.063   3.991   7.605 -2.2344 -1.2843  1.0988
   45CHL1   C13 3282   1.078   4.185   7.515  0.0533  1.1090  0.3091
   45CHL1   C18 3283   1.055   4.336   7.552  0.3120 -0.2621  0.0748
   45CHL1  H18A 3284   1.138   4.362   7.621  1.7634 -1.9646 -0.9392
   45CHL1  H18B 3285   1.060   4.399   7.460  2.4486  0.5347  0.6647
   45CHL1  H18C 3286   0.955   4.353   7.597 -0.0171  0.9615 -1.0608
   45CHL1   C12 3287   1.220   4.164   7.454 -0.2457 -0.1061 -0.8742
   45CHL1  H12A 3288   1.297   4.213   7.518 -1.3946  3.4054 -1.9657
   45CHL1  H12B 3289   1.241   4.056   7.439  0.9125  0.0857 -0.7014
   45CHL1   C11 3290   1.221   4.230   7.315 -0.4562 -0.1552  0.0623
   45CHL1  H11A 3291   1.231   4.339   7.332  2.7288 -0.2468 -0.5405
   45CHL1  H11B 3292   1.315   4.198   7.264 -0.7580  0.1230 -0.6836
   45CHL1    C9 3293   1.105   4.193   7.215 -0.4067 -0.0655 -0.1721
   45CHL1    H9 3294   1.103   4.082   7.209  1.1829 -0.0564 -1.7825
   45CHL1   C10 3295   1.115   4.243   7.075  0.2839 -0.0027  0.2507
   45CHL1   C19 3296   1.163   4.390   7.094 -0.5345  0.2954  0.0361
   45CHL1  H19A 3297   1.265   4.406   7.133 -0.1588  0.7786 -1.1059
   45CHL1  H19B 3298   1.169   4.446   6.999 -0.1280  1.8171  0.9252
   45CHL1  H19C 3299   1.088   4.437   7.161 -1.7719 -1.1605 -0.2609
   45CHL1    C1 3300   1.211   4.153   6.988  1.0695 -0.0789  0.8169
   45CHL1   H1A 3301   1.314   4.170   7.024  1.0307  2.3059 -0.0105
   45CHL1   H1B 3302   1.181   4.047   6.996 -1.4583  0.2821 -2.0997
   45CHL1    C2 3303   1.212   4.207   6.845 -0.4038 -0.4823  0.8603
   45CHL1   H2A 3304   1.283   4.144   6.787 -1.7463  1.1222 -2.8513
   45CHL1   H2B 3305   1.255   4.309   6.855 -1.6115  0.0199  1.1414
   45CHL1   C20 3306   1.098   4.137   7.769 -0.0010 -0.1575  0.3655
   45CHL1   H20 3307   1.077   4.245   7.789 -1.8291 -0.5233  0.5693
   45CHL1   C21 3308   1.246   4.088   7.768  0.4799  0.4660  0.2259
   45CHL1  H21A 3309   1.312   4.134   7.691  0.4114  0.4959  0.1854
   45CHL1  H21B 3310   1.251   3.977   7.763  1.6606  0.5360 -0.6596
   45CHL1  H21C 3311   1.308   4.110   7.857  2.5909  0.5208 -1.1702
   45CHL1   C22 3312   1.024   4.065   7.890 -0.5661 -0.3314  0.0406
   45CHL1  H22A 3313   0.919   4.100   7.901  0.0562  0.7356  5.3904
   45CHL1  H22B 3314   1.020   3.956   7.871  0.3699 -0.0258 -2.3412
   45CHL1   C23 3315   1.085   4.086   8.031  0.1278  0.0203  0.1720
   45CHL1  H23A 3316   1.185   4.038   8.040  1.1914  2.3732  2.8074
   45CHL1  H23B 3317   1.097   4.196   8.042 -0.2047 -0.0655  1.5902
   45CHL1   C24 3318   0.992   4.039   8.147  0.7643 -0.3515  0.0813
   45CHL1  H24A 3319   0.898   4.091   8.121  0.6515 -0.4978  0.1973
   45CHL1  H24B 3320   0.953   3.936   8.130 -0.9014  0.3790 -0.7641
   45CHL1   C25 3321   1.035   4.072   8.287 -0.2979 -0.0290  1.1636
   45CHL1   H25 3322   1.088   4.170   8.283 -0.3578  0.2056  4.0299
   45CHL1   C26 3323   0.910   4.102   8.375  0.1907 -0.5770 -0.1509
   45CHL1  H26A 3324   0.844   4.177   8.327 -0.9958 -1.9261 -0.7044
   45CHL1  H26B 3325   0.853   4.014   8.415 -1.2753 -1.0516 -3.0464
   45CHL1  H26C 3326   0.960   4.154   8.459  1.6300  1.6126 -2.2671
   45CHL1   C27 3327   1.122   3.965   8.351 -0.0338 -0.0481  0.1797
   45CHL1  H27A 3328   1.205   3.928   8.286 -0.0879  0.6410 -0.2980
   45CHL1  H27B 3329   1.167   4.007   8.443 -1.4149 -0.2439  0.9723
   45CHL1  H27C 3330   1.063   3.873   8.373  1.3577 -0.9684  0.1780
   46CHL1    C3 3331   2.340   4.280   7.160  1.1726  0.5295  1.2006
   46CHL1    H3 3332   2.297   4.178   7.167 -1.7759  1.6681  0.8533
   46CHL1    O3 3333   2.374   4.314   7.024 -0.0548 -0.6156 -0.3897
   46CHL1   H3' 3334   2.423   4.395   7.042 -0.2419 -0.4308 -0.7166
   46CHL1    C4 3335   2.240   4.385   7.218  0.1806 -0.3172 -0.0417
   46CHL1   H4A 3336   2.286   4.485   7.202  0.1948 -0.1617  0.8731
   46CHL1   H4B 3337   2.145   4.382   7.160 -1.0386 -1.7962  1.8990
   46CHL1    C5 3338   2.218   4.365   7.363  0.0298 -0.0066 -0.4849
   46CHL1    C6 3339   2.093   4.348   7.411  1.2829  0.0643  0.1004
   46CHL1    H6 3340   2.020   4.369   7.331  0.9702  0.2711  0.4383
   46CHL1    C7 3341   2.047   4.344   7.554 -0.4566 -0.5905 -0.4411
   46CHL1   H7A 3342   1.981   4.433   7.566  0.2968  0.1122 -1.3862
   46CHL1   H7B 3343   1.995   4.249   7.580  4.7996 -3.4585  1.1021
   46CHL1    C8 3344   2.172   4.349   7.651 -0.1413 -0.5247 -0.0057
   46CHL1    H8 3345   2.192   4.457   7.669 -0.6974 -0.3155 -0.6121
   46CHL1   C14 3346   2.139   4.282   7.783  0.6183  0.1185  0.7417
   46CHL1   H14 3347   2.126   4.174   7.760 -1.2018 -0.0620  2.3527
   46CHL1   C15 3348   2.010   4.330   7.857  0.1400  0.0839 -0.5416
   46CHL1  H15A 3349   1.996   4.440   7.858 -0.0992  0.0549  0.8388
   46CHL1  H15B 3350   1.912   4.291   7.823 -0.3060 -0.3335  1.1306
   46CHL1   C16 3351   2.045   4.279   8.001  0.8139 -1.0327 -0.2463
   46CHL1  H16A 3352   2.040   4.363   8.074 -0.0435 -1.7487  0.5463
   46CHL1  H16B 3353   1.960   4.213   8.029 -0.1028  0.0605 -0.3677
   46CHL1   C17 3354   2.183   4.218   7.999 -0.4711 -0.2492 -0.1190
   46CHL1   H17 3355   2.161   4.115   7.965 -2.0217 -0.2750  0.8285
   46CHL1   C13 3356   2.256   4.287   7.886 -0.1628  0.3474 -0.1418
   46CHL1   C18 3357   2.290   4.434   7.925  0.2111 -0.0308  1.0315
   46CHL1  H18A 3358   2.376   4.421   7.994  1.1930  0.7687 -0.0104
   46CHL1  H18B 3359   2.327   4.491   7.838 -2.3837  1.1413  0.6128
   46CHL1  H18C 3360   2.209   4.494   7.972 -0.2439  0.4762 -0.3354
   46CHL1   C12 3361   2.384   4.226   7.830  0.0431  0.6134  0.1099
   46CHL1  H12A 3362   2.474   4.241   7.895 -0.3933  0.9927  0.6373
   46CHL1  H12B 3363   2.372   4.118   7.806  0.4255  1.1001 -2.5955
   46CHL1   C11 3364   2.411   4.288   7.692 -0.7812 -0.0678  0.2228
   46CHL1  H11A 3365   2.465   4.384   7.705  0.9366 -0.3965 -3.2264
   46CHL1  H11B 3366   2.492   4.225   7.649 -0.5906  1.9879 -2.7053
   46CHL1    C9 3367   2.295   4.287   7.591 -0.3810  0.2515  0.8285
   46CHL1    H9 3368   2.266   4.180   7.582 -1.9351  0.8146 -2.4717
   46CHL1   C10 3369   2.339   4.345   7.451 -0.0129  0.2132  0.4055
   46CHL1   C19 3370   2.405   4.483   7.470 -0.4094 -0.6974 -0.0736
   46CHL1  H19A 3371   2.440   4.532   7.376  2.6051  0.3677  1.5012
   46CHL1  H19B 3372   2.329   4.551   7.514  0.0470  0.1048 -0.5067
   46CHL1  H19C 3373   2.502   4.480   7.523 -1.1162  1.0319  1.4233
   46CHL1    C1 3374   2.443   4.249   7.385 -0.0632 -0.1188 -0.1613
   46CHL1   H1A 3375   2.540   4.243   7.439 -0.7687 -0.1261  1.1496
   46CHL1   H1B 3376   2.412   4.144   7.403  0.9934 -0.3423  0.4081
   46CHL1    C2 3377   2.474   4.280   7.236  0.1615 -0.3743  0.5887
   46CHL1   H2A 3378   2.551   4.209   7.199  0.3997 -0.2760  0.8877
   46CHL1   H2B 3379   2.516   4.383   7.238 -1.9563  0.5803 -0.6796
   46CHL1   C20 3380   2.261   4.203   8.135 -0.5274  0.6361  0.7330
   46CHL1   H20 3381   2.367   4.190   8.104 -0.9208  0.9556 -0.8307
   46CHL1   C21 3382   2.217   4.069   8.203  0.5052  0.1233  0.2253
   46CHL1  H21A 3383   2.217   3.985   8.130 -1.2406 -0.6479  1.0491
   46CHL1  H21B 3384   2.111   4.071   8.235  0.3390 -0.3438 -0.2730
   46CHL1  H21C 3385   2.282   4.043   8.289 -1.3353 -2.3930  0.9684
   46CHL1   C22 3386   2.246   4.318   8.232 -0.0341  1.0759 -0.3445
   46CHL1  H22A 3387   2.262   4.418   8.188 -1.8203  1.5195 -0.0830
   46CHL1  H22B 3388   2.143   4.309   8.273  0.6291 -1.7796  0.9652
   46CHL1   C23 3389   2.335   4.298   8.359  0.2492  0.0729  0.3167
   46CHL1  H23A 3390   2.312   4.208   8.420 -1.9505  0.0156 -0.5059
   46CHL1  H23B 3391   2.443   4.287   8.333  0.5412 -2.8599  2.2916
   46CHL1   C24 3392   2.310   4.414   8.461 -0.1683  0.3216 -0.1032
   46CHL1  H24A 3393   2.372   4.504   8.442  0.4035 -0.0511 -0.0219
   46CHL1  H24B 3394   2.201   4.432   8.449 -0.0125  1.8663  0.4792
   46CHL1   C25 3395   2.344   4.380   8.610  0.2855 -0.7253  0.3610
   46CHL1   H25 3396   2.276   4.306   8.658 -0.2479 -0.4436  0.0549
   46CHL1   C26 3397   2.477   4.312   8.628 -0.2439  0.2733 -0.1939
   46CHL1  H26A 3398   2.556   4.386   8.601 -1.6209  1.2120 -1.8957
   46CHL1  H26B 3399   2.483   4.282   8.734 -0.6537 -0.0408 -0.2586
   46CHL1  H26C 3400   2.486   4.214   8.576 -1.2454 -0.7801  1.5248
   46CHL1   C27 3401   2.350   4.511   8.690 -0.0134  0.2931 -0.2764
   46CHL1  H27A 3402   2.251   4.561   8.681  0.2049  0.6276 -0.9131
   46CHL1  H27B 3403   2.373   4.491   8.796  2.0516  2.1400 -0.3104
   46CHL1  H27C 3404   2.426   4.581   8.649  0.7005  0.7217  1.6678
   47CHL1    C3 3405   0.243   3.730   6.829  0.5963  0.2319 -0.8021
   47CHL1    H3 3406   0.318   3.811   6.836  0.3720  0.3959 -0.2365
   47CHL1    O3 3407   0.234   3.696   6.689 -0.3738 -0.2024  0.3261
   47CHL1   H3' 3408   0.181   3.617   6.696 -1.6121  0.6507  0.9654
   47CHL1    C4 3409   0.276   3.608   6.926  0.7960 -0.9546  0.4301
   47CHL1   H4A 3410   0.199   3.533   6.898 -0.6573  0.0251  1.6249
   47CHL1   H4B 3411   0.373   3.564   6.893 -0.8922 -1.8431 -4.1026
   47CHL1    C5 3412   0.271   3.654   7.080  0.2681 -0.8953  1.0161
   47CHL1    C6 3413   0.384   3.639   7.153  0.0329 -0.3522 -0.3787
   47CHL1    H6 3414   0.477   3.588   7.125 -0.1485 -2.3330  2.2114
   47CHL1    C7 3415   0.391   3.699   7.290  0.0151  0.8829 -0.2564
   47CHL1   H7A 3416   0.454   3.628   7.349 -0.3029 -0.4051 -1.4238
   47CHL1   H7B 3417   0.436   3.800   7.283 -0.3891  1.0764 -0.1002
   47CHL1    C8 3418   0.251   3.715   7.360  0.8385 -0.1735 -0.5810
   47CHL1    H8 3419   0.210   3.613   7.374 -0.5797  0.1062 -2.3261
   47CHL1   C14 3420   0.254   3.775   7.496  0.2164 -0.2658  0.7227
   47CHL1   H14 3421   0.281   3.882   7.483  0.4494 -0.3302  0.6652
   47CHL1   C15 3422   0.345   3.715   7.598 -0.5845 -0.0003 -0.2121
   47CHL1  H15A 3423   0.358   3.605   7.585  1.2289  0.4353 -2.8901
   47CHL1  H15B 3424   0.443   3.763   7.579 -1.5670  1.3917 -2.1391
   47CHL1   C16 3425   0.290   3.751   7.734  0.4658  0.0002 -0.7914
   47CHL1  H16A 3426   0.265   3.660   7.793 -0.2159 -0.4963 -1.8286
   47CHL1  H16B 3427   0.358   3.809   7.800 -1.0159  1.2336 -0.2731
   47CHL1   C17 3428   0.160   3.830   7.704  0.4724  0.0535 -0.0329
   47CHL1   H17 3429   0.192   3.936   7.692 -0.7555  0.3324 -1.1241
   47CHL1   C13 3430   0.119   3.783   7.561  0.3527 -0.2298 -0.7640
   47CHL1   C18 3431   0.052   3.651   7.586 -0.2546  0.6695  0.2404
   47CHL1  H18A 3432   0.104   3.580   7.653 -0.2833  0.1655 -0.2621
   47CHL1  H18B 3433  -0.056   3.656   7.610 -1.5362 -1.0525 -4.1874
   47CHL1  H18C 3434   0.052   3.592   7.492 -1.1908 -0.4951  0.9521
   47CHL1   C12 3435   0.030   3.873   7.480 -0.4876 -0.3856 -0.3346
   47CHL1  H12A 3436  -0.069   3.883   7.529 -0.9294 -0.4339 -1.1876
   47CHL1  H12B 3437   0.084   3.969   7.491 -0.1586 -0.5042 -0.8581
   47CHL1   C11 3438   0.014   3.822   7.332  0.2403 -0.0903  0.5907
   47CHL1  H11A 3439  -0.045   3.728   7.332  0.8415 -0.4773  0.6190
   47CHL1  H11B 3440  -0.037   3.905   7.280  1.1194 -0.5698 -1.1395
   47CHL1    C9 3441   0.157   3.797   7.267 -0.2196 -0.2874  0.0059
   47CHL1    H9 3442   0.203   3.897   7.252 -0.0554 -0.5351 -1.2892
   47CHL1   C10 3443   0.146   3.727   7.129  0.8882 -0.8642  0.3033
   47CHL1   C19 3444   0.046   3.618   7.127  0.0084  0.5097  0.1565
   47CHL1  H19A 3445   0.040   3.551   7.038  0.0958 -1.2385  1.4085
   47CHL1  H19B 3446   0.050   3.545   7.211  2.2862 -0.5433 -0.7686
   47CHL1  H19C 3447  -0.055   3.660   7.143 -0.1709  0.0168  0.3293
   47CHL1    C1 3448   0.106   3.835   7.021 -0.5791  0.3195 -0.4710
   47CHL1   H1A 3449   0.004   3.873   7.042 -0.7200  1.3614 -2.8020
   47CHL1   H1B 3450   0.173   3.922   7.034 -0.3004  0.0970 -0.3906
   47CHL1    C2 3451   0.105   3.787   6.873 -0.2098 -0.1942  1.2679
   47CHL1   H2A 3452   0.089   3.881   6.815  1.1598 -0.4099  0.5081
   47CHL1   H2B 3453   0.016   3.721   6.861 -0.4380  0.0265  1.7088
   47CHL1   C20 3454   0.058   3.836   7.818 -0.2614  0.2979  0.4765
   47CHL1   H20 3455  -0.006   3.746   7.826 -0.1972  0.4050  3.0967
   47CHL1   C21 3456  -0.024   3.969   7.813 -0.6588  0.2040 -0.1714
   47CHL1  H21A 3457   0.043   4.043   7.860  1.4198 -0.2454 -2.2601
   47CHL1  H21B 3458  -0.118   3.957   7.871 -0.7551  0.2206 -0.3252
   47CHL1  H21C 3459  -0.047   3.992   7.707  0.4151  2.8010  0.0870
   47CHL1   C22 3460   0.130   3.841   7.958  0.2145 -0.0802 -0.8773
   47CHL1  H22A 3461   0.176   3.740   7.962  3.9463  1.4949 -0.0259
   47CHL1  H22B 3462   0.199   3.925   7.980 -0.1439  0.0386 -0.1747
   47CHL1   C23 3463   0.036   3.845   8.081 -0.1334 -0.3771 -0.0620
   47CHL1  H23A 3464   0.011   3.952   8.097 -3.0223 -1.1816  1.4778
   47CHL1  H23B 3465  -0.059   3.797   8.050  0.2702 -0.1754 -1.7307
   47CHL1   C24 3466   0.095   3.778   8.201 -0.2395  0.0703  0.3532
   47CHL1  H24A 3467   0.102   3.669   8.177  3.3632  0.3394 -0.3843
   47CHL1  H24B 3468   0.200   3.811   8.216  0.0338 -1.8272  3.4543
   47CHL1   C25 3469   0.008   3.796   8.320 -0.1292 -0.2573  0.0507
   47CHL1   H25 3470  -0.094   3.794   8.276  0.5818  1.5194 -1.8900
   47CHL1   C26 3471   0.036   3.686   8.421 -0.4586  1.4097 -0.8012
   47CHL1  H26A 3472  -0.021   3.725   8.509  0.0844  3.1472 -1.1870
   47CHL1  H26B 3473   0.001   3.586   8.389  0.1543  0.8295  0.2890
   47CHL1  H26C 3474   0.139   3.684   8.462 -0.7141  1.4329 -0.1396
   47CHL1   C27 3475   0.006   3.935   8.386 -0.1216  0.0884 -0.3654
   47CHL1  H27A 3476   0.098   3.974   8.433 -0.7736  1.7194 -0.3641
   47CHL1  H27B 3477  -0.009   4.014   8.310  2.8605  1.5418  0.4418
   47CHL1  H27C 3478  -0.071   3.935   8.467  1.1994  0.9926  0.9235
   48CHL1    C3 3479   6.357   1.170   6.829  0.1725  0.0751  0.1986
   48CHL1    H3 3480   6.259   1.221   6.843 -0.5168 -1.8847  3.5958
   48CHL1    O3 3481   6.415   1.163   6.697  0.0670 -0.1579  0.0401
   48CHL1   H3' 3482   6.505   1.138   6.719 -0.0005 -1.6460 -1.2509
   48CHL1    C4 3483   6.460   1.237   6.919 -0.8145  0.1604 -0.1490
   48CHL1   H4A 3484   6.552   1.176   6.904 -1.3840 -0.0438 -3.9464
   48CHL1   H4B 3485   6.490   1.332   6.870 -0.0733 -1.4646 -3.0724
   48CHL1    C5 3486   6.415   1.239   7.065  0.0341 -0.4088  0.6489
   48CHL1    C6 3487   6.415   1.359   7.126 -0.2877 -0.5203 -0.1761
   48CHL1    H6 3488   6.443   1.449   7.068  0.5191  0.0662  1.0855
   48CHL1    C7 3489   6.380   1.370   7.271 -0.6976 -0.3319  0.0046
   48CHL1   H7A 3490   6.449   1.438   7.327 -0.7910  1.3305 -1.7931
   48CHL1   H7B 3491   6.285   1.428   7.277 -0.9167 -0.6120 -0.7303
   48CHL1    C8 3492   6.375   1.238   7.346 -0.1797 -0.0581 -0.2272
   48CHL1    H8 3493   6.477   1.200   7.366  0.8380  2.9575  0.9167
   48CHL1   C14 3494   6.299   1.260   7.473 -0.4724 -0.3743 -0.9817
   48CHL1   H14 3495   6.205   1.310   7.441 -1.1714 -1.6180 -0.9299
   48CHL1   C15 3496   6.354   1.368   7.579  0.1727  0.4022 -0.0529
   48CHL1  H15A 3497   6.464   1.362   7.596  0.0480  0.4146  0.8171
   48CHL1  H15B 3498   6.324   1.468   7.541  0.9825  0.8529  0.4476
   48CHL1   C16 3499   6.280   1.335   7.707 -0.1224 -0.2645  0.7188
   48CHL1  H16A 3500   6.343   1.315   7.796  0.4064  3.7245  1.4348
   48CHL1  H16B 3501   6.205   1.416   7.725  1.2028  1.1361  0.1745
   48CHL1   C17 3502   6.212   1.197   7.685 -0.6668  0.5545  0.7953
   48CHL1   H17 3503   6.106   1.222   7.666 -1.3577  0.0063  3.5414
   48CHL1   C13 3504   6.271   1.137   7.553 -0.8113  0.0361  0.1561
   48CHL1   C18 3505   6.408   1.061   7.586  0.1509 -0.3474  0.3034
   48CHL1  H18A 3506   6.460   1.044   7.490 -2.0972  2.1839 -1.5427
   48CHL1  H18B 3507   6.469   1.119   7.658 -1.7905 -0.3654  2.0759
   48CHL1  H18C 3508   6.387   0.965   7.637  1.7223 -0.0959  1.5047
   48CHL1   C12 3509   6.181   1.049   7.465 -0.4726 -0.6503 -0.2228
   48CHL1  H12A 3510   6.135   0.959   7.511 -0.9811  0.1298  0.8305
   48CHL1  H12B 3511   6.097   1.109   7.424 -1.9067 -1.7225  1.0310
   48CHL1   C11 3512   6.253   1.005   7.329 -0.7209 -0.7393  0.3994
   48CHL1  H11A 3513   6.335   0.937   7.361 -0.0400  0.1594  0.6209
   48CHL1  H11B 3514   6.176   0.950   7.270 -0.6941  2.2249 -2.7337
   48CHL1    C9 3515   6.301   1.130   7.255 -0.0892  0.1365 -0.1452
   48CHL1    H9 3516   6.206   1.179   7.223  0.0295 -0.3404 -1.2715
   48CHL1   C10 3517   6.376   1.102   7.125 -0.1658 -0.4939 -0.0597
   48CHL1   C19 3518   6.495   1.018   7.156 -0.5485 -0.6924 -0.7182
   48CHL1  H19A 3519   6.565   1.081   7.215 -1.2555  0.3577 -0.9743
   48CHL1  H19B 3520   6.459   0.920   7.197  0.5387 -1.1373 -0.7958
   48CHL1  H19C 3521   6.564   0.991   7.074  0.6687  1.2973 -0.4118
   48CHL1    C1 3522   6.287   1.020   7.028 -1.0035 -0.4051  0.5099
   48CHL1   H1A 3523   6.298   0.913   7.055  0.2655 -0.6720 -0.8948
   48CHL1   H1B 3524   6.178   1.041   7.025 -0.7374  1.0603  0.5232
   48CHL1    C2 3525   6.336   1.030   6.880 -0.1914 -0.7273 -0.6231
   48CHL1   H2A 3526   6.251   0.986   6.825  1.6227 -2.1229 -2.4121
   48CHL1   H2B 3527   6.429   0.970   6.868 -0.6442 -1.9725  1.4727
   48CHL1   C20 3528   6.201   1.106   7.809 -0.3150 -0.4330  0.0827
   48CHL1   H20 3529   6.309   1.083   7.823  0.2614  1.4004 -1.0287
   48CHL1   C21 3530   6.124   0.979   7.776  0.2760  0.5137  0.1114
   48CHL1  H21A 3531   6.103   0.908   7.859  1.0993 -1.7313 -1.5053
   48CHL1  H21B 3532   6.171   0.905   7.708 -2.2309 -0.7817 -0.3281
   48CHL1  H21C 3533   6.023   1.001   7.737 -1.9073 -2.9994  3.1730
   48CHL1   C22 3534   6.139   1.182   7.926  0.1517 -0.4469 -1.0067
   48CHL1  H22A 3535   6.191   1.280   7.935 -0.1906 -0.3381 -0.1043
   48CHL1  H22B 3536   6.035   1.207   7.896  0.1566 -0.0043 -0.6732
   48CHL1   C23 3537   6.150   1.119   8.063 -0.0564  0.3191 -0.0060
   48CHL1  H23A 3538   6.104   1.018   8.062  0.4325  0.0029  2.5285
   48CHL1  H23B 3539   6.257   1.110   8.091  0.2012  2.2620 -0.2055
   48CHL1   C24 3540   6.077   1.201   8.171 -0.0320  0.0293 -0.2088
   48CHL1  H24A 3541   6.143   1.289   8.190  2.3688 -1.8763  0.8106
   48CHL1  H24B 3542   5.972   1.217   8.137  0.1246 -1.1042 -1.2945
   48CHL1   C25 3543   6.063   1.122   8.304  0.3337 -0.4532 -0.1905
   48CHL1   H25 3544   6.017   1.025   8.277  0.6713 -0.4489 -0.7892
   48CHL1   C26 3545   6.202   1.091   8.362  0.0420 -0.5213 -0.1023
   48CHL1  H26A 3546   6.267   1.041   8.287  0.6912  0.0081  0.0917
   48CHL1  H26B 3547   6.247   1.189   8.389  1.7388 -0.9570 -1.1937
   48CHL1  H26C 3548   6.200   1.023   8.450  0.5699 -2.0054 -1.2014
   48CHL1   C27 3549   5.961   1.195   8.396  0.0833  0.5253  0.0764
   48CHL1  H27A 3550   6.014   1.278   8.447 -1.1164  0.3076  1.7672
   48CHL1  H27B 3551   5.880   1.236   8.332  0.7437 -0.5595 -1.5187
   48CHL1  H27C 3552   5.919   1.123   8.470 -0.9749  0.0089 -0.9863
   49CHL1    C3 3553   4.652   0.154   6.511  0.6765  0.9159 -0.4319
   49CHL1    H3 3554   4.620   0.051   6.485 -2.8107  2.2749 -2.1345
   49CHL1    O3 3555   4.707   0.226   6.405 -0.9388 -0.3248  0.9445
   49CHL1   H3' 3556   4.702   0.319   6.428 -0.4912 -0.2107  0.5972
   49CHL1    C4 3557   4.522   0.218   6.560  0.1419 -0.2052  0.0110
   49CHL1   H4A 3558   4.539   0.328   6.562 -0.3921 -0.0558 -1.8639
   49CHL1   H4B 3559   4.448   0.196   6.480  1.3486  1.3314 -1.6390
   49CHL1    C5 3560   4.472   0.175   6.691  0.3495 -0.3614 -0.1527
   49CHL1    C6 3561   4.351   0.126   6.705  0.3140 -0.6256 -0.3241
   49CHL1    H6 3562   4.285   0.142   6.620  0.0323  3.4003  0.4821
   49CHL1    C7 3563   4.287   0.082   6.831 -0.0149  0.1099 -0.5249
   49CHL1   H7A 3564   4.182   0.116   6.840 -0.4540 -1.3433  0.1893
   49CHL1   H7B 3565   4.284  -0.029   6.824  0.1145 -0.1346  2.0850
   49CHL1    C8 3566   4.367   0.117   6.958 -0.0759  0.1353 -0.2722
   49CHL1    H8 3567   4.355   0.226   6.974  1.4663  0.4380 -0.9891
   49CHL1   C14 3568   4.310   0.046   7.078 -0.2164 -0.4682  0.4109
   49CHL1   H14 3569   4.312  -0.064   7.066 -0.6233 -0.7322  2.4083
   49CHL1   C15 3570   4.161   0.076   7.110 -0.0409  0.4109  0.0535
   49CHL1  H15A 3571   4.140   0.184   7.092 -0.2227  0.6574  1.6089
   49CHL1  H15B 3572   4.099   0.012   7.043 -1.6765  1.9686 -0.0040
   49CHL1   C16 3573   4.150   0.032   7.262  0.3099  0.2336  0.3139
   49CHL1  H16A 3574   4.112   0.118   7.320 -1.8130  0.5749 -1.4200
   49CHL1  H16B 3575   4.086  -0.058   7.279 -0.8347  0.2216 -3.2590
   49CHL1   C17 3576   4.297   0.001   7.306  0.3857  0.1448 -0.4971
   49CHL1   H17 3577   4.310  -0.109   7.296 -0.8332 -0.0295 -0.3511
   49CHL1   C13 3578   4.390   0.070   7.208  0.3016  0.0773  0.3856
   49CHL1   C18 3579   4.403   0.223   7.249  0.3584  0.3749 -0.1048
   49CHL1  H18A 3580   4.466   0.269   7.169 -1.1956 -2.9720 -3.6000
   49CHL1  H18B 3581   4.303   0.270   7.253  0.5723  1.0076 -1.4733
   49CHL1  H18C 3582   4.460   0.235   7.344  3.0777  0.8151 -1.6655
   49CHL1   C12 3583   4.539   0.020   7.192 -0.2784  0.2231 -0.1787
   49CHL1  H12A 3584   4.616   0.062   7.261 -0.4553  0.9430 -0.4099
   49CHL1  H12B 3585   4.555  -0.089   7.181  2.4345  0.4134  1.0350
   49CHL1   C11 3586   4.602   0.087   7.058 -0.7120 -0.2723 -0.4312
   49CHL1  H11A 3587   4.619   0.190   7.094  2.6028 -1.5036  2.0719
   49CHL1  H11B 3588   4.708   0.056   7.045 -0.6556 -0.4514  0.4025
   49CHL1    C9 3589   4.514   0.083   6.934 -0.0930 -0.0532  0.0784
   49CHL1    H9 3590   4.518  -0.023   6.899 -1.8410 -0.2020  0.2401
   49CHL1   C10 3591   4.569   0.165   6.809  0.1527  0.3072 -0.4655
   49CHL1   C19 3592   4.615   0.309   6.858 -0.3831 -0.1846 -0.5893
   49CHL1  H19A 3593   4.645   0.382   6.779 -0.7798  0.5040 -0.1107
   49CHL1  H19B 3594   4.532   0.348   6.920  0.1389  0.8869 -0.5373
   49CHL1  H19C 3595   4.704   0.289   6.922  0.5722 -0.6354 -2.0136
   49CHL1    C1 3596   4.689   0.088   6.751 -0.3638  0.1758  1.0675
   49CHL1   H1A 3597   4.762   0.095   6.835  1.1693 -0.4334 -0.1724
   49CHL1   H1B 3598   4.662  -0.017   6.725  1.2523 -0.0704  0.2521
   49CHL1    C2 3599   4.755   0.151   6.626 -0.5718  0.2598  0.0424
   49CHL1   H2A 3600   4.848   0.095   6.602  0.5233  1.6883  0.7991
   49CHL1   H2B 3601   4.796   0.253   6.644  0.6036  0.1765 -1.8967
   49CHL1   C20 3602   4.315   0.026   7.455 -0.7740  0.2540  0.1920
   49CHL1   H20 3603   4.314   0.136   7.473  1.7042  0.8540 -2.4006
   49CHL1   C21 3604   4.455  -0.024   7.485 -0.2853 -0.3228  0.4285
   49CHL1  H21A 3605   4.457  -0.128   7.447  0.1235 -0.3591  0.5517
   49CHL1  H21B 3606   4.483  -0.029   7.592 -1.4057  0.5098  0.7887
   49CHL1  H21C 3607   4.536   0.038   7.440 -1.4140  0.3262 -0.8100
   49CHL1   C22 3608   4.214  -0.037   7.546 -0.6484  0.3849 -0.1614
   49CHL1  H22A 3609   4.120   0.016   7.520 -0.4438 -0.2105 -2.3102
   49CHL1  H22B 3610   4.195  -0.143   7.522  1.7166 -0.2823  0.6215
   49CHL1   C23 3611   4.233  -0.006   7.697  0.1374  0.2363 -0.1466
   49CHL1  H23A 3612   4.315  -0.071   7.734  0.2584  0.1041 -0.6357
   49CHL1  H23B 3613   4.268   0.100   7.704  1.6019 -0.1567 -1.0543
   49CHL1   C24 3614   4.112  -0.012   7.787 -0.4010 -0.1929  0.1494
   49CHL1  H24A 3615   4.037   0.066   7.760 -0.3084 -0.4861 -0.9984
   49CHL1  H24B 3616   4.061  -0.109   7.770  1.0118 -1.2025  1.4322
   49CHL1   C25 3617   4.140   0.001   7.939 -0.6205 -0.3870  0.6649
   49CHL1   H25 3618   4.220   0.075   7.964  2.1174 -2.2096 -2.0440
   49CHL1   C26 3619   4.012   0.021   8.020 -0.2228 -0.0426  0.4336
   49CHL1  H26A 3620   3.935  -0.053   7.989 -0.0959  0.0276 -0.0622
   49CHL1  H26B 3621   4.034   0.025   8.128  5.4808  1.5714 -0.4506
   49CHL1  H26C 3622   3.984   0.125   7.994 -2.5024 -1.0300 -1.5150
   49CHL1   C27 3623   4.194  -0.124   7.997 -0.3260  0.1825  0.0735
   49CHL1  H27A 3624   4.192  -0.117   8.107  2.2464  0.6183  0.1487
   49CHL1  H27B 3625   4.122  -0.205   7.970 -0.3157 -0.2367  1.2697
   49CHL1  H27C 3626   4.287  -0.150   7.943 -0.3346 -2.3936  1.1987
   50CHL1    C3 3627   5.124   4.546   6.883  0.3408  0.8560 -0.2733
   50CHL1    H3 3628   5.108   4.655   6.892  0.2692  0.8561 -0.4077
   50CHL1    O3 3629   5.119   4.500   6.750 -0.2201  0.2465  0.2448
   50CHL1   H3' 3630   5.102   4.405   6.748  1.0972 -0.0006 -0.7140
   50CHL1    C4 3631   5.259   4.502   6.936  1.2130  0.9244 -0.8008
   50CHL1   H4A 3632   5.284   4.393   6.930  4.4073  1.4934  0.1343
   50CHL1   H4B 3633   5.335   4.552   6.873  1.0230  0.1277 -1.6904
   50CHL1    C5 3634   5.270   4.536   7.079 -0.5166 -0.1561 -0.4848
   50CHL1    C6 3635   5.360   4.629   7.119 -0.1008 -0.2978  0.3828
   50CHL1    H6 3636   5.410   4.676   7.033 -0.3441 -0.6867  0.0255
   50CHL1    C7 3637   5.390   4.663   7.258  0.6196  0.2241 -0.1418
   50CHL1   H7A 3638   5.499   4.656   7.277  1.1317  0.8436 -2.4645
   50CHL1   H7B 3639   5.347   4.766   7.263  0.1206  0.0527 -0.8186
   50CHL1    C8 3640   5.321   4.573   7.362  0.8365  0.1182 -0.2388
   50CHL1    H8 3641   5.363   4.470   7.365 -1.2287 -0.7561  1.2391
   50CHL1   C14 3642   5.318   4.640   7.500  0.1842  0.0098 -0.1473
   50CHL1   H14 3643   5.251   4.727   7.486 -0.5645 -0.7912 -1.8410
   50CHL1   C15 3644   5.447   4.693   7.555 -0.6514 -0.3252  0.7164
   50CHL1  H15A 3645   5.532   4.624   7.536 -1.2813 -0.6000 -1.3661
   50CHL1  H15B 3646   5.468   4.791   7.508 -1.7565  0.1647  1.2095
   50CHL1   C16 3647   5.407   4.724   7.700  0.4496  0.7615  0.0881
   50CHL1  H16A 3648   5.477   4.682   7.776  1.0569  0.9619 -0.3568
   50CHL1  H16B 3649   5.406   4.834   7.709 -1.7741  0.9284 -1.4136
   50CHL1   C17 3650   5.263   4.665   7.727 -0.4708  0.1689  0.8255
   50CHL1   H17 3651   5.191   4.747   7.707  0.3397  0.4356 -1.3493
   50CHL1   C13 3652   5.244   4.568   7.615  0.1252 -0.0803  0.8879
   50CHL1   C18 3653   5.318   4.432   7.637 -0.0060  0.6440 -0.2102
   50CHL1  H18A 3654   5.283   4.372   7.723  1.9364 -0.2369  0.0250
   50CHL1  H18B 3655   5.320   4.374   7.543 -0.3090 -0.1866  0.2900
   50CHL1  H18C 3656   5.428   4.444   7.644  0.2231  0.2536 -2.4622
   50CHL1   C12 3657   5.102   4.550   7.573 -0.3698 -0.0735  0.5307
   50CHL1  H12A 3658   5.042   4.497   7.649 -0.7287 -0.2369  0.1411
   50CHL1  H12B 3659   5.050   4.647   7.555  0.7445  0.3633 -0.4681
   50CHL1   C11 3660   5.090   4.479   7.439 -0.5203 -0.6146  0.0524
   50CHL1  H11A 3661   5.129   4.376   7.452 -2.0515 -1.6462 -2.5881
   50CHL1  H11B 3662   4.982   4.475   7.411 -0.0864 -4.0212 -1.7248
   50CHL1    C9 3663   5.172   4.543   7.322  0.3323 -1.4923 -0.0799
   50CHL1    H9 3664   5.124   4.642   7.310 -0.3386 -1.5356  1.8657
   50CHL1   C10 3665   5.158   4.479   7.174  0.4402  0.2572  0.0168
   50CHL1   C19 3666   5.182   4.327   7.188  0.6108  0.7059  0.0597
   50CHL1  H19A 3667   5.099   4.270   7.236  0.4487 -1.0880 -2.1969
   50CHL1  H19B 3668   5.200   4.266   7.097  2.0714 -1.5586  1.7474
   50CHL1  H19C 3669   5.267   4.300   7.255 -0.6212  2.6479  2.6125
   50CHL1    C1 3670   5.018   4.503   7.112  0.1898  0.7232  0.1835
   50CHL1   H1A 3671   4.950   4.445   7.178 -0.1542  2.3246  1.2664
   50CHL1   H1B 3672   4.988   4.609   7.120 -0.0742  0.5516  1.7965
   50CHL1    C2 3673   5.010   4.474   6.964  0.3597 -0.1222  0.8467
   50CHL1   H2A 3674   4.915   4.505   6.915  0.4756 -0.7612  0.1984
   50CHL1   H2B 3675   5.025   4.365   6.947 -2.2412 -0.4303  0.0971
   50CHL1   C20 3676   5.226   4.615   7.868 -0.2879 -0.6232 -0.5144
   50CHL1   H20 3677   5.135   4.552   7.876  0.8852 -2.4237 -0.7803
   50CHL1   C21 3678   5.199   4.740   7.951  0.4155 -0.0638  0.2503
   50CHL1  H21A 3679   5.292   4.801   7.953 -1.1132  2.3797  0.3641
   50CHL1  H21B 3680   5.164   4.707   8.051 -1.8502  0.0291 -0.4479
   50CHL1  H21C 3681   5.113   4.791   7.902  0.6457 -0.5986 -0.7337
   50CHL1   C22 3682   5.334   4.532   7.938  0.0115 -0.2259  0.1285
   50CHL1  H22A 3683   5.397   4.477   7.865  2.4197 -1.1539  2.6990
   50CHL1  H22B 3684   5.407   4.600   7.988 -1.6059  0.8290  1.1387
   50CHL1   C23 3685   5.284   4.432   8.042  0.6549  0.2573  0.2073
   50CHL1  H23A 3686   5.237   4.489   8.126  1.7601  1.1165  0.2624
   50CHL1  H23B 3687   5.202   4.371   7.998  0.8004  0.2630 -0.0712
   50CHL1   C24 3688   5.398   4.346   8.094  0.0455 -0.1838 -0.0645
   50CHL1  H24A 3689   5.446   4.287   8.013 -0.4702  1.3283 -1.5151
   50CHL1  H24B 3690   5.475   4.410   8.142  1.2509 -2.2610  0.8972
   50CHL1   C25 3691   5.359   4.232   8.199  0.6489 -0.2199  0.0395
   50CHL1   H25 3692   5.274   4.180   8.150  0.9925  0.4501 -1.3048
   50CHL1   C26 3693   5.474   4.138   8.233  0.1692  0.5604 -0.0250
   50CHL1  H26A 3694   5.438   4.058   8.302  0.3359 -1.8846 -2.6201
   50CHL1  H26B 3695   5.516   4.082   8.147  2.0965 -0.1387  1.3183
   50CHL1  H26C 3696   5.561   4.198   8.267  0.4997  2.0242 -3.1094
   50CHL1   C27 3697   5.306   4.282   8.334 -0.2220 -0.0929  0.1858
   50CHL1  H27A 3698   5.394   4.317   8.392  0.0751 -1.2837  0.4707
   50CHL1  H27B 3699   5.227   4.360   8.322  0.7971  0.6449 -2.4198
   50CHL1  H27C 3700   5.248   4.206   8.390 -1.3478  1.1599  0.7744
   51CHL1    C3 3701   5.049   2.751   6.962 -0.3808 -0.5830  0.2544
   51CHL1    H3 3702   4.942   2.773   6.984 -1.1442 -0.4740 -3.0516
   51CHL1    O3 3703   5.050   2.756   6.820  0.8357  0.0305 -0.2231
   51CHL1   H3' 3704   5.126   2.704   6.793  1.2898 -0.4255  1.7439
   51CHL1    C4 3705   5.158   2.842   7.028  0.6184 -0.3023 -0.3708
   51CHL1   H4A 3706   5.252   2.795   6.991 -0.0781 -1.6752 -0.4837
   51CHL1   H4B 3707   5.149   2.947   6.995 -1.8135 -0.3089  0.0646
   51CHL1    C5 3708   5.142   2.826   7.182  0.0473 -0.5007  0.4528
   51CHL1    C6 3709   5.117   2.936   7.259 -0.4762  0.2883 -0.2733
   51CHL1    H6 3710   5.107   3.038   7.218 -1.2648  1.0292  1.6683
   51CHL1    C7 3711   5.091   2.938   7.405  0.0992  0.3408  0.5794
   51CHL1   H7A 3712   5.146   3.025   7.445  0.5265  0.2140  0.2738
   51CHL1   H7B 3713   4.985   2.959   7.430 -0.1700  1.1818 -1.1172
   51CHL1    C8 3714   5.130   2.808   7.471 -0.3917  0.2003 -0.7064
   51CHL1    H8 3715   5.241   2.805   7.471 -0.3991 -0.9686  0.0731
   51CHL1   C14 3716   5.076   2.805   7.613  0.7454 -0.5340  0.4787
   51CHL1   H14 3717   4.966   2.806   7.597  0.8050 -1.1542 -0.0076
   51CHL1   C15 3718   5.105   2.921   7.710  0.1689 -0.2121 -0.0947
   51CHL1  H15A 3719   5.213   2.944   7.709 -0.2007  1.9259 -2.2001
   51CHL1  H15B 3720   5.051   3.014   7.681 -1.9147 -1.2899  0.0697
   51CHL1   C16 3721   5.063   2.860   7.845 -0.1926 -0.1506 -0.3511
   51CHL1  H16A 3722   5.146   2.854   7.919 -0.8258 -1.4239  0.2749
   51CHL1  H16B 3723   4.983   2.921   7.891 -0.1417 -0.7827  0.5977
   51CHL1   C17 3724   5.026   2.706   7.825  0.3023 -0.1229 -0.0701
   51CHL1   H17 3725   4.917   2.696   7.804  0.5301  1.4453 -2.4270
   51CHL1   C13 3726   5.089   2.676   7.691  0.4571  0.0134  0.6940
   51CHL1   C18 3727   5.243   2.653   7.706 -0.4709 -0.2024 -0.3336
   51CHL1  H18A 3728   5.261   2.565   7.772  1.3099 -1.6333 -2.5640
   51CHL1  H18B 3729   5.296   2.631   7.611 -1.2951 -1.1963 -0.5906
   51CHL1  H18C 3730   5.296   2.735   7.758  3.6310 -0.3267 -3.8018
   51CHL1   C12 3731   5.016   2.563   7.609  0.2426 -0.3443  0.2150
   51CHL1  H12A 3732   5.043   2.467   7.659  2.0174  0.4102  0.7767
   51CHL1  H12B 3733   4.911   2.598   7.602  0.6385  1.0506  0.9784
   51CHL1   C11 3734   5.078   2.554   7.465  0.3443  0.2001  0.0756
   51CHL1  H11A 3735   5.179   2.509   7.477 -0.2802 -0.4967  3.9246
   51CHL1  H11B 3736   5.009   2.478   7.421  0.9976 -0.0012 -0.6300
   51CHL1    C9 3737   5.075   2.695   7.391 -0.5042  0.4083 -0.6014
   51CHL1    H9 3738   4.966   2.712   7.386 -0.7779 -0.6971  1.0605
   51CHL1   C10 3739   5.138   2.687   7.246  0.2543  0.5523 -0.8203
   51CHL1   C19 3740   5.282   2.638   7.257 -0.0214  0.9140  0.6065
   51CHL1  H19A 3741   5.302   2.533   7.288  1.1371  0.7831 -0.4940
   51CHL1  H19B 3742   5.325   2.649   7.155  1.7304 -0.4521  1.1580
   51CHL1  H19C 3743   5.354   2.701   7.313  1.4068  0.1815 -0.3402
   51CHL1    C1 3744   5.046   2.586   7.155  0.0230 -0.2293 -0.2260
   51CHL1   H1A 3745   5.066   2.481   7.184  1.0502 -1.2098 -3.9574
   51CHL1   H1B 3746   4.942   2.621   7.170  0.9119  2.7272 -0.3282
   51CHL1    C2 3747   5.066   2.606   7.003  0.4855  0.1011 -0.3326
   51CHL1   H2A 3748   4.991   2.545   6.948  0.7576  0.3451 -0.9950
   51CHL1   H2B 3749   5.168   2.565   6.985  1.3294  1.7337  0.5328
   51CHL1   C20 3750   5.062   2.624   7.948  0.1772  0.1076  0.1441
   51CHL1   H20 3751   5.173   2.614   7.952  0.1061 -0.2445  2.7766
   51CHL1   C21 3752   5.008   2.476   7.944 -0.0133 -0.6571 -0.2105
   51CHL1  H21A 3753   4.899   2.493   7.956  0.0840  0.9719 -1.3624
   51CHL1  H21B 3754   5.039   2.412   8.030  1.2383 -0.8091 -0.7637
   51CHL1  H21C 3755   5.044   2.421   7.855  0.7041 -0.4743 -0.0385
   51CHL1   C22 3756   5.027   2.688   8.081  0.4529  1.1052 -0.5486
   51CHL1  H22A 3757   5.061   2.622   8.164 -0.9908  1.2473  0.1832
   51CHL1  H22B 3758   5.076   2.786   8.103 -0.0362  1.2544 -0.0855
   51CHL1   C23 3759   4.874   2.700   8.110 -0.2290  0.1320  0.0671
   51CHL1  H23A 3760   4.822   2.744   8.022  1.3555  1.2106 -0.3804
   51CHL1  H23B 3761   4.831   2.604   8.144 -1.3747  1.0241  1.2025
   51CHL1   C24 3762   4.841   2.807   8.229 -0.7600 -0.1112 -0.7502
   51CHL1  H24A 3763   4.898   2.771   8.318 -0.9572 -0.2193 -0.6674
   51CHL1  H24B 3764   4.871   2.910   8.201 -0.6445 -0.0851 -0.5373
   51CHL1   C25 3765   4.693   2.817   8.260  0.3442 -0.1325  0.1859
   51CHL1   H25 3766   4.639   2.812   8.163  0.9840 -3.0526 -0.0979
   51CHL1   C26 3767   4.644   2.696   8.344 -0.6040 -0.0817 -0.6537
   51CHL1  H26A 3768   4.669   2.704   8.452  1.1010 -0.9698 -0.9451
   51CHL1  H26B 3769   4.534   2.683   8.341 -0.5281 -0.7550 -0.8241
   51CHL1  H26C 3770   4.685   2.595   8.321 -0.9364  0.2063 -2.6376
   51CHL1   C27 3771   4.667   2.956   8.332 -0.5341  0.7694 -0.5776
   51CHL1  H27A 3772   4.731   2.950   8.422 -0.2656 -1.8585 -0.8462
   51CHL1  H27B 3773   4.690   3.039   8.262  2.3332  0.3920 -0.1828
   51CHL1  H27C 3774   4.557   2.953   8.349 -0.6268  3.4929 -0.3973
   52CHL1    C3 3775   5.913   3.419   6.864 -0.7540 -0.1376 -0.2749
   52CHL1    H3 3776   5.815   3.467   6.884 -0.2711  0.8720 -0.2491
   52CHL1    O3 3777   5.944   3.412   6.721  0.5746 -0.0052 -0.2308
   52CHL1   H3' 3778   5.856   3.402   6.684  0.0437  0.7945  0.7667
   52CHL1    C4 3779   6.020   3.500   6.938  0.1416 -0.2137 -0.3471
   52CHL1   H4A 3780   6.118   3.451   6.920 -0.2884 -1.7021  1.0525
   52CHL1   H4B 3781   6.035   3.598   6.888 -0.0826 -0.2391 -0.4664
   52CHL1    C5 3782   5.986   3.511   7.088 -1.0194 -0.0014  0.0135
   52CHL1    C6 3783   5.982   3.632   7.150 -0.3423 -0.0112 -0.4200
   52CHL1    H6 3784   6.017   3.723   7.099  0.3513 -0.0388 -0.0120
   52CHL1    C7 3785   5.959   3.641   7.300  0.2821 -0.0152  0.3771
   52CHL1   H7A 3786   6.037   3.706   7.345 -0.1115  1.5469 -1.1111
   52CHL1   H7B 3787   5.862   3.691   7.320  0.3622 -0.6050  2.5914
   52CHL1    C8 3788   5.969   3.504   7.374  0.3101  0.2814  0.5149
   52CHL1    H8 3789   6.075   3.469   7.380 -0.4358 -2.8877 -1.9779
   52CHL1   C14 3790   5.899   3.504   7.516  0.3355  0.3925  0.3792
   52CHL1   H14 3791   5.792   3.520   7.493  0.1549 -1.9234 -0.6389
   52CHL1   C15 3792   5.929   3.625   7.607 -0.2593  0.3935  0.5267
   52CHL1  H15A 3793   6.036   3.655   7.607 -0.0804 -0.2193  0.5395
   52CHL1  H15B 3794   5.860   3.707   7.580  1.0245  1.2687 -0.1770
   52CHL1   C16 3795   5.886   3.570   7.742  0.4125 -0.5962 -0.4287
   52CHL1  H16A 3796   5.968   3.581   7.816 -1.1155 -1.0411  1.3964
   52CHL1  H16B 3797   5.801   3.633   7.775 -0.5579 -0.8748 -2.2582
   52CHL1   C17 3798   5.835   3.427   7.725 -0.2819  0.5280 -1.2614
   52CHL1   H17 3799   5.729   3.429   7.694  0.2009  1.0874 -2.9881
   52CHL1   C13 3800   5.913   3.377   7.602  0.3133  0.2801  0.3298
   52CHL1   C18 3801   6.062   3.353   7.639 -0.4452  0.1376 -1.4680
   52CHL1  H18A 3802   6.085   3.270   7.709  0.5922  0.9063 -0.8712
   52CHL1  H18B 3803   6.128   3.329   7.553  2.8425 -0.3115  1.0137
   52CHL1  H18C 3804   6.110   3.444   7.680 -2.2876  1.2882 -1.7314
   52CHL1   C12 3805   5.864   3.255   7.521  0.0525 -0.6301 -0.6715
   52CHL1  H12A 3806   5.903   3.161   7.567  0.9055 -0.3893 -0.8843
   52CHL1  H12B 3807   5.753   3.250   7.525  0.1341 -2.6385  2.0309
   52CHL1   C11 3808   5.907   3.256   7.370 -0.0921  0.3538 -0.5740
   52CHL1  H11A 3809   6.016   3.232   7.379 -0.6494 -2.1334  0.5060
   52CHL1  H11B 3810   5.870   3.164   7.322  0.4975 -1.0339  1.4775
   52CHL1    C9 3811   5.902   3.387   7.295  0.0526 -0.2326 -0.4458
   52CHL1    H9 3812   5.794   3.409   7.283 -0.0219 -0.1385  0.3600
   52CHL1   C10 3813   5.957   3.369   7.153  0.1285  0.0417  0.2829
   52CHL1   C19 3814   6.106   3.308   7.156 -0.1533  0.1343 -0.1331
   52CHL1  H19A 3815   6.107   3.205   7.198  0.9635  1.3229  3.0509
   52CHL1  H19B 3816   6.149   3.312   7.054 -2.0034  1.4735 -0.9244
   52CHL1  H19C 3817   6.176   3.364   7.221  0.0839  0.4848 -0.6830
   52CHL1    C1 3818   5.859   3.288   7.063  0.3567  0.0954 -0.6051
   52CHL1   H1A 3819   5.849   3.187   7.108  3.5197  1.0456  2.7207
   52CHL1   H1B 3820   5.760   3.339   7.069  0.8151  1.0424 -0.8925
   52CHL1    C2 3821   5.909   3.285   6.917 -0.4618  0.8046 -0.6347
   52CHL1   H2A 3822   5.840   3.216   6.864  0.4557 -0.9542  0.3452
   52CHL1   H2B 3823   6.012   3.242   6.919 -0.8420 -0.1455  1.1676
   52CHL1   C20 3824   5.856   3.343   7.857  0.2530  0.2683  0.1289
   52CHL1   H20 3825   5.959   3.305   7.875 -0.0293 -1.6453 -1.9560
   52CHL1   C21 3826   5.773   3.205   7.844  0.7734  0.8649 -0.5952
   52CHL1  H21A 3827   5.673   3.209   7.795  0.3256 -2.8273 -0.2217
   52CHL1  H21B 3828   5.762   3.149   7.939  0.1053 -0.5816 -1.4812
   52CHL1  H21C 3829   5.838   3.147   7.775  0.2661  0.2860 -0.5904
   52CHL1   C22 3830   5.811   3.432   7.980  0.7841 -0.3729 -0.5085
   52CHL1  H22A 3831   5.884   3.511   8.006  0.0224  0.6388 -1.3842
   52CHL1  H22B 3832   5.721   3.493   7.957 -1.2498 -2.1618  1.9899
   52CHL1   C23 3833   5.775   3.359   8.116  0.0977 -0.0967  0.0023
   52CHL1  H23A 3834   5.711   3.274   8.085 -0.9441  0.2764  1.0660
   52CHL1  H23B 3835   5.868   3.320   8.162  1.2163  0.0020 -2.0404
   52CHL1   C24 3836   5.704   3.441   8.222 -0.9137 -1.4366  0.2011
   52CHL1  H24A 3837   5.771   3.528   8.241 -0.2299 -2.1761  1.3591
   52CHL1  H24B 3838   5.612   3.483   8.177 -1.2708 -1.6647  0.7140
   52CHL1   C25 3839   5.662   3.369   8.352 -0.0485  0.0379  0.2806
   52CHL1   H25 3840   5.636   3.264   8.326 -4.2714  1.0767 -0.4717
   52CHL1   C26 3841   5.776   3.379   8.456 -0.3177  0.0375 -0.1550
   52CHL1  H26A 3842   5.817   3.482   8.457  1.2386 -0.5477  0.2222
   52CHL1  H26B 3843   5.735   3.377   8.559  3.5354  0.2733  1.5613
   52CHL1  H26C 3844   5.856   3.301   8.453  0.7979  1.0265  1.6839
   52CHL1   C27 3845   5.535   3.432   8.405  0.0950 -0.1891 -0.6545
   52CHL1  H27A 3846   5.545   3.535   8.445  1.2093  0.1356 -1.7112
   52CHL1  H27B 3847   5.451   3.439   8.333 -0.5568 -0.1951  0.0846
   52CHL1  H27C 3848   5.497   3.367   8.487  1.6974 -2.0884 -1.3378
   53CHL1    C3 3849   1.820   6.472   7.204 -0.3788 -0.0184 -0.3922
   53CHL1    H3 3850   1.750   6.392   7.238  1.1128 -1.3653 -0.3868
   53CHL1    O3 3851   1.824   6.482   7.068  0.5015  0.5019  0.1568
   53CHL1   H3' 3852   1.914   6.462   7.041  1.1681 -0.9942  3.1449
   53CHL1    C4 3853   1.775   6.608   7.258  0.5461  0.1732 -0.1564
   53CHL1   H4A 3854   1.840   6.689   7.217 -0.4339  1.1480  0.1544
   53CHL1   H4B 3855   1.669   6.622   7.228  0.0134 -0.7956  1.1880
   53CHL1    C5 3856   1.800   6.617   7.409 -0.5941 -0.0726 -0.2436
   53CHL1    C6 3857   1.700   6.657   7.490  0.2029 -0.0813  0.7396
   53CHL1    H6 3858   1.604   6.693   7.450  0.7891  0.5504 -0.1415
   53CHL1    C7 3859   1.727   6.684   7.633 -0.0617 -0.1311  0.7286
   53CHL1   H7A 3860   1.669   6.769   7.674  0.3309  0.0461  0.9216
   53CHL1   H7B 3861   1.688   6.597   7.689 -0.3543 -1.1038 -0.9246
   53CHL1    C8 3862   1.881   6.690   7.666  0.4188 -0.1713 -0.2376
   53CHL1    H8 3863   1.921   6.785   7.625  0.5722 -0.1372 -0.0129
   53CHL1   C14 3864   1.900   6.692   7.811 -0.0856  0.7047 -0.3177
   53CHL1   H14 3865   1.835   6.610   7.848  0.7340 -0.4163 -1.3007
   53CHL1   C15 3866   1.835   6.802   7.897 -0.3106  0.3113 -0.3983
   53CHL1  H15A 3867   1.831   6.902   7.847 -5.4625 -0.4864 -2.1801
   53CHL1  H15B 3868   1.727   6.781   7.913 -0.4435  0.8222 -0.5966
   53CHL1   C16 3869   1.904   6.793   8.035  0.0736  0.1999  0.0910
   53CHL1  H16A 3870   1.945   6.895   8.053 -1.1735  0.6674  0.4575
   53CHL1  H16B 3871   1.845   6.763   8.124  1.0086  1.1905  1.0724
   53CHL1   C17 3872   2.028   6.698   8.027 -0.2777  0.8259  0.7840
   53CHL1   H17 3873   1.998   6.597   8.061  1.2741 -0.1224 -0.4997
   53CHL1   C13 3874   2.044   6.682   7.864 -0.3846  0.1393 -0.6077
   53CHL1   C18 3875   2.135   6.811   7.823 -0.0535  0.3975 -0.0301
   53CHL1  H18A 3876   2.141   6.818   7.712 -2.0390  1.3308 -0.1174
   53CHL1  H18B 3877   2.088   6.909   7.847 -2.9229 -0.1826 -2.6589
   53CHL1  H18C 3878   2.239   6.799   7.861  0.1179  3.3252  0.6705
   53CHL1   C12 3879   2.111   6.552   7.815  0.0188  0.1676  0.0483
   53CHL1  H12A 3880   2.217   6.555   7.848  0.3843  1.5893 -1.1473
   53CHL1  H12B 3881   2.055   6.469   7.864  1.6278 -0.5935  0.6480
   53CHL1   C11 3882   2.105   6.547   7.664 -0.6089 -0.2517  0.2197
   53CHL1  H11A 3883   2.173   6.621   7.618 -0.6828  0.0243  0.5455
   53CHL1  H11B 3884   2.140   6.449   7.625 -0.8441 -0.3048  0.1360
   53CHL1    C9 3885   1.956   6.573   7.610 -0.2988 -1.3147  0.9388
   53CHL1    H9 3886   1.901   6.481   7.640 -1.1866 -0.7688  0.9981
   53CHL1   C10 3887   1.941   6.583   7.455 -0.4708 -0.7153 -0.2236
   53CHL1   C19 3888   2.059   6.678   7.406  0.7021 -0.0597 -0.3885
   53CHL1  H19A 3889   2.035   6.719   7.305  0.9499  0.5095 -0.2203
   53CHL1  H19B 3890   2.071   6.774   7.461 -3.5576  1.6388 -1.9794
   53CHL1  H19C 3891   2.152   6.617   7.403  0.5805 -0.2907  0.4007
   53CHL1    C1 3892   1.965   6.442   7.398 -0.1486 -0.0521  0.0617
   53CHL1   H1A 3893   2.063   6.400   7.427 -0.2963 -0.5767 -0.2022
   53CHL1   H1B 3894   1.897   6.368   7.446  1.1987  0.2746  2.6254
   53CHL1    C2 3895   1.958   6.435   7.245 -0.2124  0.4399  0.0945
   53CHL1   H2A 3896   1.993   6.343   7.194 -1.3936 -0.8278  1.5055
   53CHL1   H2B 3897   2.026   6.515   7.207  1.1546 -0.4391  0.5819
   53CHL1   C20 3898   2.145   6.724   8.123  0.0555 -0.0368  1.0083
   53CHL1   H20 3899   2.191   6.817   8.086 -0.8239  0.3230  0.7816
   53CHL1   C21 3900   2.254   6.621   8.122 -0.7134  0.0182 -0.4175
   53CHL1  H21A 3901   2.339   6.632   8.193 -2.0248  1.0434  1.0552
   53CHL1  H21B 3902   2.310   6.611   8.026 -0.6320  0.6104 -0.4323
   53CHL1  H21C 3903   2.214   6.519   8.141  1.0431 -0.5008  0.6603
   53CHL1   C22 3904   2.107   6.753   8.266  0.2472 -0.0135 -0.0952
   53CHL1  H22A 3905   2.192   6.784   8.331 -1.5981  1.3921  1.7928
   53CHL1  H22B 3906   2.034   6.836   8.268 -3.2601 -2.8606 -0.6880
   53CHL1   C23 3907   2.036   6.639   8.348  0.0378 -0.0560 -0.5037
   53CHL1  H23A 3908   1.950   6.621   8.279 -0.6354  2.4284 -0.4385
   53CHL1  H23B 3909   2.099   6.549   8.365 -2.3338 -1.5645  0.7625
   53CHL1   C24 3910   1.974   6.688   8.478 -0.1271  0.2918  0.2071
   53CHL1  H24A 3911   2.048   6.741   8.542  1.7767  1.4604 -2.7628
   53CHL1  H24B 3912   1.909   6.771   8.442 -0.3828 -0.0892 -0.2222
   53CHL1   C25 3913   1.905   6.564   8.550 -0.3382 -0.0562 -0.1879
   53CHL1   H25 3914   1.839   6.507   8.482 -0.3112  0.2238 -0.4482
   53CHL1   C26 3915   2.007   6.483   8.626  0.1791  0.8711  0.2348
   53CHL1  H26A 3916   2.078   6.437   8.553 -1.0734 -0.4303 -0.2147
   53CHL1  H26B 3917   2.057   6.546   8.702  0.4726  1.0318 -0.0893
   53CHL1  H26C 3918   1.964   6.413   8.701 -0.5835  0.8234 -0.2377
   53CHL1   C27 3919   1.823   6.638   8.657 -0.4509 -0.7081 -0.0716
   53CHL1  H27A 3920   1.772   6.584   8.739  0.0935 -2.1508 -0.6477
   53CHL1  H27B 3921   1.883   6.724   8.695 -1.0834  1.0779 -2.7944
   53CHL1  H27C 3922   1.745   6.696   8.603  0.8908  0.8055 -0.4949
   54CHL1    C3 3923   6.716   2.764   6.951 -0.0871 -0.0151  0.2720
   54CHL1    H3 3924   6.734   2.874   6.957 -2.5674  0.4205  0.9911
   54CHL1    O3 3925   6.709   2.732   6.811 -0.0467  0.2447  0.3986
   54CHL1   H3' 3926   6.777   2.664   6.805  0.5802  0.9035 -0.2371
   54CHL1    C4 3927   6.830   2.684   7.025  0.5662  0.1459  0.9335
   54CHL1   H4A 3928   6.823   2.575   7.007  0.6591 -0.4256  3.9351
   54CHL1   H4B 3929   6.923   2.730   6.984 -0.6689  2.6365  0.6827
   54CHL1    C5 3930   6.816   2.706   7.170 -1.0102  0.7739 -0.0021
   54CHL1    C6 3931   6.927   2.746   7.236 -0.2503 -0.1435  0.1568
   54CHL1    H6 3932   7.023   2.764   7.186 -0.6386 -1.0881 -0.9778
   54CHL1    C7 3933   6.919   2.778   7.380  0.2887  0.3270  0.3538
   54CHL1   H7A 3934   7.019   2.771   7.428  0.2708  3.5307  1.0817
   54CHL1   H7B 3935   6.888   2.884   7.392 -0.2639  0.1351  0.6530
   54CHL1    C8 3936   6.798   2.713   7.464  0.4875  0.6599 -0.2150
   54CHL1    H8 3937   6.817   2.606   7.484 -2.2556  0.0789 -0.3559
   54CHL1   C14 3938   6.780   2.787   7.600 -0.0045  0.1864  0.0783
   54CHL1   H14 3939   6.744   2.889   7.576  0.0376  0.0399 -0.6401
   54CHL1   C15 3940   6.904   2.788   7.688  0.1830 -0.6795 -0.3613
   54CHL1  H15A 3941   6.950   2.687   7.689 -1.3362 -1.4188  1.5359
   54CHL1  H15B 3942   6.980   2.864   7.660 -1.0639  0.0281 -2.0394
   54CHL1   C16 3943   6.854   2.817   7.830  0.4133  0.1017  0.7354
   54CHL1  H16A 3944   6.871   2.732   7.899 -2.5999 -0.3462  1.0955
   54CHL1  H16B 3945   6.893   2.905   7.885  1.6739  0.5787 -0.8333
   54CHL1   C17 3946   6.697   2.816   7.817 -0.0284  0.0308  0.0973
   54CHL1   H17 3947   6.657   2.915   7.787 -1.0061 -0.8689 -1.6964
   54CHL1   C13 3948   6.674   2.723   7.691 -0.0642 -0.2292 -0.3826
   54CHL1   C18 3949   6.699   2.576   7.728  0.5582 -0.7696  0.8091
   54CHL1  H18A 3950   6.606   2.534   7.771  0.2166 -2.6929 -1.5759
   54CHL1  H18B 3951   6.713   2.518   7.635  0.1532  1.5165 -0.7821
   54CHL1  H18C 3952   6.790   2.567   7.792  1.2515 -0.4776 -0.1007
   54CHL1   C12 3953   6.545   2.736   7.606 -0.3879  0.1883  0.4135
   54CHL1  H12A 3954   6.449   2.696   7.647  1.7485 -3.7401  2.2460
   54CHL1  H12B 3955   6.530   2.845   7.598  0.1830  0.2797  0.5795
   54CHL1   C11 3956   6.555   2.667   7.466  0.4104 -0.1119  0.1695
   54CHL1  H11A 3957   6.559   2.558   7.486 -0.2323 -0.1109  0.3360
   54CHL1  H11B 3958   6.462   2.693   7.410  0.0470 -1.9169 -0.1086
   54CHL1    C9 3959   6.669   2.727   7.384 -1.5616  0.1411 -0.0544
   54CHL1    H9 3960   6.656   2.837   7.380  0.7008  0.5153  1.1414
   54CHL1   C10 3961   6.677   2.672   7.237 -0.8033 -0.2404 -0.1337
   54CHL1   C19 3962   6.659   2.527   7.228  0.5808  0.3190 -0.1808
   54CHL1  H19A 3963   6.718   2.472   7.305 -0.2223 -1.5800 -0.8471
   54CHL1  H19B 3964   6.553   2.503   7.253  0.7476 -1.2332 -0.8706
   54CHL1  H19C 3965   6.669   2.479   7.129  1.8678 -0.6835  0.4045
   54CHL1    C1 3966   6.568   2.750   7.159  0.7136 -0.3933  0.1932
   54CHL1   H1A 3967   6.462   2.723   7.181  0.3487 -0.5819 -1.6413
   54CHL1   H1B 3968   6.581   2.859   7.176  0.1879 -0.3904  0.5987
   54CHL1    C2 3969   6.578   2.730   7.008 -0.4173 -0.3290  0.2312
   54CHL1   H2A 3970   6.494   2.786   6.960 -0.8167 -0.9779  0.1672
   54CHL1   H2B 3971   6.558   2.623   6.987  1.5486 -0.7278  0.1916
   54CHL1   C20 3972   6.631   2.781   7.950  0.6430 -0.2773  0.0239
   54CHL1   H20 3973   6.659   2.681   7.990 -0.2282 -0.0793  1.1874
   54CHL1   C21 3974   6.477   2.784   7.937  0.1435 -0.3123 -0.4166
   54CHL1  H21A 3975   6.442   2.704   7.868 -0.3704  0.4162 -1.0281
   54CHL1  H21B 3976   6.458   2.879   7.882 -0.4564  0.4496  1.0532
   54CHL1  H21C 3977   6.419   2.785   8.032  0.6128  2.2433 -0.0865
   54CHL1   C22 3978   6.669   2.879   8.065  0.4316  1.3750  0.8530
   54CHL1  H22A 3979   6.620   2.845   8.159 -1.1028  2.2237  0.3871
   54CHL1  H22B 3980   6.778   2.874   8.085  0.7794 -0.2253 -1.1463
   54CHL1   C23 3981   6.646   3.033   8.049  1.0319  0.3046  0.0648
   54CHL1  H23A 3982   6.686   3.069   7.952  1.4563 -2.1703 -0.7541
   54CHL1  H23B 3983   6.536   3.050   8.049  0.7375 -1.3253 -0.6564
   54CHL1   C24 3984   6.714   3.112   8.163  0.2929 -0.0272 -0.4128
   54CHL1  H24A 3985   6.674   3.095   8.266 -1.6204  1.0327 -0.9173
   54CHL1  H24B 3986   6.821   3.083   8.166  0.5630  0.5849  4.3746
   54CHL1   C25 3987   6.711   3.263   8.139  0.0858  0.1239  0.0863
   54CHL1   H25 3988   6.609   3.306   8.141  0.2885  0.6131  0.0006
   54CHL1   C26 3989   6.789   3.331   8.254 -0.3410  0.2129  0.1774
   54CHL1  H26A 3990   6.888   3.282   8.263 -0.4553  0.0470  0.5778
   54CHL1  H26B 3991   6.812   3.437   8.231  0.6788  0.0642  0.4752
   54CHL1  H26C 3992   6.732   3.321   8.349  0.5983 -3.0626  0.5232
   54CHL1   C27 3993   6.781   3.304   8.013 -0.3148 -0.4279  0.7565
   54CHL1  H27A 3994   6.713   3.295   7.926  0.9945 -1.6340 -0.1810
   54CHL1  H27B 3995   6.819   3.408   8.015 -0.9289 -0.1368 -1.0801
   54CHL1  H27C 3996   6.861   3.234   7.983 -0.4685  0.4231 -1.8915
   55CHL1    C3 3997   1.874   3.291   6.832  0.4762  0.1870  0.4146
   55CHL1    H3 3998   1.904   3.186   6.813  0.6045 -0.1092  2.0958
   55CHL1    O3 3999   1.923   3.385   6.737 -0.1699 -0.4851 -0.0588
   55CHL1   H3' 4000   1.892   3.472   6.763  2.0773  0.4543 -0.2017
   55CHL1    C4 4001   1.723   3.298   6.836 -0.0091  0.2115 -0.6278
   55CHL1   H4A 4002   1.697   3.406   6.843 -2.9552 -0.4735  0.2411
   55CHL1   H4B 4003   1.682   3.262   6.739  1.3880  0.9627 -1.5339
   55CHL1    C5 4004   1.665   3.212   6.949 -0.5387  0.3486  0.6918
   55CHL1    C6 4005   1.573   3.118   6.926 -0.5955 -0.4399  0.1587
   55CHL1    H6 4006   1.554   3.084   6.823  0.5368 -0.3158 -0.1050
   55CHL1    C7 4007   1.518   3.030   7.033 -0.2622  0.0589 -0.3629
   55CHL1   H7A 4008   1.410   3.015   7.010  0.0313 -0.4687 -1.4542
   55CHL1   H7B 4009   1.584   2.942   7.045  0.5674  0.3759 -2.2229
   55CHL1    C8 4010   1.523   3.107   7.168 -0.6833 -0.3322  0.0705
   55CHL1    H8 4011   1.462   3.197   7.148  0.6748  0.5909 -0.0229
   55CHL1   C14 4012   1.478   3.022   7.281  0.1281  0.4860  0.5065
   55CHL1   H14 4013   1.557   2.944   7.283 -0.2414  0.0680  3.1939
   55CHL1   C15 4014   1.344   2.944   7.268 -0.0820  0.1473 -0.3536
   55CHL1  H15A 4015   1.268   3.005   7.213 -0.4408  0.4980  0.5124
   55CHL1  H15B 4016   1.360   2.849   7.214 -1.7671  0.5356 -1.6318
   55CHL1   C16 4017   1.306   2.919   7.416 -0.1647 -0.2467 -0.1369
   55CHL1  H16A 4018   1.228   2.990   7.451 -0.3564 -2.0636  3.6061
   55CHL1  H16B 4019   1.273   2.813   7.428  1.7740 -1.2220 -2.4675
   55CHL1   C17 4020   1.426   2.970   7.502 -0.6195  0.8021  0.2094
   55CHL1   H17 4021   1.501   2.888   7.497 -0.3841  1.0716 -1.3657
   55CHL1   C13 4022   1.497   3.078   7.423  0.6131 -0.4487  0.4086
   55CHL1   C18 4023   1.413   3.204   7.442 -0.3134  0.5995 -0.4352
   55CHL1  H18A 4024   1.303   3.199   7.427 -0.2191 -1.0966 -0.7796
   55CHL1  H18B 4025   1.425   3.229   7.550  1.1035  0.2582 -0.4874
   55CHL1  H18C 4026   1.460   3.287   7.385 -2.0637  2.5699  0.8706
   55CHL1   C12 4027   1.645   3.100   7.450  0.0182 -0.4143  0.5731
   55CHL1  H12A 4028   1.680   3.151   7.542  1.8503  0.2330 -0.4389
   55CHL1  H12B 4029   1.686   2.997   7.442  1.0932  0.1544 -2.0700
   55CHL1   C11 4030   1.710   3.189   7.341 -0.5867  0.1364  0.6989
   55CHL1  H11A 4031   1.666   3.291   7.349 -1.8656 -0.2297 -1.0154
   55CHL1  H11B 4032   1.820   3.198   7.351 -0.5951  0.7642  0.2815
   55CHL1    C9 4033   1.673   3.145   7.196 -0.3008 -0.5454  0.6519
   55CHL1    H9 4034   1.726   3.051   7.168  0.2010 -0.6471  1.8691
   55CHL1   C10 4035   1.725   3.245   7.090 -0.2432 -0.4767 -0.4241
   55CHL1   C19 4036   1.688   3.390   7.121  0.0445  0.8293  0.0760
   55CHL1  H19A 4037   1.703   3.459   7.036 -1.8433 -0.4327 -1.3605
   55CHL1  H19B 4038   1.580   3.386   7.147  0.1116 -0.1508  0.2272
   55CHL1  H19C 4039   1.732   3.441   7.209 -2.0552  2.0258  0.4975
   55CHL1    C1 4040   1.881   3.237   7.083  0.1794  0.4017 -0.5994
   55CHL1   H1A 4041   1.923   3.253   7.185 -0.4135 -1.6821  0.0218
   55CHL1   H1B 4042   1.911   3.133   7.056  0.8244  0.7121 -1.0961
   55CHL1    C2 4043   1.934   3.323   6.966 -0.3296 -0.0267 -0.3990
   55CHL1   H2A 4044   2.045   3.318   6.956 -0.1613  2.9672 -1.1167
   55CHL1   H2B 4045   1.924   3.433   6.981 -1.1723  0.0551 -1.4434
   55CHL1   C20 4046   1.409   2.980   7.657 -0.6521 -0.2030 -0.1042
   55CHL1   H20 4047   1.493   3.044   7.692 -1.2969  1.3886 -1.3368
   55CHL1   C21 4048   1.434   2.835   7.710 -0.0699  0.0941 -0.4383
   55CHL1  H21A 4049   1.372   2.759   7.657  0.9403 -0.6983 -0.5183
   55CHL1  H21B 4050   1.423   2.818   7.819  2.2621  0.4427 -0.1156
   55CHL1  H21C 4051   1.541   2.810   7.699  0.1167  0.4354  0.5138
   55CHL1   C22 4052   1.280   3.044   7.713 -0.4082 -0.5572  0.8242
   55CHL1  H22A 4053   1.280   3.152   7.687 -1.2292 -1.3136 -2.7974
   55CHL1  H22B 4054   1.188   3.001   7.668 -0.0086  0.5227 -1.1134
   55CHL1   C23 4055   1.274   3.057   7.868 -0.4092 -0.1883 -0.8363
   55CHL1  H23A 4056   1.187   3.118   7.900  0.7949  1.4656 -0.6344
   55CHL1  H23B 4057   1.256   2.953   7.902 -0.2309  0.0594  0.0206
   55CHL1   C24 4058   1.399   3.104   7.936 -0.0708 -0.5950  0.1605
   55CHL1  H24A 4059   1.469   3.018   7.939  0.2580 -0.5923 -3.3813
   55CHL1  H24B 4060   1.447   3.184   7.876  0.5769 -0.6674  0.5680
   55CHL1   C25 4061   1.382   3.145   8.087  0.2224  0.4107  0.4116
   55CHL1   H25 4062   1.296   3.217   8.091 -1.8960 -1.8276 -1.5330
   55CHL1   C26 4063   1.348   3.021   8.171  0.1531  0.1774  0.0920
   55CHL1  H26A 4064   1.425   2.944   8.153 -1.4907 -2.0810  2.0403
   55CHL1  H26B 4065   1.345   3.048   8.279 -1.5132  0.2611  0.0521
   55CHL1  H26C 4066   1.248   2.976   8.151  0.9052 -1.9821  0.9681
   55CHL1   C27 4067   1.498   3.218   8.145 -0.1439 -0.5194 -0.4768
   55CHL1  H27A 4068   1.465   3.283   8.229  0.7686  0.3835 -0.8016
   55CHL1  H27B 4069   1.586   3.160   8.180 -0.6430  0.3422  2.5251
   55CHL1  H27C 4070   1.541   3.285   8.068  0.5174 -3.6495 -3.0453
   56CHL1    C3 4071   2.215   1.183   6.933 -0.1526 -0.1127 -0.0988
   56CHL1    H3 4072   2.114   1.138   6.941 -0.7644  0.9391 -1.5568
   56CHL1    O3 4073   2.247   1.173   6.797  0.5707 -0.2196  0.5592
   56CHL1   H3' 4074   2.292   1.254   6.771  1.5395 -0.7152  0.6460
   56CHL1    C4 4075   2.213   1.331   6.970  0.2734  0.0893  0.3437
   56CHL1   H4A 4076   2.312   1.375   6.946 -0.0602  0.6199 -0.0810
   56CHL1   H4B 4077   2.129   1.383   6.919 -1.4030 -2.8395 -0.0676
   56CHL1    C5 4078   2.210   1.353   7.116  0.3891  1.1447 -0.0951
   56CHL1    C6 4079   2.110   1.434   7.168 -0.8406  0.3351 -0.3729
   56CHL1    H6 4080   2.040   1.477   7.095 -1.8431 -1.9786 -0.8617
   56CHL1    C7 4081   2.097   1.457   7.316  0.2663 -1.0019  0.8683
   56CHL1   H7A 4082   2.088   1.568   7.323  2.8256 -0.6672 -0.0144
   56CHL1   H7B 4083   2.008   1.405   7.356  0.8336 -0.7555  2.5620
   56CHL1    C8 4084   2.226   1.419   7.395 -0.8632 -0.4403 -0.1526
   56CHL1    H8 4085   2.308   1.493   7.382 -2.3679  1.4647  0.6650
   56CHL1   C14 4086   2.194   1.425   7.544  0.0501  0.1239  1.3183
   56CHL1   H14 4087   2.127   1.337   7.560 -0.4369  0.6274  2.0786
   56CHL1   C15 4088   2.122   1.539   7.611 -0.3895 -0.0540  0.0488
   56CHL1  H15A 4089   2.152   1.637   7.568  0.5356  1.1062  3.0616
   56CHL1  H15B 4090   2.012   1.527   7.599 -0.4417 -0.8891  1.1417
   56CHL1   C16 4091   2.158   1.528   7.762  0.0720 -0.4627  0.0583
   56CHL1  H16A 4092   2.214   1.621   7.787 -0.3458 -0.8735  2.7758
   56CHL1  H16B 4093   2.066   1.517   7.822 -0.9079  1.4586 -0.9952
   56CHL1   C17 4094   2.245   1.402   7.778  0.1821  0.6777 -1.1855
   56CHL1   H17 4095   2.173   1.319   7.785 -2.1131  2.6034 -0.6845
   56CHL1   C13 4096   2.310   1.381   7.634  0.0220  0.8403  0.1625
   56CHL1   C18 4097   2.431   1.478   7.629  0.1685  0.2639  0.5921
   56CHL1  H18A 4098   2.424   1.562   7.702 -1.2011 -0.0312  0.8190
   56CHL1  H18B 4099   2.524   1.423   7.655 -0.0103  0.2002  1.1199
   56CHL1  H18C 4100   2.443   1.520   7.527 -1.3095  0.1438  0.3481
   56CHL1   C12 4101   2.349   1.233   7.592 -0.0742  0.5208  0.1937
   56CHL1  H12A 4102   2.436   1.202   7.654  0.7864  2.5452  0.0784
   56CHL1  H12B 4103   2.259   1.172   7.616  0.8643 -1.0142 -0.0973
   56CHL1   C11 4104   2.389   1.224   7.445 -0.3025 -0.4117  0.1210
   56CHL1  H11A 4105   2.474   1.293   7.430  0.0751 -0.5219  1.5548
   56CHL1  H11B 4106   2.411   1.118   7.419 -1.4965 -0.7189  0.2767
   56CHL1    C9 4107   2.279   1.279   7.356 -0.3215 -0.2970 -0.0723
   56CHL1    H9 4108   2.190   1.215   7.368  0.0433 -0.9375 -0.7239
   56CHL1   C10 4109   2.308   1.271   7.201 -0.2061 -0.2375 -0.3583
   56CHL1   C19 4110   2.447   1.331   7.184 -0.3877 -1.0115  0.0698
   56CHL1  H19A 4111   2.477   1.346   7.078  0.2288 -1.3707  0.1895
   56CHL1  H19B 4112   2.466   1.426   7.238  0.1584 -1.4266  0.6183
   56CHL1  H19C 4113   2.522   1.256   7.218  0.0258 -0.7495 -0.2673
   56CHL1    C1 4114   2.304   1.117   7.162  0.1082 -0.4157  0.1611
   56CHL1   H1A 4115   2.388   1.070   7.218  0.4950  0.5474  0.4002
   56CHL1   H1B 4116   2.213   1.066   7.199 -0.4001 -1.4730 -2.3292
   56CHL1    C2 4117   2.319   1.096   7.010 -0.3343 -0.7047 -0.5641
   56CHL1   H2A 4118   2.308   0.990   6.978  1.1898 -1.3831  0.9776
   56CHL1   H2B 4119   2.418   1.132   6.974  1.3522 -4.4196 -0.1252
   56CHL1   C20 4120   2.331   1.404   7.904 -0.0285 -1.0100  0.0460
   56CHL1   H20 4121   2.399   1.490   7.921 -1.5848  0.3592 -0.3668
   56CHL1   C21 4122   2.425   1.277   7.904 -0.0285 -1.1434 -0.3558
   56CHL1  H21A 4123   2.479   1.275   8.001  2.1742 -0.6641 -1.4974
   56CHL1  H21B 4124   2.506   1.306   7.834 -0.0434  2.0773  0.7819
   56CHL1  H21C 4125   2.394   1.172   7.891  1.5734 -1.7694  0.5557
   56CHL1   C22 4126   2.235   1.401   8.030  0.4916 -0.4387 -0.2147
   56CHL1  H22A 4127   2.162   1.484   8.026 -1.4895 -2.1464 -1.5081
   56CHL1  H22B 4128   2.173   1.308   8.034 -0.3920  0.1386 -0.3199
   56CHL1   C23 4129   2.305   1.417   8.165 -0.3433  0.1132 -0.3520
   56CHL1  H23A 4130   2.233   1.386   8.244 -1.8232  0.6277 -1.4508
   56CHL1  H23B 4131   2.389   1.344   8.167 -0.2717  0.2120  0.9694
   56CHL1   C24 4132   2.354   1.562   8.190  0.0094  0.0654 -0.3602
   56CHL1  H24A 4133   2.455   1.568   8.143 -0.3708  0.2729 -1.1752
   56CHL1  H24B 4134   2.286   1.637   8.144  1.0016  0.2548 -1.5986
   56CHL1   C25 4135   2.379   1.597   8.336 -0.0317 -0.0045  0.0076
   56CHL1   H25 4136   2.282   1.599   8.390 -0.3467  1.6934 -0.5459
   56CHL1   C26 4137   2.459   1.493   8.420  0.7419 -0.0127  0.3662
   56CHL1  H26A 4138   2.401   1.399   8.424  0.8365 -0.0851  0.0316
   56CHL1  H26B 4139   2.488   1.537   8.518  3.9466  1.0464 -0.9338
   56CHL1  H26C 4140   2.557   1.481   8.369 -0.0433  0.0256 -1.2082
   56CHL1   C27 4141   2.433   1.745   8.338  0.4062  0.3249 -0.3251
   56CHL1  H27A 4142   2.455   1.785   8.439  4.5697 -1.3880 -0.3620
   56CHL1  H27B 4143   2.530   1.741   8.284  0.6592 -1.2301  0.2095
   56CHL1  H27C 4144   2.372   1.810   8.271 -0.0803 -1.0277 -1.2164
   57SAPC     N 4145   0.804   3.914  11.002 -1.0243  0.1758  0.7663
   57SAPC   C12 4146   0.765   3.905  10.862  0.0042 -0.1227  0.0369
   57SAPC  H12A 4147   0.682   3.838  10.846  0.6472 -1.7944  2.9331
   57SAPC  H12B 4148   0.843   3.861  10.802  0.3754  1.7813 -0.9607
   57SAPC   C13 4149   0.826   3.787  11.070  0.2508  0.2981 -0.5076
   57SAPC  H13A 4150   0.890   3.714  11.023 -0.1986  0.4557 -1.3826
   57SAPC  H13B 4151   0.864   3.807  11.169 -3.2524  4.1534  0.3624
   57SAPC  H13C 4152   0.734   3.733  11.091  0.3588 -0.3628 -1.6393
   57SAPC   C14 4153   0.931   3.995  11.011 -0.2980 -0.3790  0.1939
   57SAPC  H14A 4154   0.924   4.087  10.954 -1.3671  1.3258  2.9109
   57SAPC  H14B 4155   0.952   4.025  11.112 -1.3038  1.6460 -0.1496
   57SAPC  H14C 4156   1.019   3.944  10.974 -0.3626 -0.6998  0.4778
   57SAPC   C15 4157   0.704   3.978  11.087  0.3753  0.5657  0.7961
   57SAPC  H15A 4158   0.747   4.009  11.181  0.7503 -0.2767  0.9104
   57SAPC  H15B 4159   0.664   4.061  11.030 -1.4499 -0.6430  0.2157
   57SAPC  H15C 4160   0.616   3.917  11.098 -0.4416  1.7784  1.1709
   57SAPC   C11 4161   0.731   4.037  10.792 -0.2888  0.1372  0.2957
   57SAPC  H11A 4162   0.727   4.009  10.684 -3.1773 -0.3987  0.4470
   57SAPC  H11B 4163   0.809   4.115  10.803 -0.1160 -0.1049  0.8240
   57SAPC     P 4164   0.479   4.074  10.771  0.3080 -0.2326 -0.3158
   57SAPC   O13 4165   0.417   3.965  10.840 -0.5035 -0.2461  0.3580
   57SAPC   O14 4166   0.399   4.203  10.768 -0.4753  0.9011  0.2083
   57SAPC   O12 4167   0.615   4.105  10.838 -0.7369  0.3015  0.3510
   57SAPC   O11 4168   0.515   4.021  10.627 -0.2268 -0.5041  0.2894
   57SAPC    C1 4169   0.547   4.114  10.529  0.0265 -0.2032 -0.3140
   57SAPC    HA 4170   0.614   4.191  10.573 -1.1292 -0.1783  1.4936
   57SAPC    HB 4171   0.604   4.057  10.452 -1.5123  0.7056 -2.2022
   57SAPC    C2 4172   0.426   4.185  10.457  0.2571 -0.3848 -0.5214
   57SAPC    HS 4173   0.347   4.210  10.531  0.2485 -1.5951 -0.1044
   57SAPC   O21 4174   0.376   4.092  10.356 -0.2344 -0.7320 -0.2248
   57SAPC   C21 4175   0.253   4.119  10.329  0.1774  0.2849  0.0170
   57SAPC   O22 4176   0.188   4.209  10.375  0.0748 -0.0239 -0.3559
   57SAPC   C22 4177   0.203   4.000  10.247  0.5357 -0.3237 -0.2240
   57SAPC   H2R 4178   0.258   3.999  10.150  2.3054 -0.9337  0.7277
   57SAPC   H2S 4179   0.214   3.900  10.293  0.1761 -0.5993 -0.7191
   57SAPC    C3 4180   0.472   4.323  10.395 -0.0895 -0.1000 -0.1013
   57SAPC    HX 4181   0.521   4.376  10.479 -0.1517  1.4442 -0.9944
   57SAPC    HY 4182   0.377   4.377  10.377 -0.8966 -1.2911  0.4331
   57SAPC   O31 4183   0.560   4.319  10.276 -0.1521  0.1912 -0.4567
   57SAPC   C31 4184   0.501   4.325  10.157 -0.4295 -0.5589 -0.3136
   57SAPC   O32 4185   0.380   4.337  10.153  0.4152 -0.0175 -0.1857
   57SAPC   C32 4186   0.600   4.309  10.043  0.0617 -0.5500 -0.3206
   57SAPC   H2X 4187   0.676   4.235  10.075  0.1450 -1.0136 -1.5492
   57SAPC   H2Y 4188   0.644   4.411  10.034  0.9664 -1.0014 -1.0866
   57SAPC   C23 4189   0.050   4.018  10.217  0.1304 -0.2899  0.1024
   57SAPC   H3R 4190   0.030   4.118  10.173  3.4770 -0.2678 -1.6819
   57SAPC   H3S 4191   0.009   4.020  10.320 -0.9061  1.2525 -0.2948
   57SAPC   C24 4192  -0.015   3.915  10.126 -0.9216  0.6009 -0.6014
   57SAPC   H4R 4193   0.009   3.937  10.020  2.6667  2.6680  0.5064
   57SAPC   H4S 4194  -0.123   3.941  10.132 -1.0899 -0.3249  0.9346
   57SAPC   C25 4195   0.001   3.772  10.167 -0.2791 -0.5823  0.2110
   57SAPC   H5R 4196  -0.033   3.743  10.268 -1.9317  1.1784  0.2086
   57SAPC   C26 4197   0.074   3.690  10.102 -0.3711  0.0938  0.1740
   57SAPC   H6R 4198   0.088   3.590  10.146 -0.4612  0.5598  1.2927
   57SAPC   C27 4199   0.158   3.707   9.977 -0.4116 -0.2702  1.2564
   57SAPC   H7R 4200   0.252   3.650   9.990 -1.6027 -2.5608  0.3314
   57SAPC   H7S 4201   0.193   3.813   9.969  0.1089 -0.5042  0.1137
   57SAPC   C28 4202   0.080   3.676   9.852 -0.4253  0.1436  0.4479
   57SAPC   H8R 4203   0.009   3.593   9.866 -1.2037  0.7444  0.1574
   57SAPC   C29 4204   0.103   3.719   9.730 -0.1214 -0.1410 -0.1394
   57SAPC   H9R 4205   0.046   3.674   9.648 -0.1093 -1.2372  0.4395
   57SAPC  C210 4206   0.205   3.812   9.671  1.2811  0.1167 -0.0149
   57SAPC  H10R 4207   0.257   3.761   9.587  0.2827 -1.4124  0.2517
   57SAPC  H10S 4208   0.277   3.855   9.745  2.3824  0.3369 -1.1791
   57SAPC  C211 4209   0.134   3.937   9.617  0.1279  0.5741 -0.1509
   57SAPC  H11R 4210   0.075   3.992   9.691 -0.1166  0.6292 -0.3838
   57SAPC  C212 4211   0.129   3.992   9.493 -0.1248  0.1537  0.4532
   57SAPC  H12R 4212   0.078   4.089   9.486 -0.0835  0.2464  1.3399
   57SAPC  C213 4213   0.213   3.937   9.373 -0.2438  0.1215 -0.1470
   57SAPC  H13R 4214   0.135   3.903   9.301 -1.0071  1.6072 -0.0536
   57SAPC  H13S 4215   0.278   3.848   9.390 -1.3905 -1.1360 -1.8931
   57SAPC  C214 4216   0.292   4.052   9.327  0.0368  0.2021  0.8827
   57SAPC  H14R 4217   0.352   4.095   9.408  1.3546 -2.7888  1.6363
   57SAPC  C215 4218   0.288   4.102   9.206 -0.6183 -0.8992  0.5288
   57SAPC  H15R 4219   0.327   4.201   9.179 -1.9623 -0.4575  0.1099
   57SAPC  C216 4220   0.209   4.045   9.082 -0.3964 -0.2559  0.4859
   57SAPC  H16R 4221   0.108   4.090   9.071  0.2794  1.5577  1.3531
   57SAPC  H16S 4222   0.196   3.935   9.086  3.4449 -0.8549  0.5610
   57SAPC  C217 4223   0.286   4.069   8.947 -1.2586 -0.4264  0.4764
   57SAPC  H17R 4224   0.361   3.986   8.948 -1.1206 -0.3110 -0.0688
   57SAPC  H17S 4225   0.332   4.168   8.967  2.0138 -1.8861  0.8461
   57SAPC  C218 4226   0.219   4.079   8.814 -0.1276  0.0464 -0.0519
   57SAPC  H18R 4227   0.132   4.147   8.824 -1.6931 -1.8665  0.1200
   57SAPC  H18S 4228   0.174   3.983   8.780  1.8530 -0.9707  0.0974
   57SAPC  C219 4229   0.312   4.142   8.704  1.0322  0.5808  0.2604
   57SAPC  H19R 4230   0.316   4.252   8.713 -1.2800  0.6729  0.7753
   57SAPC  H19S 4231   0.260   4.124   8.608 -0.6229 -1.0160  1.3942
   57SAPC  C220 4232   0.451   4.089   8.703  1.3230 -0.1438  0.0176
   57SAPC  H20R 4233   0.512   4.137   8.624 -1.9780  1.0496 -2.0028
   57SAPC  H20S 4234   0.449   3.981   8.674  0.0209  0.1346 -1.0302
   57SAPC  H20T 4235   0.488   4.098   8.808 -1.9673 -0.5985  1.3508
   57SAPC   C33 4236   0.531   4.260   9.906 -0.6830 -0.3476 -0.2931
   57SAPC   H3X 4237   0.431   4.308   9.898 -0.2035  1.6558  3.2601
   57SAPC   H3Y 4238   0.509   4.151   9.916  0.6676 -0.6935 -0.9686
   57SAPC   C34 4239   0.596   4.292   9.779 -0.3844 -0.0682 -0.0199
   57SAPC   H4X 4240   0.687   4.351   9.801  0.2030 -1.3458  1.0628
   57SAPC   H4Y 4241   0.529   4.344   9.707 -0.6801 -1.9685 -1.1856
   57SAPC   C35 4242   0.643   4.176   9.696 -0.1450 -0.1429  1.0408
   57SAPC   H5X 4243   0.573   4.091   9.685  0.8258 -0.7014 -1.8014
   57SAPC   H5Y 4244   0.734   4.134   9.743  0.5346  1.9275  1.6867
   57SAPC   C36 4245   0.681   4.208   9.547 -0.3681 -0.4730 -1.3234
   57SAPC   H6X 4246   0.781   4.258   9.549 -0.8478  0.4734  0.3390
   57SAPC   H6Y 4247   0.609   4.281   9.506 -0.3308  1.5203  1.8833
   57SAPC   C37 4248   0.704   4.092   9.440 -0.2891  0.5559 -0.2046
   57SAPC   H7X 4249   0.602   4.054   9.415  1.3576 -2.6106 -2.7597
   57SAPC   H7Y 4250   0.761   4.012   9.491 -0.5412 -0.0400 -0.8371
   57SAPC   C38 4251   0.770   4.132   9.309 -0.0936  0.4085  0.6844
   57SAPC   H8X 4252   0.801   4.036   9.263  0.6452  1.6860 -1.5964
   57SAPC   H8Y 4253   0.859   4.184   9.349  0.5085 -0.4237  0.4452
   57SAPC   C39 4254   0.696   4.218   9.209 -0.2698  0.1342  1.1459
   57SAPC   H9X 4255   0.670   4.317   9.253  1.0001  0.7284  0.6128
   57SAPC   H9Y 4256   0.606   4.162   9.177  0.6497 -0.0121 -1.4098
   57SAPC  C310 4257   0.783   4.245   9.082  0.1258  0.5451  0.0044
   57SAPC  H10X 4258   0.807   4.153   9.025 -0.2229  0.7911 -0.5519
   57SAPC  H10Y 4259   0.877   4.287   9.125 -1.1593  0.6805  2.9130
   57SAPC  C311 4260   0.709   4.328   8.980  0.0775 -0.0198  0.5201
   57SAPC  H11X 4261   0.706   4.431   9.022 -1.2137  0.7151 -1.2791
   57SAPC  H11Y 4262   0.606   4.286   8.972 -0.1755  0.5852  0.5084
   57SAPC  C312 4263   0.775   4.333   8.840 -0.3697  0.2435 -0.0963
   57SAPC  H12X 4264   0.783   4.229   8.803  1.5466 -0.2152  1.4312
   57SAPC  H12Y 4265   0.877   4.377   8.849  0.3025 -1.3881  0.6243
   57SAPC  C313 4266   0.698   4.418   8.744  0.6301  0.2487  0.6945
   57SAPC  H13X 4267   0.669   4.521   8.773 -1.1594  0.3056 -1.1694
   57SAPC  H13Y 4268   0.608   4.359   8.719  1.5371  0.0939 -2.5891
   57SAPC  C314 4269   0.766   4.425   8.604 -0.3250 -0.0359  0.0640
   57SAPC  H14X 4270   0.775   4.328   8.550 -0.6434  0.3250 -0.6534
   57SAPC  H14Y 4271   0.874   4.451   8.612  0.1308 -1.2949 -1.5124
   57SAPC  C315 4272   0.710   4.532   8.507 -0.6800  1.0971 -0.1853
   57SAPC  H15X 4273   0.779   4.554   8.422 -0.2264 -1.1966 -0.4996
   57SAPC  H15Y 4274   0.700   4.629   8.560 -1.2961  0.6970  0.4486
   57SAPC  C316 4275   0.585   4.486   8.430 -0.2206 -0.1829  0.3651
   57SAPC  H16X 4276   0.504   4.466   8.504 -1.0891  1.5494 -0.0585
   57SAPC  H16Y 4277   0.595   4.392   8.373  0.3136  1.4229 -2.3717
   57SAPC  C317 4278   0.542   4.591   8.324 -0.2024  0.1380  0.7362
   57SAPC  H17X 4279   0.625   4.604   8.252 -0.0161 -1.3683  0.6564
   57SAPC  H17Y 4280   0.521   4.691   8.369 -0.7442 -0.4195  1.7584
   57SAPC  C318 4281   0.414   4.553   8.241 -1.0504 -0.0183 -0.8105
   57SAPC  H18X 4282   0.404   4.599   8.140  1.0437 -0.7393 -1.3849
   57SAPC  H18Y 4283   0.333   4.581   8.312  1.5282  1.1379  1.9026
   57SAPC  H18Z 4284   0.414   4.443   8.231 -0.7049 -0.3643  2.1457
   58SAPC     N 4285   1.373   1.610  10.888  0.5062 -0.4135  0.3033
   58SAPC   C12 4286   1.501   1.574  10.810  0.2549  0.5532  0.0853
   58SAPC  H12A 4287   1.513   1.467  10.817 -2.7301  0.0611 -0.9197
   58SAPC  H12B 4288   1.588   1.611  10.863  2.4012 -2.3055 -1.1492
   58SAPC   C13 4289   1.364   1.760  10.914  0.0499  0.2426 -0.5781
   58SAPC  H13A 4290   1.352   1.826  10.829  1.7941 -2.5308 -3.1936
   58SAPC  H13B 4291   1.301   1.784  10.998  0.5593  1.4254 -0.5134
   58SAPC  H13C 4292   1.459   1.794  10.954  0.2366 -1.6618  0.7400
   58SAPC   C14 4293   1.250   1.561  10.820 -0.5824  0.0888 -0.0786
   58SAPC  H14A 4294   1.164   1.578  10.883 -0.8703 -1.1931 -0.0874
   58SAPC  H14B 4295   1.223   1.617  10.731  0.2674  0.6197 -0.0134
   58SAPC  H14C 4296   1.262   1.456  10.797  1.7015  0.4074 -0.5364
   58SAPC   C15 4297   1.387   1.554  11.024  0.1690 -0.6135  0.3525
   58SAPC  H15A 4298   1.376   1.447  11.014 -0.5693 -0.8097  2.5697
   58SAPC  H15B 4299   1.473   1.601  11.070  0.6020 -0.2180 -0.8354
   58SAPC  H15C 4300   1.304   1.581  11.088  0.7176  1.0263  0.4172
   58SAPC   C11 4301   1.511   1.608  10.661  0.3716 -0.4750 -0.4584
   58SAPC  H11A 4302   1.612   1.593  10.616  1.3159 -0.1307  1.4422
   58SAPC  H11B 4303   1.504   1.719  10.659  0.2996 -0.4874 -1.4668
   58SAPC     P 4304   1.441   1.386  10.566  0.0036  0.2058  0.1922
   58SAPC   O13 4305   1.562   1.345  10.642 -0.4212  0.0305  0.8330
   58SAPC   O14 4306   1.315   1.327  10.616 -0.0278  0.0453 -0.0330
   58SAPC   O12 4307   1.423   1.539  10.579  0.7922 -0.0099 -0.6671
   58SAPC   O11 4308   1.470   1.363  10.414 -0.1610  0.1717 -0.2445
   58SAPC    C1 4309   1.374   1.403  10.311 -0.0054 -0.6344 -0.3303
   58SAPC    HA 4310   1.305   1.321  10.282 -0.5429  0.0802 -1.1417
   58SAPC    HB 4311   1.319   1.493  10.346  1.3040  0.0277  0.0980
   58SAPC    C2 4312   1.449   1.452  10.176 -0.6539  0.0133 -0.5455
   58SAPC    HS 4313   1.454   1.563  10.171 -0.2314  0.0745  0.6798
   58SAPC   O21 4314   1.384   1.391  10.061 -0.1596  0.3528 -0.2316
   58SAPC   C21 4315   1.290   1.462  10.013  0.2696 -0.3058  0.5922
   58SAPC   O22 4316   1.245   1.566  10.058 -0.0675  0.4161 -0.3598
   58SAPC   C22 4317   1.244   1.401   9.878  0.6272  0.0562  0.0328
   58SAPC   H2R 4318   1.318   1.435   9.802 -1.9436  1.2552 -2.0909
   58SAPC   H2S 4319   1.242   1.290   9.884  0.6572  0.0493 -0.0891
   58SAPC    C3 4320   1.595   1.395  10.178  0.6417 -0.3410  0.0383
   58SAPC    HX 4321   1.594   1.285  10.188  4.1688 -0.7197 -2.0856
   58SAPC    HY 4322   1.648   1.427  10.271  0.2348 -1.4239  0.6590
   58SAPC   O31 4323   1.674   1.436  10.067 -0.1235 -0.4640  0.1607
   58SAPC   C31 4324   1.808   1.419  10.091  0.4275  0.2072 -0.6306
   58SAPC   O32 4325   1.853   1.372  10.195 -0.4068 -0.2011 -0.1226
   58SAPC   C32 4326   1.879   1.478   9.968  1.1246  0.0075 -0.5471
   58SAPC   H2X 4327   1.894   1.587   9.987  0.6420 -0.0442  0.1680
   58SAPC   H2Y 4328   1.811   1.481   9.880  2.3881 -0.4065 -1.5642
   58SAPC   C23 4329   1.093   1.435   9.851 -0.8922  0.3281  0.3069
   58SAPC   H3R 4330   1.070   1.542   9.871 -0.2082  1.0154 -2.2654
   58SAPC   H3S 4331   1.022   1.372   9.909 -1.7215  0.1547 -0.8393
   58SAPC   C24 4332   1.052   1.401   9.703  0.1540 -0.4877  0.1263
   58SAPC   H4R 4333   0.941   1.405   9.696  0.2358  0.2813 -0.9577
   58SAPC   H4S 4334   1.073   1.293   9.691 -2.5714 -0.8555 -2.6104
   58SAPC   C25 4335   1.109   1.489   9.598 -0.4749  0.1224  0.2851
   58SAPC   H5R 4336   1.157   1.581   9.635  1.1445 -1.4667  2.3248
   58SAPC   C26 4337   1.110   1.464   9.464  0.3759  0.3831 -0.4664
   58SAPC   H6R 4338   1.162   1.531   9.394  1.3420  0.8991  0.6975
   58SAPC   C27 4339   1.038   1.349   9.401  0.5576  1.6430  0.5929
   58SAPC   H7R 4340   0.966   1.387   9.325 -1.1842 -1.9960  0.2125
   58SAPC   H7S 4341   0.969   1.299   9.473 -1.0001  1.5225 -0.9122
   58SAPC   C28 4342   1.136   1.248   9.348 -0.2183 -0.7324 -0.2210
   58SAPC   H8R 4343   1.183   1.185   9.425  1.8321  0.1708 -0.6652
   58SAPC   C29 4344   1.174   1.247   9.218 -1.0539  0.7442 -0.0628
   58SAPC   H9R 4345   1.268   1.197   9.190  0.6633  3.7968 -0.0956
   58SAPC  C210 4346   1.127   1.322   9.093 -0.4819 -0.7548  0.3277
   58SAPC  H10R 4347   1.021   1.349   9.106 -0.4133  0.3635 -1.1623
   58SAPC  H10S 4348   1.128   1.244   9.014 -0.2071 -1.2654  0.8235
   58SAPC  C211 4349   1.222   1.443   9.065  0.5301  0.0299 -0.0696
   58SAPC  H11R 4350   1.310   1.453   9.130  0.3564 -2.8163  0.7188
   58SAPC  C212 4351   1.210   1.521   8.958 -0.0186  0.7399  0.7660
   58SAPC  H12R 4352   1.267   1.614   8.948  0.5486  0.3715  0.5303
   58SAPC  C213 4353   1.098   1.491   8.863  0.7351 -0.5502 -0.6534
   58SAPC  H13R 4354   1.017   1.430   8.907  0.6153 -0.8519 -1.2747
   58SAPC  H13S 4355   1.135   1.418   8.787 -1.6667 -2.8787  0.2622
   58SAPC  C214 4356   1.039   1.617   8.807  0.1089 -0.8292  0.2882
   58SAPC  H14R 4357   0.939   1.635   8.849 -0.9537 -2.7183 -1.2862
   58SAPC  C215 4358   1.085   1.706   8.716  0.1177  0.1703  0.3373
   58SAPC  H15R 4359   1.030   1.801   8.706  0.9846  0.5033 -1.8947
   58SAPC  C216 4360   1.218   1.697   8.649 -0.3521 -0.4563  0.1879
   58SAPC  H16R 4361   1.300   1.685   8.723 -0.0056  0.8651  0.0320
   58SAPC  H16S 4362   1.234   1.798   8.607 -1.6066 -0.5277 -0.5110
   58SAPC  C217 4363   1.230   1.587   8.547  0.0786 -0.0717 -1.1850
   58SAPC  H17R 4364   1.151   1.607   8.471 -1.1286 -1.4381 -0.3375
   58SAPC  H17S 4365   1.207   1.489   8.593 -1.6361  0.4345 -0.9068
   58SAPC  C218 4366   1.366   1.588   8.479  0.2621 -0.6737  0.1280
   58SAPC  H18R 4367   1.398   1.689   8.445  0.8324 -0.3787  1.4633
   58SAPC  H18S 4368   1.358   1.525   8.388 -1.9453 -1.4320  0.7947
   58SAPC  C219 4369   1.466   1.527   8.563  0.0919 -0.6282  0.7170
   58SAPC  H19R 4370   1.426   1.426   8.589 -4.1051  0.0941 -1.8954
   58SAPC  H19S 4371   1.486   1.586   8.655 -1.0957  0.4393  0.3169
   58SAPC  C220 4372   1.605   1.518   8.496  0.4698 -0.2788 -0.4072
   58SAPC  H20R 4373   1.587   1.495   8.388 -0.9327 -4.0669  0.4811
   58SAPC  H20S 4374   1.653   1.427   8.539 -1.0172 -1.0553 -0.3130
   58SAPC  H20T 4375   1.660   1.612   8.516 -0.9809  0.4408  0.3443
   58SAPC   C33 4376   2.005   1.402   9.929  0.4703  0.1892  0.2642
   58SAPC   H3X 4377   1.977   1.295   9.928 -0.4991  0.4367  0.4267
   58SAPC   H3Y 4378   2.096   1.426   9.989  2.4466 -3.4745 -0.9930
   58SAPC   C34 4379   2.058   1.433   9.790  0.5285 -0.3251  0.1522
   58SAPC   H4X 4380   2.159   1.388   9.779  0.4351  0.0999 -3.5465
   58SAPC   H4Y 4381   2.061   1.543   9.778  2.0015 -0.3572  0.0847
   58SAPC   C35 4382   1.980   1.375   9.672  0.8665  0.7788 -0.4990
   58SAPC   H5X 4383   1.877   1.417   9.676 -0.0466 -1.4281  0.7397
   58SAPC   H5Y 4384   1.968   1.266   9.686 -0.4591  1.1031  1.1338
   58SAPC   C36 4385   2.062   1.395   9.545  0.3354 -0.0907 -0.1133
   58SAPC   H6X 4386   2.166   1.357   9.559  0.2057 -1.5601 -2.6275
   58SAPC   H6Y 4387   2.076   1.503   9.522 -0.6321 -0.0906 -0.7338
   58SAPC   C37 4388   2.001   1.327   9.422  0.1501  0.6631 -0.9270
   58SAPC   H7X 4389   1.894   1.358   9.426  0.6632  2.4127  1.8931
   58SAPC   H7Y 4390   2.000   1.217   9.436  0.0921  0.8696  0.9017
   58SAPC   C38 4391   2.064   1.372   9.288  0.2248  0.4575  0.4304
   58SAPC   H8X 4392   2.174   1.353   9.279  0.3883  0.6283  1.8974
   58SAPC   H8Y 4393   2.045   1.481   9.283  0.7736  0.5064 -1.4271
   58SAPC   C39 4394   2.016   1.309   9.152  0.2501  0.3534 -0.1578
   58SAPC   H9X 4395   1.909   1.335   9.142  0.0690 -0.3873 -0.1898
   58SAPC   H9Y 4396   2.017   1.198   9.152 -0.3817  0.3454 -0.0047
   58SAPC  C310 4397   2.079   1.353   9.024  0.1486 -0.2509 -0.5095
   58SAPC  H10X 4398   2.188   1.331   9.028  0.0085 -0.7738  1.9936
   58SAPC  H10Y 4399   2.085   1.464   9.018  2.3176 -0.3478 -1.1765
   58SAPC  C311 4400   2.018   1.304   8.894 -0.3507  0.4923  1.1469
   58SAPC  H11X 4401   1.912   1.338   8.888 -0.6488 -0.6964 -2.0588
   58SAPC  H11Y 4402   2.010   1.194   8.879 -1.8803  1.0609 -3.8376
   58SAPC  C312 4403   2.092   1.354   8.771  0.1505 -0.2259 -0.2884
   58SAPC  H12X 4404   2.196   1.316   8.769 -0.3797 -1.8099  0.7451
   58SAPC  H12Y 4405   2.095   1.465   8.780  0.3934 -0.1776 -0.9161
   58SAPC  C313 4406   2.023   1.319   8.645 -0.0290 -0.3523  0.0155
   58SAPC  H13X 4407   1.913   1.333   8.660 -0.3756 -1.2015 -1.4901
   58SAPC  H13Y 4408   2.033   1.210   8.623  2.9796  0.1419 -1.5053
   58SAPC  C314 4409   2.078   1.405   8.530  0.1526  0.4428 -0.4533
   58SAPC  H14X 4410   2.170   1.352   8.498 -1.6297 -1.3665 -3.0147
   58SAPC  H14Y 4411   2.108   1.506   8.565 -1.3474  0.5584  0.6067
   58SAPC  C315 4412   1.982   1.420   8.416  0.8948 -0.3886 -0.0402
   58SAPC  H15X 4413   2.032   1.483   8.339 -1.9141 -0.8159 -2.4093
   58SAPC  H15Y 4414   1.893   1.478   8.448  0.6592 -0.2007 -1.0038
   58SAPC  C316 4415   1.940   1.290   8.346 -0.3236 -0.4698  0.6354
   58SAPC  H16X 4416   1.896   1.220   8.420 -0.4590 -1.9312 -0.7642
   58SAPC  H16Y 4417   2.039   1.248   8.317  0.0430  0.9148 -0.2179
   58SAPC  C317 4418   1.869   1.314   8.210  0.4011  0.1034  0.3391
   58SAPC  H17X 4419   1.937   1.366   8.139  1.7001 -1.2891  0.5041
   58SAPC  H17Y 4420   1.784   1.384   8.222 -1.4817 -1.7738 -1.4709
   58SAPC  C318 4421   1.826   1.186   8.152 -0.3517  0.4140  0.0253
   58SAPC  H18X 4422   1.748   1.137   8.214  0.5618  1.6688  2.2808
   58SAPC  H18Y 4423   1.913   1.117   8.146  1.1325  2.1317  0.7130
   58SAPC  H18Z 4424   1.795   1.203   8.047  1.2086  1.5904 -0.2809
   59SAPC     N 4425   5.230   2.913  11.163  0.5584 -0.6284  0.3674
   59SAPC   C12 4426   5.326   2.893  11.050 -0.1741 -0.5088 -0.2209
   59SAPC  H12A 4427   5.281   2.848  10.963  0.3531 -0.9682 -0.2616
   59SAPC  H12B 4428   5.404   2.822  11.074 -1.5106 -2.1288 -0.5586
   59SAPC   C13 4429   5.302   2.985  11.279  0.6888  0.8364  0.0677
   59SAPC  H13A 4430   5.399   2.941  11.294 -0.0791 -1.2716 -0.8546
   59SAPC  H13B 4431   5.306   3.090  11.254 -1.8783  1.2938  1.2116
   59SAPC  H13C 4432   5.246   2.979  11.372 -1.9907  1.5531 -1.4004
   59SAPC   C14 4433   5.113   2.998  11.115  0.5727 -0.9807  0.4706
   59SAPC  H14A 4434   5.148   3.092  11.074 -1.4907  0.1331  1.1417
   59SAPC  H14B 4435   5.063   2.947  11.034  0.8430 -0.4940 -0.0089
   59SAPC  H14C 4436   5.049   3.030  11.196  1.8135  0.9601  0.7402
   59SAPC   C15 4437   5.172   2.782  11.206 -0.4762 -0.7352 -0.0025
   59SAPC  H15A 4438   5.253   2.720  11.241  0.5615  1.2753  1.3267
   59SAPC  H15B 4439   5.107   2.808  11.287  1.1042 -2.2806  1.8543
   59SAPC  H15C 4440   5.119   2.737  11.123 -1.0887  0.7369 -0.4566
   59SAPC   C11 4441   5.394   3.025  10.984  0.0054 -0.3797  0.3238
   59SAPC  H11A 4442   5.325   3.111  10.972  1.7881  0.7928 -2.7655
   59SAPC  H11B 4443   5.413   2.997  10.878  2.6993  2.8036 -0.2080
   59SAPC     P 4444   5.599   3.194  11.031  0.5061 -0.2932 -0.4863
   59SAPC   O13 4445   5.513   3.300  11.082  0.3929  0.1492 -0.1200
   59SAPC   O14 4446   5.725   3.170  11.099 -0.6021  0.0214  0.5721
   59SAPC   O12 4447   5.520   3.056  11.049 -0.6690  0.1269 -0.2700
   59SAPC   O11 4448   5.616   3.208  10.876  0.4275 -0.3714 -1.0108
   59SAPC    C1 4449   5.733   3.159  10.814 -0.1909 -0.0773  0.0453
   59SAPC    HA 4450   5.812   3.236  10.825 -1.2438  0.8821  1.1382
   59SAPC    HB 4451   5.759   3.063  10.863  0.9655  1.3834  2.5066
   59SAPC    C2 4452   5.703   3.116  10.660 -0.2186 -0.6676  0.9497
   59SAPC    HS 4453   5.788   3.082  10.598 -2.0067  0.1030 -2.1441
   59SAPC   O21 4454   5.654   3.237  10.593 -0.3224 -0.3216  0.3370
   59SAPC   C21 4455   5.732   3.337  10.573  0.4017 -0.3667 -0.4087
   59SAPC   O22 4456   5.847   3.342  10.625  0.0419 -0.4466  0.4679
   59SAPC   C22 4457   5.660   3.451  10.488  0.1604  0.5561 -0.1876
   59SAPC   H2R 4458   5.665   3.405  10.387 -0.8967 -1.5599  0.6686
   59SAPC   H2S 4459   5.555   3.465  10.523  0.3477  0.1633  0.5620
   59SAPC    C3 4460   5.600   3.005  10.639  0.1211  0.3858 -1.1709
   59SAPC    HX 4461   5.506   3.047  10.680  0.8406 -0.9568  2.2213
   59SAPC    HY 4462   5.615   2.920  10.708 -2.1864 -0.1516 -1.2704
   59SAPC   O31 4463   5.595   2.952  10.505 -0.2048  0.1935  0.1522
   59SAPC   C31 4464   5.483   2.901  10.480  0.1948  0.0754 -0.0858
   59SAPC   O32 4465   5.382   2.903  10.557  0.0110  0.5126  0.3476
   59SAPC   C32 4466   5.479   2.850  10.331  0.2959  0.2261 -0.0295
   59SAPC   H2X 4467   5.491   2.740  10.332 -0.8630  0.0211 -2.5631
   59SAPC   H2Y 4468   5.575   2.886  10.289 -0.0155 -0.5479 -1.4550
   59SAPC   C23 4469   5.728   3.585  10.507  0.9124 -0.4221  0.5922
   59SAPC   H3R 4470   5.839   3.586  10.504  0.9432  2.1370  0.4547
   59SAPC   H3S 4471   5.689   3.625  10.603  0.7193 -0.9786  0.7445
   59SAPC   C24 4472   5.666   3.683  10.400 -0.0602  0.5056 -0.1142
   59SAPC   H4R 4473   5.740   3.677  10.317 -1.0776 -0.5323 -0.9789
   59SAPC   H4S 4474   5.670   3.780  10.453 -0.2625  0.3357  0.2163
   59SAPC   C25 4475   5.520   3.664  10.354  0.0903 -0.4454  0.1363
   59SAPC   H5R 4476   5.450   3.679  10.437 -0.3684  2.9218 -0.7419
   59SAPC   C26 4477   5.487   3.626  10.226 -0.0007 -0.1072 -0.9614
   59SAPC   H6R 4478   5.380   3.633  10.203 -0.2918 -0.1761  0.2858
   59SAPC   C27 4479   5.577   3.591  10.109  0.5179  0.2039  0.2399
   59SAPC   H7R 4480   5.520   3.537  10.029  1.6776  0.2726 -0.6645
   59SAPC   H7S 4481   5.652   3.516  10.143 -0.9156 -2.7161 -2.4976
   59SAPC   C28 4482   5.631   3.707  10.038 -0.2897  0.2042 -0.1622
   59SAPC   H8R 4483   5.655   3.798  10.095 -0.4492 -0.2075  0.5630
   59SAPC   C29 4484   5.667   3.712   9.907 -0.3223 -0.1127 -0.3243
   59SAPC   H9R 4485   5.704   3.807   9.867 -2.5647  0.3031 -1.5567
   59SAPC  C210 4486   5.668   3.601   9.806 -0.1025  0.3858  0.1129
   59SAPC  H10R 4487   5.563   3.597   9.770 -0.0920 -1.7069  0.2356
   59SAPC  H10S 4488   5.695   3.509   9.861  0.4953  1.7957  2.3273
   59SAPC  C211 4489   5.766   3.616   9.696  0.7865 -1.0445  0.1393
   59SAPC  H11R 4490   5.869   3.631   9.733  0.6223  0.1397  0.1613
   59SAPC  C212 4491   5.745   3.598   9.563  0.2968 -0.3977 -0.7004
   59SAPC  H12R 4492   5.822   3.631   9.492  1.0537 -1.8092 -0.5871
   59SAPC  C213 4493   5.622   3.552   9.490  1.2791  0.2472  0.3817
   59SAPC  H13R 4494   5.546   3.506   9.557  1.6137 -1.5388 -0.4090
   59SAPC  H13S 4495   5.648   3.476   9.414 -1.3348 -1.1511  0.7840
   59SAPC  C214 4496   5.551   3.662   9.421  0.2376  0.1266  0.1739
   59SAPC  H14R 4497   5.518   3.746   9.484 -2.7495 -0.2003 -0.8047
   59SAPC  C215 4498   5.544   3.677   9.286  0.6386  0.1728  0.1848
   59SAPC  H15R 4499   5.483   3.760   9.246  1.2492  0.0836 -0.9656
   59SAPC  C216 4500   5.608   3.598   9.175 -0.0197  0.2884 -1.1666
   59SAPC  H16R 4501   5.529   3.555   9.109  1.0380  0.8430 -2.8529
   59SAPC  H16S 4502   5.659   3.510   9.220  0.0981  1.5558  1.3756
   59SAPC  C217 4503   5.701   3.678   9.084 -0.0794 -0.5760  0.6264
   59SAPC  H17R 4504   5.787   3.715   9.144  0.4756  2.0997 -1.5870
   59SAPC  H17S 4505   5.642   3.766   9.050  0.0899  0.6274  3.2303
   59SAPC  C218 4506   5.757   3.605   8.961  0.2295  0.0827 -0.3248
   59SAPC  H18R 4507   5.681   3.567   8.890 -0.6024  3.4226 -1.3862
   59SAPC  H18S 4508   5.824   3.527   9.003  2.1426  2.1063  0.6000
   59SAPC  C219 4509   5.849   3.695   8.876 -0.1196  0.8454 -0.0540
   59SAPC  H19R 4510   5.925   3.743   8.942  0.9157  0.1787 -0.7296
   59SAPC  H19S 4511   5.797   3.781   8.829  0.9475  1.2704 -0.5071
   59SAPC  C220 4512   5.913   3.625   8.761  0.0646 -0.6447 -0.2158
   59SAPC  H20R 4513   5.979   3.686   8.695  2.7676 -2.8383  0.2679
   59SAPC  H20S 4514   5.831   3.597   8.691 -0.2670  1.3026 -0.6685
   59SAPC  H20T 4515   5.972   3.538   8.798 -0.8395 -0.2841  2.2757
   59SAPC   C33 4516   5.367   2.885  10.240  0.3399 -0.3902 -0.3465
   59SAPC   H3X 4517   5.350   2.993  10.256  0.8104 -0.8799  5.0478
   59SAPC   H3Y 4518   5.274   2.830  10.265  1.5374 -1.7393  1.3731
   59SAPC   C34 4519   5.398   2.848  10.096  0.2036  0.1692  0.5191
   59SAPC   H4X 4520   5.388   2.738  10.083 -0.8784  0.2173  0.8221
   59SAPC   H4Y 4521   5.498   2.881  10.061  0.2216 -0.1288  0.2811
   59SAPC   C35 4522   5.297   2.937  10.013  0.1150  0.3544 -0.5657
   59SAPC   H5X 4523   5.334   3.041  10.022 -1.1479  0.6844  2.1468
   59SAPC   H5Y 4524   5.190   2.932  10.043 -0.0283 -0.7688 -1.2167
   59SAPC   C36 4525   5.298   2.898   9.862  0.6957 -0.2822 -0.1722
   59SAPC   H6X 4526   5.235   2.974   9.811  1.6332  0.3611 -0.3766
   59SAPC   H6Y 4527   5.232   2.808   9.859  0.2493 -0.1851  3.0707
   59SAPC   C37 4528   5.430   2.870   9.799 -0.0375  1.0789 -0.5921
   59SAPC   H7X 4529   5.483   2.791   9.856 -2.0142  0.5920  0.6436
   59SAPC   H7Y 4530   5.492   2.963   9.803  0.5506  0.6526  1.6809
   59SAPC   C38 4531   5.418   2.826   9.652  0.5350  0.2045  0.3259
   59SAPC   H8X 4532   5.349   2.744   9.624  1.3279 -0.5585  0.5643
   59SAPC   H8Y 4533   5.516   2.778   9.633  0.0903 -1.3788  1.7453
   59SAPC   C39 4534   5.391   2.942   9.562 -0.5231 -0.0355 -0.2761
   59SAPC   H9X 4535   5.460   3.025   9.590  0.4078 -2.2125  5.0779
   59SAPC   H9Y 4536   5.290   2.981   9.586  0.1710  2.7449 -1.4525
   59SAPC  C310 4537   5.402   2.901   9.414 -0.0888  0.3096  0.6127
   59SAPC  H10X 4538   5.331   2.817   9.401  0.3725 -0.0887  0.6481
   59SAPC  H10Y 4539   5.508   2.875   9.392  0.6062  2.1438  1.5141
   59SAPC  C311 4540   5.364   3.007   9.311 -0.1296  0.0021 -0.1425
   59SAPC  H11X 4541   5.436   3.090   9.329  0.2560  0.0927 -1.8583
   59SAPC  H11Y 4542   5.256   3.022   9.333 -0.2915 -0.7962 -0.3562
   59SAPC  C312 4543   5.381   2.950   9.170 -0.2123  0.5661  0.3765
   59SAPC  H12X 4544   5.318   2.858   9.158 -1.6444  1.6294 -0.6401
   59SAPC  H12Y 4545   5.490   2.933   9.157 -0.5731 -1.0409 -0.7910
   59SAPC  C313 4546   5.341   3.058   9.067  0.0700  0.1228  0.4281
   59SAPC  H13X 4547   5.397   3.150   9.094  0.8941 -0.1267 -0.3879
   59SAPC  H13Y 4548   5.232   3.078   9.074  0.1162  0.3479  0.4914
   59SAPC  C314 4549   5.356   3.028   8.921 -0.7536  0.3577  0.0245
   59SAPC  H14X 4550   5.312   2.928   8.902 -1.4351  0.1106  2.5438
   59SAPC  H14Y 4551   5.464   3.021   8.896 -0.5212  0.4030  0.9754
   59SAPC  C315 4552   5.286   3.132   8.833 -0.1572  0.3482  0.1711
   59SAPC  H15X 4553   5.337   3.227   8.858 -0.3515  0.5251 -0.0981
   59SAPC  H15Y 4554   5.179   3.135   8.864 -0.1966  0.4490  0.0251
   59SAPC  C316 4555   5.309   3.096   8.686 -0.1637 -0.5112  0.7925
   59SAPC  H16X 4556   5.234   3.019   8.656  0.1399 -0.2737 -0.6038
   59SAPC  H16Y 4557   5.415   3.062   8.683  0.1875  0.6046 -0.3377
   59SAPC  C317 4558   5.303   3.225   8.602  0.4276  0.3335 -0.3425
   59SAPC  H17X 4559   5.358   3.205   8.507  3.0325 -0.3601  1.2245
   59SAPC  H17Y 4560   5.364   3.307   8.646 -0.7238  0.2113  1.6026
   59SAPC  C318 4561   5.158   3.266   8.575  0.2049  0.5352  0.3209
   59SAPC  H18X 4562   5.139   3.361   8.521 -1.5273  0.6881  1.1256
   59SAPC  H18Y 4563   5.109   3.276   8.674 -1.1251 -2.0363 -0.0033
   59SAPC  H18Z 4564   5.105   3.189   8.517 -0.4054  1.7683 -0.8050
   60SAPC     N 4565   5.713   2.100  11.181 -0.0483  0.5733 -0.7269
   60SAPC   C12 4566   5.849   2.161  11.135 -0.4250 -0.0402 -0.3447
   60SAPC  H12A 4567   5.910   2.166  11.224  0.0269  0.5296 -0.6869
   60SAPC  H12B 4568   5.826   2.260  11.101 -0.9161 -0.5264 -1.4751
   60SAPC   C13 4569   5.639   2.191  11.269 -0.1982 -0.0115 -0.2335
   60SAPC  H13A 4570   5.629   2.287  11.221  1.8769  0.0105 -0.6810
   60SAPC  H13B 4571   5.538   2.158  11.291  0.0181 -2.2718 -2.3102
   60SAPC  H13C 4572   5.684   2.208  11.366 -2.0833 -0.5149  0.7934
   60SAPC   C14 4573   5.617   2.077  11.065 -0.1436 -0.4240  0.0711
   60SAPC  H14A 4574   5.672   2.012  10.998  2.0180  0.5071  0.8669
   60SAPC  H14B 4575   5.524   2.028  11.092 -0.6311  0.6477  0.3815
   60SAPC  H14C 4576   5.598   2.168  11.010 -0.1165 -0.5304 -0.1149
   60SAPC   C15 4577   5.746   1.975  11.259 -0.1477  0.2966  1.2617
   60SAPC  H15A 4578   5.662   1.939  11.317  0.4731 -2.2532  0.6844
   60SAPC  H15B 4579   5.773   1.900  11.187  1.4311  1.0791  1.0077
   60SAPC  H15C 4580   5.830   1.998  11.323  2.7547  1.4729 -2.5863
   60SAPC   C11 4581   5.929   2.091  11.029 -0.1579  0.4531  0.3529
   60SAPC  H11A 4582   5.856   2.077  10.947 -0.9384  1.7937  0.7823
   60SAPC  H11B 4583   5.969   1.993  11.064 -1.4175 -0.2393 -0.0749
   60SAPC     P 4584   6.054   2.321  10.931 -0.0251  1.0431 -0.3597
   60SAPC   O13 4585   5.995   2.415  11.029  0.2743 -0.5252 -0.3257
   60SAPC   O14 4586   6.191   2.349  10.889  0.2779  0.3256  0.3246
   60SAPC   O12 4587   6.042   2.171  10.988  0.2548 -0.8059  0.1284
   60SAPC   O11 4588   5.959   2.320  10.802  0.8865 -0.6235  0.0118
   60SAPC    C1 4589   5.978   2.221  10.704 -0.2993  0.4594 -0.1291
   60SAPC    HA 4590   6.082   2.196  10.675 -0.5360 -2.6295  1.3022
   60SAPC    HB 4591   5.914   2.132  10.725  1.4007 -0.6749  0.4985
   60SAPC    C2 4592   5.903   2.263  10.571  0.2313 -0.0904 -0.2004
   60SAPC    HS 4593   5.805   2.308  10.599 -0.6515 -2.2917  0.5384
   60SAPC   O21 4594   5.891   2.145  10.485  0.4987  0.4541  0.1077
   60SAPC   C21 4595   5.768   2.117  10.457 -0.3625 -0.3271  0.1628
   60SAPC   O22 4596   5.669   2.161  10.513  0.0377  0.2788 -0.0636
   60SAPC   C22 4597   5.764   1.997  10.353 -0.5183  0.0684  0.2067
   60SAPC   H2R 4598   5.864   1.952  10.345  0.1886  1.6635 -0.4600
   60SAPC   H2S 4599   5.698   1.917  10.394  1.2860 -0.7632  1.5890
   60SAPC    C3 4600   5.977   2.380  10.503  0.1435  0.0954  0.1657
   60SAPC    HX 4601   6.085   2.357  10.510 -0.0520 -1.3433 -0.9687
   60SAPC    HY 4602   5.956   2.479  10.550 -0.9149  0.5097 -1.0993
   60SAPC   O31 4603   5.933   2.407  10.364 -0.2226  0.5594  0.0615
   60SAPC   C31 4604   6.027   2.475  10.289  0.3282 -0.2768 -0.0543
   60SAPC   O32 4605   6.139   2.504  10.332 -0.1276 -0.3243  0.4330
   60SAPC   C32 4606   5.991   2.482  10.139  0.0863  0.8721  0.5983
   60SAPC   H2X 4607   5.918   2.563  10.118  0.7141  0.8013 -2.2715
   60SAPC   H2Y 4608   5.932   2.390  10.121  0.0941  0.8940  0.4576
   60SAPC   C23 4609   5.710   2.043  10.215 -0.4200 -0.1186  0.0364
   60SAPC   H3R 4610   5.782   2.112  10.167 -1.4852 -0.0682 -1.5479
   60SAPC   H3S 4611   5.621   2.105  10.238  0.5695  1.0414  0.9107
   60SAPC   C24 4612   5.676   1.935  10.114 -0.0356  0.0690 -0.6039
   60SAPC   H4R 4613   5.603   1.978  10.041  0.7800  0.0088 -1.4803
   60SAPC   H4S 4614   5.610   1.869  10.173 -0.2173  1.4850  0.8333
   60SAPC   C25 4615   5.783   1.855  10.042  0.0438 -0.2553  0.7150
   60SAPC   H5R 4616   5.843   1.790  10.107  1.9034 -0.4535 -1.0753
   60SAPC   C26 4617   5.812   1.854   9.909  0.1044 -0.1444  0.1627
   60SAPC   H6R 4618   5.889   1.782   9.877  1.5616  1.7775 -0.8602
   60SAPC   C27 4619   5.740   1.938   9.803  0.2697  0.0016 -0.1389
   60SAPC   H7R 4620   5.799   2.022   9.762 -0.0731 -0.3511 -1.4247
   60SAPC   H7S 4621   5.647   1.983   9.845 -0.2757 -1.6800  0.5581
   60SAPC   C28 4622   5.712   1.846   9.687 -0.5158  0.1316  0.0477
   60SAPC   H8R 4623   5.647   1.759   9.703 -0.1470 -0.9171 -3.3440
   60SAPC   C29 4624   5.749   1.870   9.562  1.1949 -0.2802 -0.0307
   60SAPC   H9R 4625   5.725   1.791   9.489 -2.8980 -1.3131  2.1534
   60SAPC  C210 4626   5.828   1.987   9.496  0.2992 -0.2638 -0.5649
   60SAPC  H10R 4627   5.908   1.933   9.440  1.7044  1.4337 -0.2772
   60SAPC  H10S 4628   5.884   2.049   9.570  0.2699 -1.4531  0.4958
   60SAPC  C211 4629   5.732   2.070   9.415 -0.5145  0.3155 -0.1821
   60SAPC  H11R 4630   5.680   2.010   9.339  0.3476  0.1072 -0.6174
   60SAPC  C212 4631   5.702   2.201   9.435 -0.1865  0.5336  0.0541
   60SAPC  H12R 4632   5.636   2.250   9.362 -1.7677  1.0028  1.7312
   60SAPC  C213 4633   5.760   2.291   9.546 -0.2399  0.1116 -0.1012
   60SAPC  H13R 4634   5.865   2.311   9.519  0.1074 -1.9961 -0.4646
   60SAPC  H13S 4635   5.761   2.237   9.644 -2.5410 -1.3501 -0.7841
   60SAPC  C214 4636   5.686   2.421   9.561  0.4150 -0.4987  0.7664
   60SAPC  H14R 4637   5.659   2.468   9.465 -0.1641  0.6068  1.4547
   60SAPC  C215 4638   5.659   2.492   9.669  0.0405  0.3784  0.4263
   60SAPC  H15R 4639   5.614   2.591   9.646  2.6619  1.3173 -1.1123
   60SAPC  C216 4640   5.706   2.452   9.806 -0.2070 -0.5685  0.3229
   60SAPC  H16R 4641   5.782   2.519   9.849  0.7447 -0.8455 -0.8620
   60SAPC  H16S 4642   5.754   2.352   9.798  3.0094  0.8147  0.8666
   60SAPC  C217 4643   5.588   2.470   9.902  0.3648 -0.1379  0.4472
   60SAPC  H17R 4644   5.494   2.413   9.881  1.5555 -2.6100  1.3801
   60SAPC  H17S 4645   5.568   2.578   9.910 -0.7774 -0.0739 -2.2069
   60SAPC  C218 4646   5.630   2.424  10.041 -0.3585  0.0459  0.9811
   60SAPC  H18R 4647   5.729   2.464  10.072 -0.1061 -0.0953  0.3661
   60SAPC  H18S 4648   5.638   2.314  10.037 -2.4566 -0.1181 -0.2743
   60SAPC  C219 4649   5.517   2.458  10.143  0.1725 -0.8870 -0.3965
   60SAPC  H19R 4650   5.417   2.441  10.096  0.1278  0.1972 -0.7363
   60SAPC  H19S 4651   5.511   2.567  10.163  0.4076 -0.3873 -2.6963
   60SAPC  C220 4652   5.542   2.378  10.275  0.0482  0.6298  0.3856
   60SAPC  H20R 4653   5.640   2.408  10.320  0.2283 -1.1671  1.2679
   60SAPC  H20S 4654   5.525   2.269  10.268 -0.3166  0.6648  0.7191
   60SAPC  H20T 4655   5.478   2.415  10.358  1.5642  0.3778  1.7279
   60SAPC   C33 4656   6.111   2.477  10.037 -0.1133 -0.6686  0.0103
   60SAPC   H3X 4657   6.181   2.395  10.063 -0.8692 -1.1065  0.7280
   60SAPC   H3Y 4658   6.174   2.568  10.044 -1.3861  0.5791 -2.8830
   60SAPC   C34 4659   6.067   2.469   9.889  0.6481 -0.2551  0.5382
   60SAPC   H4X 4660   6.020   2.566   9.862  2.4159  0.3224 -0.6784
   60SAPC   H4Y 4661   5.996   2.388   9.860 -1.1343  1.4150  0.0184
   60SAPC   C35 4662   6.187   2.468   9.789  0.2667  0.1120 -0.2237
   60SAPC   H5X 4663   6.230   2.366   9.803  0.3940 -0.2433 -2.6993
   60SAPC   H5Y 4664   6.264   2.546   9.811 -1.5813  1.2420  2.7917
   60SAPC   C36 4665   6.125   2.473   9.647 -0.5491 -0.6037  0.3220
   60SAPC   H6X 4666   6.055   2.558   9.637  1.2857  0.9368 -0.1163
   60SAPC   H6Y 4667   6.064   2.381   9.641 -0.5444 -0.5153 -2.2999
   60SAPC   C37 4668   6.235   2.467   9.537 -0.3888  0.1271  0.5680
   60SAPC   H7X 4669   6.292   2.373   9.551 -0.0821  0.0367 -0.9981
   60SAPC   H7Y 4670   6.302   2.556   9.537 -0.6780  0.4285 -1.7158
   60SAPC   C38 4671   6.171   2.470   9.394 -0.2316 -0.7269  0.4117
   60SAPC   H8X 4672   6.098   2.554   9.391  1.3436  0.7123  0.2176
   60SAPC   H8Y 4673   6.109   2.378   9.395 -0.5339 -0.5242  0.5844
   60SAPC   C39 4674   6.257   2.481   9.278 -0.0015  0.0253  0.7768
   60SAPC   H9X 4675   6.347   2.418   9.292  0.2357 -0.2743 -1.6177
   60SAPC   H9Y 4676   6.282   2.587   9.255  0.1189 -0.7190 -3.4377
   60SAPC  C310 4677   6.193   2.428   9.144 -0.8306  0.3203  0.2423
   60SAPC  H10X 4678   6.167   2.321   9.164 -0.1456 -0.3982 -2.3671
   60SAPC  H10Y 4679   6.264   2.419   9.059 -2.6336 -0.5730 -1.2329
   60SAPC  C311 4680   6.067   2.503   9.095  0.0464 -0.1676 -0.8277
   60SAPC  H11X 4681   6.054   2.462   8.993  0.4484 -1.0759 -0.5193
   60SAPC  H11Y 4682   6.092   2.611   9.099  0.5007 -0.2352  3.4584
   60SAPC  C312 4683   5.931   2.488   9.171  0.3120  0.4003 -0.1084
   60SAPC  H12X 4684   5.941   2.538   9.270  1.3468  0.7307 -0.3691
   60SAPC  H12Y 4685   5.923   2.380   9.195 -0.8112  0.2169 -1.2483
   60SAPC  C313 4686   5.807   2.531   9.091  0.0414  0.1376 -0.0166
   60SAPC  H13X 4687   5.798   2.474   8.996  0.2506  2.2376 -1.3601
   60SAPC  H13Y 4688   5.815   2.636   9.057 -1.1055  0.2410 -0.0004
   60SAPC  C314 4689   5.686   2.520   9.185  0.2888 -0.5245  0.1780
   60SAPC  H14X 4690   5.701   2.585   9.274 -4.5180  0.5373  0.4878
   60SAPC  H14Y 4691   5.680   2.415   9.220  3.4008 -0.0742  2.4874
   60SAPC  C315 4692   5.556   2.579   9.125  0.2630  0.0409  0.3838
   60SAPC  H15X 4693   5.553   2.690   9.119  0.5312 -0.0173 -1.8694
   60SAPC  H15Y 4694   5.485   2.539   9.200 -0.5482  0.0677 -0.3581
   60SAPC  C316 4695   5.529   2.542   8.977  0.3346 -0.0753  0.1780
   60SAPC  H16X 4696   5.530   2.434   8.951 -0.5641  0.2206 -1.1703
   60SAPC  H16Y 4697   5.615   2.579   8.918 -0.9644  0.4923 -1.4524
   60SAPC  C317 4698   5.408   2.618   8.924 -0.2474 -0.1430  0.0698
   60SAPC  H17X 4699   5.440   2.723   8.941  1.6576 -0.5972 -0.4458
   60SAPC  H17Y 4700   5.327   2.589   8.994  0.0802 -0.1157  0.4647
   60SAPC  C318 4701   5.376   2.592   8.779  0.1402 -0.0558 -0.0968
   60SAPC  H18X 4702   5.466   2.606   8.715  0.2970  0.8877  0.3082
   60SAPC  H18Y 4703   5.292   2.654   8.743 -1.2456 -0.7733  1.7341
   60SAPC  H18Z 4704   5.339   2.488   8.771 -3.9664  1.3752 -2.8192
   61SAPC     N 4705   5.427   0.932  11.223  0.2270  0.4968  0.0650
   61SAPC   C12 4706   5.529   0.841  11.284  0.0245  0.0092 -0.0298
   61SAPC  H12A 4707   5.531   0.857  11.391 -1.8556  0.2085  0.0130
   61SAPC  H12B 4708   5.621   0.879  11.242  0.0433 -0.4486 -0.4067
   61SAPC   C13 4709   5.449   1.070  11.276  0.1615  0.0531  0.0415
   61SAPC  H13A 4710   5.489   1.070  11.376 -1.6499 -0.9630  0.8199
   61SAPC  H13B 4711   5.524   1.115  11.212  0.0746  0.5724  0.3030
   61SAPC  H13C 4712   5.365   1.137  11.283  0.6293  0.6507 -0.0149
   61SAPC   C14 4713   5.448   0.941  11.075  0.4729 -0.1856  0.4729
   61SAPC  H14A 4714   5.432   0.847  11.025 -0.3487 -0.1054  0.5615
   61SAPC  H14B 4715   5.374   1.006  11.031  1.5726  0.1199 -0.9675
   61SAPC  H14C 4716   5.546   0.983  11.064 -0.4822  1.6327 -1.7861
   61SAPC   C15 4717   5.295   0.883  11.254  0.0671 -0.0628 -0.9679
   61SAPC  H15A 4718   5.222   0.960  11.233  0.1186  0.3266  0.1930
   61SAPC  H15B 4719   5.271   0.792  11.201 -0.2271 -1.6856  1.7169
   61SAPC  H15C 4720   5.279   0.876  11.361  2.0880  2.5273 -0.4135
   61SAPC   C11 4721   5.529   0.697  11.243  0.3011 -0.3770 -0.1294
   61SAPC  H11A 4722   5.424   0.660  11.247  0.2934 -0.6112 -1.9189
   61SAPC  H11B 4723   5.587   0.639  11.319  0.0921  0.0469  0.3615
   61SAPC     P 4724   5.519   0.591  10.997  0.0901 -0.0003 -0.3905
   61SAPC   O13 4725   5.510   0.453  11.039  0.0180 -0.1009  0.1043
   61SAPC   O14 4726   5.394   0.663  10.973  0.2506 -0.4242 -0.1495
   61SAPC   O12 4727   5.588   0.684  11.109 -0.1276  0.2076  0.4435
   61SAPC   O11 4728   5.607   0.606  10.871 -0.2144 -0.3454 -0.6335
   61SAPC    C1 4729   5.646   0.730  10.814 -0.5001  0.8948  0.1014
   61SAPC    HA 4730   5.561   0.792  10.778 -1.8067  0.0492  1.5827
   61SAPC    HB 4731   5.712   0.775  10.891  0.8589 -1.5924  0.4953
   61SAPC    C2 4732   5.744   0.714  10.688  0.3879  0.5143 -0.2303
   61SAPC    HS 4733   5.770   0.820  10.663 -1.1571  2.0859  3.9728
   61SAPC   O21 4734   5.674   0.641  10.583  0.3031 -0.3537 -0.4095
   61SAPC   C21 4735   5.595   0.722  10.516  0.0129 -0.2365  0.2583
   61SAPC   O22 4736   5.592   0.842  10.534  0.0060  0.1294  0.2170
   61SAPC   C22 4737   5.510   0.645  10.419  0.1275  1.1707  0.4570
   61SAPC   H2R 4738   5.534   0.538  10.404  1.9770  1.1855  2.7948
   61SAPC   H2S 4739   5.409   0.658  10.464 -0.1936 -1.5013  0.6728
   61SAPC    C3 4740   5.880   0.633  10.719 -0.0748  0.0470  0.0737
   61SAPC    HX 4741   5.859   0.554  10.795 -1.3943  0.8018  0.5388
   61SAPC    HY 4742   5.946   0.707  10.770 -0.3146 -0.3729  1.0221
   61SAPC   O31 4743   5.938   0.566  10.605 -0.4025  0.0118 -0.3945
   61SAPC   C31 4744   5.995   0.649  10.526 -0.1356 -0.3284  0.0521
   61SAPC   O32 4745   6.021   0.764  10.560 -0.1905 -0.1444 -0.0539
   61SAPC   C32 4746   6.036   0.588  10.398 -0.0323 -0.2878 -0.2878
   61SAPC   H2X 4747   5.948   0.545  10.345 -0.4921  0.3160 -0.0297
   61SAPC   H2Y 4748   6.106   0.506  10.424  0.0535  0.5948  2.5835
   61SAPC   C23 4749   5.522   0.712  10.276 -0.3047  0.0959 -0.0142
   61SAPC   H3R 4750   5.496   0.820  10.282 -0.4000  0.0028  2.3650
   61SAPC   H3S 4751   5.434   0.666  10.226 -0.3721  0.4217 -0.1928
   61SAPC   C24 4752   5.652   0.693  10.200 -0.0617  0.2496 -0.0333
   61SAPC   H4R 4753   5.736   0.687  10.272  1.2860  1.3847 -1.4393
   61SAPC   H4S 4754   5.672   0.785  10.140 -0.1437  0.1940 -0.1475
   61SAPC   C25 4755   5.655   0.562  10.129  0.1017  0.1201  0.9509
   61SAPC   H5R 4756   5.677   0.469  10.183  1.6056 -1.6358 -2.3859
   61SAPC   C26 4757   5.631   0.555   9.994 -0.1474  0.5616  0.1472
   61SAPC   H6R 4758   5.614   0.455   9.952  2.9061 -0.7909  1.7993
   61SAPC   C27 4759   5.593   0.667   9.900 -0.4998 -0.8999  0.2396
   61SAPC   H7R 4760   5.557   0.753   9.960  0.4153 -0.7074  0.5306
   61SAPC   H7S 4761   5.503   0.647   9.839 -0.7481  0.7707  0.0070
   61SAPC   C28 4762   5.704   0.693   9.796 -0.3509  0.3441 -0.0845
   61SAPC   H8R 4763   5.803   0.675   9.840  0.2127  2.8218 -0.2120
   61SAPC   C29 4764   5.696   0.703   9.664 -0.1859 -0.0833 -0.4750
   61SAPC   H9R 4765   5.794   0.719   9.616  1.2767  1.1624  2.6780
   61SAPC  C210 4766   5.582   0.694   9.573  0.2699  0.1388  0.2063
   61SAPC  H10R 4767   5.579   0.779   9.502  0.1954 -1.0557 -1.2639
   61SAPC  H10S 4768   5.486   0.704   9.628  0.4908 -1.1560  0.8630
   61SAPC  C211 4769   5.597   0.561   9.507 -0.0319  0.5427  0.3261
   61SAPC  H11R 4770   5.564   0.475   9.567 -1.5756  0.9823  0.1351
   61SAPC  C212 4771   5.625   0.542   9.378 -0.2592  0.1234  0.5450
   61SAPC  H12R 4772   5.617   0.442   9.332 -0.1642  0.7590 -0.9042
   61SAPC  C213 4773   5.657   0.640   9.266  0.2694 -0.6284  0.1738
   61SAPC  H13R 4774   5.656   0.746   9.300  1.1384 -1.2103  2.1238
   61SAPC  H13S 4775   5.572   0.637   9.194 -0.3776 -0.0304  0.8910
   61SAPC  C214 4776   5.802   0.617   9.213  1.2358 -0.2667 -0.1650
   61SAPC  H14R 4777   5.865   0.559   9.281 -1.1994 -1.5512  1.1331
   61SAPC  C215 4778   5.845   0.646   9.088 -0.2370  0.0355 -0.5468
   61SAPC  H15R 4779   5.945   0.611   9.062 -0.6590 -0.9656 -0.8859
   61SAPC  C216 4780   5.783   0.709   8.963  0.5356 -0.8238 -0.7877
   61SAPC  H16R 4781   5.782   0.820   8.967  0.5184 -0.7753 -1.7831
   61SAPC  H16S 4782   5.679   0.672   8.950  1.0332 -1.9306 -1.9494
   61SAPC  C217 4783   5.859   0.664   8.835  0.2779 -0.0622  0.1331
   61SAPC  H17R 4784   5.836   0.559   8.808  1.6807 -0.1639 -0.7584
   61SAPC  H17S 4785   5.969   0.668   8.848  0.3223 -0.8415  0.0096
   61SAPC  C218 4786   5.836   0.761   8.725  0.2346 -0.1973  0.0572
   61SAPC  H18R 4787   5.853   0.867   8.754  0.8975 -0.0149 -0.9512
   61SAPC  H18S 4788   5.734   0.742   8.685  0.6193 -1.5558 -0.3199
   61SAPC  C219 4789   5.929   0.731   8.605  0.1049  0.1253  0.0189
   61SAPC  H19R 4790   5.899   0.633   8.563  2.4685 -0.4604 -0.4538
   61SAPC  H19S 4791   6.033   0.712   8.639 -0.2992 -0.8850  0.7453
   61SAPC  C220 4792   5.930   0.832   8.495 -0.2371 -0.9787  0.2123
   61SAPC  H20R 4793   5.972   0.924   8.540  1.3358 -1.0410 -1.0210
   61SAPC  H20S 4794   5.825   0.850   8.465 -0.0181  1.4638  0.7297
   61SAPC  H20T 4795   5.995   0.795   8.412 -0.5253 -1.1201  0.0468
   61SAPC   C33 4796   6.108   0.685  10.293 -0.0318 -0.2052 -0.1217
   61SAPC   H3X 4797   6.175   0.757  10.343 -0.7769  0.6086 -0.2754
   61SAPC   H3Y 4798   6.039   0.748  10.233 -0.3802  0.0581  0.5459
   61SAPC   C34 4799   6.194   0.602  10.199  0.2484 -0.2700 -1.0377
   61SAPC   H4X 4800   6.128   0.535  10.139 -0.3501 -0.2088 -0.4605
   61SAPC   H4Y 4801   6.261   0.540  10.262 -0.6471 -0.7933 -0.5765
   61SAPC   C35 4802   6.281   0.680  10.097 -0.5539  0.2802 -0.0167
   61SAPC   H5X 4803   6.331   0.760  10.156 -0.2179  2.2580 -2.7826
   61SAPC   H5Y 4804   6.218   0.737  10.026  1.7671  2.6432 -0.3569
   61SAPC   C36 4805   6.393   0.586  10.041  0.3678  0.2525 -0.1470
   61SAPC   H6X 4806   6.344   0.518   9.967  1.4917  1.3252 -1.9606
   61SAPC   H6Y 4807   6.434   0.532  10.129  0.6016  0.7150  0.0268
   61SAPC   C37 4808   6.508   0.659   9.975  0.6147  0.4723  0.6335
   61SAPC   H7X 4809   6.539   0.731  10.054  0.5620  0.1965  0.9062
   61SAPC   H7Y 4810   6.489   0.730   9.891  0.3440 -1.2670 -0.8314
   61SAPC   C38 4811   6.622   0.563   9.929  0.3101  0.1885  0.2400
   61SAPC   H8X 4812   6.588   0.492   9.851 -2.5760  0.1868  1.3638
   61SAPC   H8Y 4813   6.654   0.503  10.017 -1.1701 -0.9180  0.0598
   61SAPC   C39 4814   6.759   0.635   9.895  0.5396 -0.0866 -0.1080
   61SAPC   H9X 4815   6.843   0.562   9.895  0.1431 -0.5433 -0.6023
   61SAPC   H9Y 4816   6.769   0.699   9.985  0.5348 -1.2576  0.7484
   61SAPC  C310 4817   6.738   0.725   9.771 -0.1871  0.2641 -0.1389
   61SAPC  H10X 4818   6.830   0.787   9.766  0.8658 -1.2810 -0.7215
   61SAPC  H10Y 4819   6.652   0.792   9.789 -0.7503  0.0334 -1.7493
   61SAPC  C311 4820   6.739   0.641   9.641  1.2032  0.5035  1.5765
   61SAPC  H11X 4821   6.715   0.717   9.565 -0.6511 -1.3122  0.2334
   61SAPC  H11Y 4822   6.664   0.559   9.650  0.5616  0.9965  0.7598
   61SAPC  C312 4823   6.878   0.566   9.609  0.2333  0.0866 -0.0061
   61SAPC  H12X 4824   6.881   0.482   9.682 -2.7059 -0.1979 -0.0960
   61SAPC  H12Y 4825   6.963   0.637   9.623  1.8184 -1.9343  1.1621
   61SAPC  C313 4826   6.891   0.514   9.466 -0.3546  0.6738 -0.7789
   61SAPC  H13X 4827   6.812   0.554   9.399 -1.9266 -2.0244 -0.6660
   61SAPC  H13Y 4828   6.886   0.404   9.461  1.0570  0.5617 -0.0421
   61SAPC  C314 4829   7.023   0.564   9.408 -0.6276 -0.0767  0.3035
   61SAPC  H14X 4830   7.097   0.515   9.476 -0.2922 -2.6442 -1.7363
   61SAPC  H14Y 4831   7.027   0.674   9.402 -2.5558  0.0325  0.6416
   61SAPC  C315 4832   7.054   0.501   9.268 -0.5653 -0.1386  0.2823
   61SAPC  H15X 4833   7.070   0.391   9.280 -0.3413 -0.0225  1.1796
   61SAPC  H15Y 4834   7.151   0.542   9.234 -1.7177  3.4149  0.8659
   61SAPC  C316 4835   6.948   0.537   9.157 -0.3606 -0.1148 -0.2835
   61SAPC  H16X 4836   6.933   0.647   9.156 -0.5740 -0.1238  0.8475
   61SAPC  H16Y 4837   6.854   0.495   9.198 -0.7420  2.5643  1.8571
   61SAPC  C317 4838   6.976   0.500   9.008  0.8013  0.5391  0.1679
   61SAPC  H17X 4839   6.896   0.525   8.936 -0.0710  0.3331  1.0364
   61SAPC  H17Y 4840   6.972   0.389   9.014 -0.9487  0.5985  0.4733
   61SAPC  C318 4841   7.117   0.543   8.960  0.2385 -0.0148  0.1862
   61SAPC  H18X 4842   7.129   0.511   8.854  0.6224 -1.1831  0.5694
   61SAPC  H18Y 4843   7.202   0.508   9.022 -0.3618 -1.6490  0.1246
   61SAPC  H18Z 4844   7.111   0.654   8.956  0.0604  0.0054  0.8995
   62SAPC     N 4845   0.286   0.615  10.929  0.1954 -0.4473  0.1969
   62SAPC   C12 4846   0.243   0.750  10.988 -0.3216  0.5641  0.7224
   62SAPC  H12A 4847   0.330   0.813  10.995 -0.0581  0.0776  2.2908
   62SAPC  H12B 4848   0.212   0.745  11.092  1.1142  1.2235  1.1958
   62SAPC   C13 4849   0.405   0.564  11.004  0.0204  0.4617 -0.5018
   62SAPC  H13A 4850   0.476   0.645  11.013  0.2885  0.3984 -1.9581
   62SAPC  H13B 4851   0.375   0.546  11.106 -1.4187  2.7607 -0.4387
   62SAPC  H13C 4852   0.445   0.474  10.960  0.3425  0.7591 -0.8167
   62SAPC   C14 4853   0.173   0.513  10.932 -1.0916 -0.3057  1.2024
   62SAPC  H14A 4854   0.084   0.559  10.891  1.0609  3.2286  0.0852
   62SAPC  H14B 4855   0.201   0.421  10.883 -2.9358 -0.2434 -0.1034
   62SAPC  H14C 4856   0.150   0.469  11.028 -1.2790  0.7581  1.6593
   62SAPC   C15 4857   0.337   0.632  10.784  0.6501 -0.3053 -0.6389
   62SAPC  H15A 4858   0.369   0.539  10.741  2.0543  0.0642 -0.4738
   62SAPC  H15B 4859   0.248   0.670  10.736  0.4961 -0.6479 -0.6255
   62SAPC  H15C 4860   0.424   0.696  10.776  0.7385 -0.2224  0.6378
   62SAPC   C11 4861   0.120   0.823  10.931 -0.3100  0.0921 -0.7274
   62SAPC  H11A 4862   0.152   0.929  10.934  0.0756  0.1615 -3.8953
   62SAPC  H11B 4863   0.031   0.817  10.997  1.2734 -3.0209  1.3837
   62SAPC     P 4864  -0.050   0.776  10.738  0.0182  0.0915 -0.2464
   62SAPC   O13 4865  -0.096   0.646  10.795 -0.0714 -0.2214  0.0432
   62SAPC   O14 4866  -0.130   0.894  10.780 -0.4784 -0.4925 -0.2538
   62SAPC   O12 4867   0.087   0.790  10.796  0.1120  0.2999 -0.0972
   62SAPC   O11 4868  -0.031   0.769  10.577  0.4950 -0.4077  0.0034
   62SAPC    C1 4869   0.091   0.734  10.506  0.0606 -0.1093 -0.5630
   62SAPC    HA 4870   0.159   0.822  10.506 -1.3953  1.0699 -0.9349
   62SAPC    HB 4871   0.146   0.647  10.548  1.8524  0.7453 -1.0631
   62SAPC    C2 4872   0.056   0.692  10.365 -0.2957 -0.6185 -0.0938
   62SAPC    HS 4873   0.150   0.671  10.309 -0.1337  1.1599 -0.5633
   62SAPC   O21 4874  -0.018   0.796  10.300  0.1941 -0.4968  0.2523
   62SAPC   C21 4875   0.059   0.890  10.240  0.3253  0.5251  0.6311
   62SAPC   O22 4876   0.177   0.893  10.228 -0.1102 -0.4375  0.6061
   62SAPC   C22 4877  -0.030   1.001  10.189 -0.0760 -0.3504 -0.6500
   62SAPC   H2R 4878  -0.131   0.963  10.216  1.1759 -1.5246  2.9869
   62SAPC   H2S 4879  -0.009   1.095  10.244  0.1328 -0.0518 -1.2361
   62SAPC    C3 4880  -0.023   0.557  10.358  0.1422 -0.0002 -0.0024
   62SAPC    HX 4881  -0.070   0.537  10.260  0.2117  0.1155 -0.0609
   62SAPC    HY 4882  -0.108   0.565  10.429 -1.6235 -0.6709 -1.9534
   62SAPC   O31 4883   0.045   0.435  10.400  0.3746  0.0559  0.5958
   62SAPC   C31 4884  -0.026   0.329  10.409 -0.4831 -0.1154 -0.5675
   62SAPC   O32 4885  -0.147   0.328  10.401 -0.0071 -0.3003 -0.0921
   62SAPC   C32 4886   0.058   0.200  10.440 -0.1957 -0.0029  0.5050
   62SAPC   H2X 4887   0.043   0.180  10.548  0.5998 -1.4791  0.3629
   62SAPC   H2Y 4888   0.163   0.217  10.410 -0.2529  0.8091  0.7250
   62SAPC   C23 4889  -0.007   1.031  10.039  0.2725  0.4869  0.0908
   62SAPC   H3R 4890  -0.032   0.937   9.984 -0.5357  0.7294  0.0447
   62SAPC   H3S 4891   0.096   1.069  10.022 -0.4449  2.5278  0.0391
   62SAPC   C24 4892  -0.099   1.149   9.977 -0.4767  0.2422  0.1920
   62SAPC   H4R 4893  -0.060   1.191   9.882 -0.7395  0.9642  0.3950
   62SAPC   H4S 4894  -0.093   1.235  10.047 -2.3974 -0.3384  1.1390
   62SAPC   C25 4895  -0.247   1.111   9.953  0.3725  1.4754  0.7031
   62SAPC   H5R 4896  -0.313   1.134  10.038  0.4105  1.1305  0.8271
   62SAPC   C26 4897  -0.298   1.064   9.833 -0.6206 -0.6469 -0.4283
   62SAPC   H6R 4898  -0.405   1.043   9.822 -0.4976 -2.2140  0.8420
   62SAPC   C27 4899  -0.226   1.045   9.701  0.1227 -0.2960 -0.5703
   62SAPC   H7R 4900  -0.258   0.949   9.655 -1.5814  0.5493 -1.2600
   62SAPC   H7S 4901  -0.117   1.029   9.709  0.2642  0.7311 -0.3038
   62SAPC   C28 4902  -0.246   1.159   9.605 -0.2979 -0.1686  0.2595
   62SAPC   H8R 4903  -0.208   1.258   9.633 -0.7984 -0.0014  0.3507
   62SAPC   C29 4904  -0.306   1.148   9.482  0.4276 -0.0741 -0.7162
   62SAPC   H9R 4905  -0.323   1.236   9.419 -0.9892 -0.7308 -1.3095
   62SAPC  C210 4906  -0.355   1.022   9.421 -0.1319  0.5299  0.6687
   62SAPC  H10R 4907  -0.431   1.040   9.342 -1.2645  0.4816  1.7214
   62SAPC  H10S 4908  -0.413   0.962   9.494 -1.2139 -0.1418 -0.6916
   62SAPC  C211 4909  -0.243   0.936   9.373 -0.5883  0.5766  0.7071
   62SAPC  H11R 4910  -0.153   0.998   9.383 -1.6518  2.2943  0.0907
   62SAPC  C212 4911  -0.249   0.816   9.308  0.2786  0.2123 -0.1411
   62SAPC  H12R 4912  -0.164   0.749   9.287 -0.9853 -1.7089  0.5774
   62SAPC  C213 4913  -0.383   0.761   9.261 -0.4116 -0.6703  0.0228
   62SAPC  H13R 4914  -0.403   0.822   9.171  1.3764  0.3554  0.2665
   62SAPC  H13S 4915  -0.459   0.782   9.339  0.6153  2.6913  0.2677
   62SAPC  C214 4916  -0.381   0.615   9.236  0.0699  0.2790 -0.6123
   62SAPC  H14R 4917  -0.350   0.564   9.328 -0.9275  2.0186  0.7568
   62SAPC  C215 4918  -0.413   0.553   9.118  0.2299 -0.3601 -0.5021
   62SAPC  H15R 4919  -0.409   0.444   9.105  0.5793 -0.2739 -1.1667
   62SAPC  C216 4920  -0.458   0.614   8.992 -0.3295 -0.4647  0.8033
   62SAPC  H16R 4921  -0.536   0.686   9.027 -0.0225  0.5630 -0.5604
   62SAPC  H16S 4922  -0.520   0.540   8.937 -1.3395  0.4254  0.6956
   62SAPC  C217 4923  -0.359   0.699   8.901 -0.5730  0.6966  0.1127
   62SAPC  H17R 4924  -0.303   0.768   8.966  0.2372  1.1305 -1.0210
   62SAPC  H17S 4925  -0.409   0.761   8.823  1.5802  1.1186 -1.0135
   62SAPC  C218 4926  -0.263   0.601   8.838 -0.1597 -0.6865  0.0127
   62SAPC  H18R 4927  -0.316   0.525   8.776 -2.9779 -1.8648  3.5390
   62SAPC  H18S 4928  -0.215   0.534   8.913  1.2172 -0.1934 -0.4084
   62SAPC  C219 4929  -0.161   0.669   8.748 -0.2642 -0.4744 -0.6062
   62SAPC  H19R 4930  -0.093   0.721   8.819 -0.3982 -0.7066 -0.3078
   62SAPC  H19S 4931  -0.195   0.752   8.682 -0.1952 -0.7607 -1.0007
   62SAPC  C220 4932  -0.086   0.569   8.663 -0.8647 -0.0318 -0.2627
   62SAPC  H20R 4933  -0.082   0.585   8.553 -0.2017 -0.9996 -0.3944
   62SAPC  H20S 4934  -0.128   0.467   8.680 -0.7477 -0.0350  0.0085
   62SAPC  H20T 4935   0.018   0.575   8.703 -0.6279 -0.3043 -0.8286
   62SAPC   C33 4936   0.000   0.089  10.345  0.4279  0.4664 -0.6554
   62SAPC   H3X 4937  -0.111   0.085  10.347  0.3903  0.1138 -2.0828
   62SAPC   H3Y 4938   0.039  -0.002  10.396 -0.6789  0.8192  0.8728
   62SAPC   C34 4939   0.050   0.093  10.203  0.2718  0.5166 -0.0453
   62SAPC   H4X 4940   0.069  -0.006  10.158  3.1229  1.7013 -1.6781
   62SAPC   H4Y 4941   0.152   0.137  10.209  0.1139  0.8161  0.6593
   62SAPC   C35 4942  -0.037   0.171  10.111  0.8172 -0.0889 -0.1286
   62SAPC   H5X 4943  -0.082   0.258  10.165  1.2268 -0.1467  0.3073
   62SAPC   H5Y 4944  -0.132   0.117  10.087 -0.6507  1.6778  1.3817
   62SAPC   C36 4945   0.040   0.234  10.000  0.6465  0.0744  0.0578
   62SAPC   H6X 4946   0.090   0.325  10.040 -0.3470  1.2475 -1.2621
   62SAPC   H6Y 4947  -0.032   0.277   9.926  1.0466  0.2266 -0.2451
   62SAPC   C37 4948   0.134   0.141   9.930  0.3852  1.0230  0.5134
   62SAPC   H7X 4949   0.085   0.045   9.904 -2.0934  2.0258  1.1529
   62SAPC   H7Y 4950   0.225   0.128   9.993 -1.1138 -3.0992  2.1614
   62SAPC   C38 4951   0.169   0.207   9.794  0.0117 -0.3125 -0.2677
   62SAPC   H8X 4952   0.257   0.275   9.804  1.1431 -1.7687 -0.0211
   62SAPC   H8Y 4953   0.082   0.262   9.751  0.8996  1.4959  0.1474
   62SAPC   C39 4954   0.201   0.101   9.684 -0.1707 -0.3066 -1.1205
   62SAPC   H9X 4955   0.124   0.021   9.675 -1.0176  0.5167 -1.4117
   62SAPC   H9Y 4956   0.287   0.043   9.722 -1.4042 -1.4895 -0.0337
   62SAPC  C310 4957   0.234   0.153   9.542  0.2697 -0.5338  0.3507
   62SAPC  H10X 4958   0.324   0.218   9.539  1.0592 -1.6032  0.1624
   62SAPC  H10Y 4959   0.147   0.211   9.504 -0.5885 -0.9702  1.5991
   62SAPC  C311 4960   0.256   0.040   9.435 -0.0614 -0.5288  0.4417
   62SAPC  H11X 4961   0.163  -0.017   9.458 -0.6944  0.0711 -0.5388
   62SAPC  H11Y 4962   0.347  -0.020   9.457  0.4006 -0.1283 -0.3290
   62SAPC  C312 4963   0.249   0.078   9.292 -0.3004 -0.5861 -0.0808
   62SAPC  H12X 4964   0.352   0.111   9.267 -0.5290 -0.3664 -0.7393
   62SAPC  H12Y 4965   0.190   0.171   9.280  1.1512  0.6234  1.5684
   62SAPC  C313 4966   0.216  -0.036   9.202  0.1329  0.3622 -0.1647
   62SAPC  H13X 4967   0.203  -0.015   9.094  3.6256 -0.6492 -0.9161
   62SAPC  H13Y 4968   0.117  -0.083   9.224 -1.2148  2.3447 -1.6054
   62SAPC  C314 4969   0.340  -0.132   9.215  0.2508  0.7652  0.2771
   62SAPC  H14X 4970   0.341  -0.167   9.320 -1.9107  1.9371  0.7493
   62SAPC  H14Y 4971   0.439  -0.084   9.199  0.7806 -1.0213 -2.4698
   62SAPC  C315 4972   0.334  -0.250   9.117  0.1485 -0.3191 -0.7109
   62SAPC  H15X 4973   0.261  -0.329   9.143  1.2033 -1.1422 -0.1517
   62SAPC  H15Y 4974   0.433  -0.301   9.120 -0.1621 -1.2501 -3.3249
   62SAPC  C316 4975   0.299  -0.205   8.975  0.1807  0.2732 -0.8034
   62SAPC  H16X 4976   0.365  -0.120   8.947 -0.2910  0.2987 -1.8714
   62SAPC  H16Y 4977   0.190  -0.184   8.961  0.1072 -0.1138 -0.8198
   62SAPC  C317 4978   0.339  -0.308   8.864  1.1346  0.5093 -0.0629
   62SAPC  H17X 4979   0.277  -0.395   8.893 -2.0167  3.1367  1.7834
   62SAPC  H17Y 4980   0.447  -0.334   8.872  1.5871  2.0183 -0.8405
   62SAPC  C318 4981   0.308  -0.263   8.719  0.0119 -0.0225  0.6010
   62SAPC  H18X 4982   0.397  -0.219   8.668 -1.7217  3.5512  0.3597
   62SAPC  H18Y 4983   0.231  -0.183   8.710 -0.2400 -0.3110  0.1862
   62SAPC  H18Z 4984   0.277  -0.345   8.652 -1.0362  0.3476  0.6168
   63SAPC     N 4985   5.375   0.156   6.436  0.6885 -0.4371  0.3792
   63SAPC   C12 4986   5.286   0.228   6.536  0.2262  0.6601  0.1512
   63SAPC  H12A 4987   5.328   0.322   6.566 -1.2788  0.9311  1.5872
   63SAPC  H12B 4988   5.293   0.186   6.635  0.3618 -1.1975 -0.6037
   63SAPC   C13 4989   5.312   0.028   6.395  0.2068  0.2862  0.1677
   63SAPC  H13A 4990   5.210   0.050   6.369 -0.4139 -1.0205  1.3612
   63SAPC  H13B 4991   5.353  -0.024   6.309 -0.7669 -0.6682  0.2655
   63SAPC  H13C 4992   5.308  -0.046   6.474 -0.4891  0.5094  0.3447
   63SAPC   C14 4993   5.395   0.257   6.323  0.3151  1.1370  0.1869
   63SAPC  H14A 4994   5.415   0.354   6.365 -2.2400  1.6312  0.4622
   63SAPC  H14B 4995   5.472   0.233   6.252  0.8904  1.3648  0.7315
   63SAPC  H14C 4996   5.300   0.264   6.271  0.3506  0.9385  0.0918
   63SAPC   C15 4997   5.511   0.140   6.496  0.2433 -0.1648  0.0975
   63SAPC  H15A 4998   5.513   0.077   6.585 -0.0594  2.4172  2.0544
   63SAPC  H15B 4999   5.576   0.096   6.422 -0.0738  0.1120 -0.3494
   63SAPC  H15C 5000   5.558   0.234   6.519  1.0024 -0.6605  0.6078
   63SAPC   C11 5001   5.140   0.243   6.499  0.6684 -0.2007  0.0668
   63SAPC  H11A 5002   5.092   0.259   6.598 -1.5174 -1.8131 -0.6539
   63SAPC  H11B 5003   5.105   0.142   6.469  0.5829 -0.7301  1.8146
   63SAPC     P 5004   5.155   0.508   6.444  0.1700  0.2533  0.0197
   63SAPC   O13 5005   5.305   0.519   6.455 -0.5412  0.5334 -0.4493
   63SAPC   O14 5006   5.087   0.595   6.352 -0.1203 -1.1770  0.2645
   63SAPC   O12 5007   5.123   0.351   6.412  0.0054  0.4638  0.4050
   63SAPC   O11 5008   5.100   0.526   6.592  0.2228 -0.0906 -0.1797
   63SAPC    C1 5009   4.964   0.534   6.627  0.5798 -0.4592  0.0877
   63SAPC    HA 5010   4.891   0.468   6.575 -1.6323 -0.1008  2.5083
   63SAPC    HB 5011   4.964   0.501   6.734 -0.8964 -1.8180 -0.2924
   63SAPC    C2 5012   4.906   0.675   6.607 -0.1083 -0.5133 -0.2954
   63SAPC    HS 5013   4.895   0.674   6.496  0.7012 -1.8351 -0.3876
   63SAPC   O21 5014   5.010   0.771   6.639  0.7242 -0.2529 -0.2028
   63SAPC   C21 5015   4.997   0.884   6.564 -0.1649  0.8144 -0.3182
   63SAPC   O22 5016   4.906   0.899   6.487 -0.0928  0.4278 -0.3256
   63SAPC   C22 5017   5.112   0.977   6.578  0.2631  0.0790 -0.7256
   63SAPC   H2R 5018   5.162   0.965   6.677  1.7004  0.3928 -1.4002
   63SAPC   H2S 5019   5.187   0.954   6.500  0.9277  1.9559 -0.6850
   63SAPC    C3 5020   4.784   0.709   6.687 -0.0217  0.1162  0.1324
   63SAPC    HX 5021   4.697   0.654   6.645 -0.7198 -0.0888  1.7839
   63SAPC    HY 5022   4.761   0.817   6.675  1.0309  0.5983  2.1476
   63SAPC   O31 5023   4.816   0.679   6.826 -0.1738 -0.2588  0.0348
   63SAPC   C31 5024   4.706   0.657   6.900  0.0675 -0.1254  0.0494
   63SAPC   O32 5025   4.590   0.659   6.857 -0.1141  0.2666 -0.0793
   63SAPC   C32 5026   4.748   0.668   7.049 -0.1627  0.2192  0.0365
   63SAPC   H2X 5027   4.675   0.739   7.094 -0.1936 -0.8281  1.7260
   63SAPC   H2Y 5028   4.843   0.724   7.053 -0.9812  2.3433 -4.3470
   63SAPC   C23 5029   5.079   1.133   6.560 -0.8200 -0.0920  0.6597
   63SAPC   H3R 5030   5.038   1.169   6.463 -0.9468 -2.1151 -0.0917
   63SAPC   H3S 5031   5.176   1.183   6.578 -1.1191  0.4370  0.8234
   63SAPC   C24 5032   4.991   1.180   6.676  0.1047 -1.0590 -0.5621
   63SAPC   H4R 5033   5.039   1.143   6.769 -0.7033 -2.0835 -0.5377
   63SAPC   H4S 5034   4.892   1.129   6.676 -0.2091 -0.4535 -0.7048
   63SAPC   C25 5035   4.958   1.329   6.686 -0.3391  0.2205  0.7332
   63SAPC   H5R 5036   4.957   1.368   6.583  2.8377 -3.2169 -0.8037
   63SAPC   C26 5037   4.951   1.403   6.796  0.5215 -0.8108 -0.0739
   63SAPC   H6R 5038   4.904   1.502   6.787 -1.2052 -1.5360  0.4370
   63SAPC   C27 5039   4.973   1.354   6.937 -0.2486  0.3981  0.6632
   63SAPC   H7R 5040   5.056   1.411   6.985 -0.7904  0.7984  1.1284
   63SAPC   H7S 5041   5.020   1.254   6.931  2.0782  1.4489  0.0840
   63SAPC   C28 5042   4.852   1.343   7.022 -0.6529  0.4610 -0.7748
   63SAPC   H8R 5043   4.843   1.421   7.100 -0.1310  0.1785 -0.4300
   63SAPC   C29 5044   4.759   1.244   7.017 -0.2640  0.0891  0.5478
   63SAPC   H9R 5045   4.677   1.254   7.090 -1.3632  2.4029 -0.8860
   63SAPC  C210 5046   4.749   1.128   6.925 -0.0682 -0.0983 -0.0939
   63SAPC  H10R 5047   4.714   1.043   6.986 -0.7470  1.8128  2.3319
   63SAPC  H10S 5048   4.852   1.110   6.888 -0.2101 -2.6203  0.5965
   63SAPC  C211 5049   4.648   1.160   6.818  0.4568 -0.3866 -0.0044
   63SAPC  H11R 5050   4.691   1.194   6.723 -1.3008  0.8295 -0.4092
   63SAPC  C212 5051   4.513   1.126   6.835 -0.2153  0.7130 -0.0919
   63SAPC  H12R 5052   4.440   1.144   6.754 -0.2146  1.0061 -0.0257
   63SAPC  C213 5053   4.452   1.065   6.960  0.1115  0.4148  0.4779
   63SAPC  H13R 5054   4.366   1.130   6.985  0.1108  1.1231 -1.2607
   63SAPC  H13S 5055   4.513   1.075   7.053  0.2364  0.3863  0.3998
   63SAPC  C214 5056   4.379   0.944   6.933  0.2112 -0.0379  0.0804
   63SAPC  H14R 5057   4.374   0.910   6.829 -1.9651  1.1446 -0.2397
   63SAPC  C215 5058   4.320   0.875   7.032 -0.1205  0.9132 -0.7750
   63SAPC  H15R 5059   4.274   0.779   7.003 -2.6225  2.0269 -0.7503
   63SAPC  C216 5060   4.311   0.916   7.179  0.1659  0.3948 -0.1682
   63SAPC  H16R 5061   4.208   0.904   7.217  0.9100 -0.2443  1.8142
   63SAPC  H16S 5062   4.315   1.027   7.186 -0.0767  0.3383  1.0640
   63SAPC  C217 5063   4.405   0.865   7.289  0.1055 -0.9280 -0.3120
   63SAPC  H17R 5064   4.417   0.755   7.278  0.5345 -1.2784  2.6815
   63SAPC  H17S 5065   4.362   0.889   7.388 -1.1782  0.7462 -1.2336
   63SAPC  C218 5066   4.534   0.940   7.280  0.0000  0.3203  0.0099
   63SAPC  H18R 5067   4.520   1.050   7.273 -0.2429  0.1924 -1.9489
   63SAPC  H18S 5068   4.573   0.905   7.182 -0.5818  1.0011 -0.4737
   63SAPC  C219 5069   4.638   0.932   7.394 -0.7741  0.0962  0.5774
   63SAPC  H19R 5070   4.666   0.825   7.386  1.1026  0.5479  0.7239
   63SAPC  H19S 5071   4.598   0.954   7.495  1.1666 -2.0115  1.8816
   63SAPC  C220 5072   4.765   1.011   7.359  1.0991  0.2655  0.3520
   63SAPC  H20R 5073   4.819   0.972   7.270  2.8939 -0.8134  1.8276
   63SAPC  H20S 5074   4.841   1.004   7.440 -0.2458 -0.4588  1.6041
   63SAPC  H20T 5075   4.732   1.114   7.334 -1.1191  0.1880  2.5512
   63SAPC   C33 5076   4.749   0.523   7.117 -0.4723 -0.1441 -0.6066
   63SAPC   H3X 5077   4.821   0.467   7.054 -1.1492 -0.3466 -1.2247
   63SAPC   H3Y 5078   4.645   0.482   7.109  0.4753 -2.6799 -1.0149
   63SAPC   C34 5079   4.804   0.529   7.261  0.4462 -0.4932  0.8691
   63SAPC   H4X 5080   4.738   0.600   7.314  0.0809  1.3705 -1.9057
   63SAPC   H4Y 5081   4.910   0.563   7.257 -0.6111  3.0474 -1.2531
   63SAPC   C35 5082   4.800   0.392   7.331 -1.3223 -0.0220  0.9017
   63SAPC   H5X 5083   4.896   0.339   7.313 -1.8496 -0.6116 -0.2852
   63SAPC   H5Y 5084   4.730   0.318   7.286  2.6696 -2.1878 -2.3931
   63SAPC   C36 5085   4.773   0.412   7.479 -0.1876 -0.3640  0.2660
   63SAPC   H6X 5086   4.821   0.503   7.520 -1.9397  0.9483 -0.4843
   63SAPC   H6Y 5087   4.816   0.322   7.528  0.5036  0.9239  2.1651
   63SAPC   C37 5088   4.627   0.399   7.529 -0.3275 -0.1363 -0.1006
   63SAPC   H7X 5089   4.596   0.299   7.491 -0.5779 -0.5987  1.2767
   63SAPC   H7Y 5090   4.569   0.473   7.469  0.6405 -0.4201 -1.4290
   63SAPC   C38 5091   4.612   0.420   7.680  0.4926 -0.2259  0.5769
   63SAPC   H8X 5092   4.633   0.528   7.698  1.2225 -0.2016 -0.3541
   63SAPC   H8Y 5093   4.672   0.353   7.745  1.8027 -0.2034 -0.5805
   63SAPC   C39 5094   4.467   0.407   7.723  0.1135 -0.3202 -0.8339
   63SAPC   H9X 5095   4.431   0.308   7.688 -2.3109  0.5634 -1.0095
   63SAPC   H9Y 5096   4.400   0.486   7.683  1.1138  2.0032  1.7660
   63SAPC  C310 5097   4.451   0.431   7.876 -0.3476 -0.4518 -0.7448
   63SAPC  H10X 5098   4.476   0.538   7.893 -0.3772 -0.9347  3.2634
   63SAPC  H10Y 5099   4.535   0.388   7.933 -0.8287 -0.8580 -0.3400
   63SAPC  C311 5100   4.316   0.399   7.946  0.0539 -0.8410  0.0889
   63SAPC  H11X 5101   4.275   0.305   7.902 -0.3009  0.7639 -3.4008
   63SAPC  H11Y 5102   4.246   0.478   7.912 -1.2012 -1.5997  0.8266
   63SAPC  C312 5103   4.318   0.408   8.099 -0.1273  0.0263 -0.0034
   63SAPC  H12X 5104   4.345   0.513   8.124 -0.9800  0.8347 -2.2435
   63SAPC  H12Y 5105   4.398   0.345   8.143  0.8625  0.0155 -1.7043
   63SAPC  C313 5106   4.182   0.409   8.166 -0.4208  0.5972  0.0977
   63SAPC  H13X 5107   4.151   0.307   8.196 -0.0182  0.1918 -0.8254
   63SAPC  H13Y 5108   4.102   0.460   8.108 -1.0537 -1.6920 -1.1403
   63SAPC  C314 5109   4.189   0.477   8.306 -0.3033 -0.0974 -0.2182
   63SAPC  H14X 5110   4.231   0.579   8.294 -1.1112  0.0277 -2.3701
   63SAPC  H14Y 5111   4.267   0.422   8.363 -0.6381  0.9300  1.2967
   63SAPC  C315 5112   4.057   0.477   8.389  0.3471 -0.3687 -0.2590
   63SAPC  H15X 5113   4.029   0.372   8.413  1.0147 -0.4235  0.3074
   63SAPC  H15Y 5114   3.978   0.527   8.328 -1.0243  1.0599  2.4988
   63SAPC  C316 5115   4.057   0.558   8.525 -0.0938 -0.2813 -0.4081
   63SAPC  H16X 5116   4.075   0.667   8.510 -0.3246 -0.0759  0.7119
   63SAPC  H16Y 5117   4.131   0.523   8.600 -1.3286  3.2359  2.7746
   63SAPC  C317 5118   3.923   0.547   8.595 -0.0796  0.6720 -0.0524
   63SAPC  H17X 5119   3.903   0.438   8.588 -1.8243  1.0530 -1.9835
   63SAPC  H17Y 5120   3.857   0.603   8.526  3.4667  2.1469 -2.5613
   63SAPC  C318 5121   3.915   0.601   8.735 -0.9604 -0.5572 -1.0120
   63SAPC  H18X 5122   3.818   0.599   8.791 -0.5029  1.5798 -0.0377
   63SAPC  H18Y 5123   3.934   0.711   8.731 -0.8947 -0.5401 -0.4281
   63SAPC  H18Z 5124   3.993   0.565   8.806 -2.2107  1.0717  1.3613
   64SAPC     N 5125   0.513   5.755   6.088  0.3767 -1.0190  1.0591
   64SAPC   C12 5126   0.582   5.742   6.220  0.0301 -0.0313 -0.1509
   64SAPC  H12A 5127   0.631   5.646   6.218  1.6052  0.7509 -1.1004
   64SAPC  H12B 5128   0.509   5.747   6.299 -1.5869 -1.4010 -1.4714
   64SAPC   C13 5129   0.599   5.710   5.971  0.0862  0.0211 -0.5477
   64SAPC  H13A 5130   0.695   5.758   5.971 -0.1078  0.4897  1.0517
   64SAPC  H13B 5131   0.618   5.604   5.965  0.6385  0.1967 -2.5739
   64SAPC  H13C 5132   0.554   5.740   5.877  1.3710  0.4043 -1.0535
   64SAPC   C14 5133   0.387   5.677   6.085 -0.5052  0.4087 -1.1749
   64SAPC  H14A 5134   0.317   5.727   6.150 -0.1701  0.0858 -0.5550
   64SAPC  H14B 5135   0.349   5.667   5.984 -0.4018 -1.9060 -1.0469
   64SAPC  H14C 5136   0.403   5.579   6.127 -2.5537 -0.1420 -1.5982
   64SAPC   C15 5137   0.481   5.903   6.066  0.0002  0.3478 -1.1017
   64SAPC  H15A 5138   0.441   5.914   5.966  0.3920 -1.3524 -1.4704
   64SAPC  H15B 5139   0.406   5.941   6.134  0.2390  0.4789 -0.9101
   64SAPC  H15C 5140   0.569   5.965   6.079 -0.9116  1.4980 -0.2178
   64SAPC   C11 5141   0.698   5.846   6.245 -1.3896  0.6761  0.0792
   64SAPC  H11A 5142   0.752   5.831   6.341  1.2412  1.9298 -1.1124
   64SAPC  H11B 5143   0.645   5.943   6.252 -2.2296  0.3252 -1.0323
   64SAPC     P 5144   0.918   5.736   6.143 -0.2688 -0.0613 -0.0726
   64SAPC   O13 5145   0.859   5.602   6.130 -0.5536 -0.0268 -0.6569
   64SAPC   O14 5146   1.022   5.770   6.042 -0.1930 -0.8120  0.3402
   64SAPC   O12 5147   0.798   5.845   6.142  0.4375  0.8363 -0.1107
   64SAPC   O11 5148   0.991   5.732   6.283 -0.6706 -0.2804  0.3298
   64SAPC    C1 5149   1.042   5.610   6.339 -0.4979 -0.1070 -0.1592
   64SAPC    HA 5150   1.008   5.519   6.285 -2.4813 -0.0578  0.9075
   64SAPC    HB 5151   1.151   5.612   6.321 -0.4199  0.7067  0.3771
   64SAPC    C2 5152   1.010   5.591   6.487 -0.0190 -0.1573  0.5410
   64SAPC    HS 5153   0.899   5.591   6.491 -0.0395 -0.3915 -0.0119
   64SAPC   O21 5154   1.076   5.698   6.556 -0.5045  0.1472  0.2916
   64SAPC   C21 5155   1.006   5.799   6.600 -0.4026  0.9357  0.0036
   64SAPC   O22 5156   0.888   5.818   6.579 -0.4151 -0.3356  0.2311
   64SAPC   C22 5157   1.110   5.888   6.681  0.3619 -0.0092 -0.1472
   64SAPC   H2R 5158   1.161   5.822   6.755 -0.4944 -2.0365 -1.3025
   64SAPC   H2S 5159   1.185   5.924   6.607  1.5163 -1.9588  0.0169
   64SAPC    C3 5160   1.062   5.449   6.536 -0.0315  0.0757 -0.0566
   64SAPC    HX 5161   1.161   5.430   6.491 -0.9266  1.2452 -2.6976
   64SAPC    HY 5162   1.009   5.366   6.485  0.9155  1.3777 -3.3869
   64SAPC   O31 5163   1.045   5.440   6.680 -0.1225 -0.6811  1.0638
   64SAPC   C31 5164   1.139   5.496   6.756  0.1888 -0.5187  0.5347
   64SAPC   O32 5165   1.259   5.501   6.727 -0.3368  0.3054  0.2070
   64SAPC   C32 5166   1.072   5.550   6.877  0.0036 -0.2113  0.1510
   64SAPC   H2X 5167   1.007   5.474   6.925  1.1459 -2.2341 -1.3680
   64SAPC   H2Y 5168   1.005   5.633   6.847  1.4202  1.3664  1.1282
   64SAPC   C23 5169   1.042   5.999   6.762  0.3324 -0.3194 -0.3122
   64SAPC   H3R 5170   0.965   6.049   6.699 -0.1248  2.0157  1.9029
   64SAPC   H3S 5171   1.121   6.072   6.788  0.7043 -1.4775  2.1044
   64SAPC   C24 5172   0.977   5.942   6.884  0.2116 -0.0296 -0.3492
   64SAPC   H4R 5173   1.051   5.920   6.964 -0.3000  0.2068  0.1943
   64SAPC   H4S 5174   0.904   5.860   6.872  2.0580 -2.3877  2.7871
   64SAPC   C25 5175   0.895   6.049   6.946 -0.6987 -0.2628  0.1346
   64SAPC   H5R 5176   0.806   6.068   6.884 -1.0998 -0.9832  0.4806
   64SAPC   C26 5177   0.909   6.112   7.060  0.5839 -0.1499 -0.2258
   64SAPC   H6R 5178   0.827   6.181   7.084 -0.1559 -1.2966  0.6666
   64SAPC   C27 5179   1.017   6.087   7.166 -0.1921 -0.0469  0.0170
   64SAPC   H7R 5180   1.109   6.042   7.124  0.6959  2.0717 -0.4274
   64SAPC   H7S 5181   0.986   6.022   7.251  0.3872  0.8174  0.9025
   64SAPC   C28 5182   1.055   6.221   7.232 -0.7403 -0.2707  0.7140
   64SAPC   H8R 5183   1.075   6.294   7.153 -1.2739 -2.2462 -1.3377
   64SAPC   C29 5184   1.055   6.242   7.362 -0.1257  0.0255 -0.7245
   64SAPC   H9R 5185   1.069   6.344   7.400 -0.7472 -0.0392 -0.2966
   64SAPC  C210 5186   1.020   6.153   7.478 -0.2750 -0.0284 -0.4983
   64SAPC  H10R 5187   0.995   6.048   7.452 -0.6554  0.2767 -1.3862
   64SAPC  H10S 5188   0.922   6.187   7.518  0.1601 -1.8343  2.3483
   64SAPC  C211 5189   1.124   6.166   7.595  0.8411 -0.8952  0.3410
   64SAPC  H11R 5190   1.217   6.109   7.579  1.8193 -0.2485  3.1470
   64SAPC  C212 5191   1.110   6.232   7.713 -0.7374  0.4344  0.1080
   64SAPC  H12R 5192   1.200   6.227   7.776  0.2620  2.4147 -1.0711
   64SAPC  C213 5193   1.002   6.326   7.752 -0.2440  0.8861 -0.5979
   64SAPC  H13R 5194   0.930   6.345   7.670  0.6445  0.8059 -1.4120
   64SAPC  H13S 5195   1.059   6.421   7.766  0.4484  0.3607  0.2721
   64SAPC  C214 5196   0.929   6.284   7.882  0.3453  0.2529 -0.1523
   64SAPC  H14R 5197   0.847   6.211   7.876  0.1838  0.4419 -0.2261
   64SAPC  C215 5198   0.948   6.334   8.011  0.1900 -0.0512  0.4454
   64SAPC  H15R 5199   0.884   6.301   8.094 -2.2233  1.3106 -0.7887
   64SAPC  C216 5200   1.047   6.442   8.054  0.8088  0.3733 -0.8003
   64SAPC  H16R 5201   1.017   6.543   8.018  3.0947  1.3313 -0.1493
   64SAPC  H16S 5202   1.145   6.423   8.005  1.3700  1.0181  0.0505
   64SAPC  C217 5203   1.088   6.461   8.202  0.8855 -0.0290 -0.3417
   64SAPC  H17R 5204   1.181   6.522   8.198  1.5850 -1.0959 -1.1433
   64SAPC  H17S 5205   1.112   6.358   8.237 -1.6832 -0.8358 -0.7249
   64SAPC  C218 5206   1.000   6.541   8.298  0.6640 -0.5259  0.1742
   64SAPC  H18R 5207   0.930   6.486   8.365 -0.4874  1.3608  0.6094
   64SAPC  H18S 5208   0.932   6.607   8.239  0.8395 -2.9318 -3.0123
   64SAPC  C219 5209   1.079   6.621   8.406  0.3787 -0.0759 -0.2612
   64SAPC  H19R 5210   1.012   6.689   8.463  0.5416 -1.0607  1.1698
   64SAPC  H19S 5211   1.155   6.683   8.355 -0.3929  0.3031 -0.9730
   64SAPC  C220 5212   1.147   6.539   8.510 -0.3658 -0.2241 -0.0535
   64SAPC  H20R 5213   1.211   6.454   8.480 -1.4560 -0.3643 -2.1138
   64SAPC  H20S 5214   1.076   6.511   8.591 -0.7716  0.2632 -0.2350
   64SAPC  H20T 5215   1.222   6.602   8.563  1.9536 -1.7371 -1.3846
   64SAPC   C33 5216   1.176   5.606   6.976 -0.3563 -0.0307  0.1307
   64SAPC   H3X 5217   1.235   5.693   6.941 -0.7239 -0.5529 -1.8746
   64SAPC   H3Y 5218   1.254   5.527   6.991  0.3453  0.7247  0.5392
   64SAPC   C34 5219   1.110   5.643   7.112  0.9580  0.0536 -0.5568
   64SAPC   H4X 5220   1.068   5.550   7.154 -1.2053  1.3289  0.2543
   64SAPC   H4Y 5221   1.037   5.725   7.092 -0.5469 -0.5695  2.0249
   64SAPC   C35 5222   1.224   5.707   7.205 -0.3951 -0.2938  0.4275
   64SAPC   H5X 5223   1.281   5.773   7.136 -2.1276  0.6412 -0.1834
   64SAPC   H5Y 5224   1.301   5.632   7.231 -1.2603 -0.9993  1.0047
   64SAPC   C36 5225   1.164   5.760   7.334  0.2498 -0.5831  0.2451
   64SAPC   H6X 5226   1.093   5.691   7.384  2.0443 -0.9731  2.4113
   64SAPC   H6Y 5227   1.114   5.857   7.311 -0.8878 -1.2481 -0.1756
   64SAPC   C37 5228   1.275   5.784   7.433 -0.7319 -0.1774  0.8429
   64SAPC   H7X 5229   1.336   5.874   7.411 -1.9724  0.5492  0.2712
   64SAPC   H7Y 5230   1.337   5.692   7.431 -0.5564 -0.0458 -0.9702
   64SAPC   C38 5231   1.228   5.808   7.580 -0.6234  0.1449 -0.0197
   64SAPC   H8X 5232   1.213   5.711   7.632  2.9349 -0.3218  0.4075
   64SAPC   H8Y 5233   1.138   5.874   7.585 -0.8047 -0.0943 -0.1053
   64SAPC   C39 5234   1.332   5.876   7.669 -0.2642 -0.7279  0.6904
   64SAPC   H9X 5235   1.352   5.973   7.618  0.7908 -0.4047  1.6986
   64SAPC   H9Y 5236   1.428   5.821   7.657 -0.0084 -0.3496  0.9884
   64SAPC  C310 5237   1.291   5.897   7.816 -0.0232  0.4686 -0.4567
   64SAPC  H10X 5238   1.275   5.795   7.858 -2.0616  0.6302 -0.7403
   64SAPC  H10Y 5239   1.192   5.947   7.816 -0.3140 -0.0941 -0.4253
   64SAPC  C311 5240   1.394   5.981   7.895  0.6861 -0.5886  0.4772
   64SAPC  H11X 5241   1.389   6.089   7.874 -1.7096 -0.7710 -0.1370
   64SAPC  H11Y 5242   1.495   5.951   7.859  0.8182  1.9890 -1.5944
   64SAPC  C312 5243   1.375   5.958   8.045 -0.2950 -1.1326  0.8849
   64SAPC  H12X 5244   1.350   5.852   8.069  1.5527 -1.3519  2.0217
   64SAPC  H12Y 5245   1.275   5.995   8.074 -0.8611 -0.8306 -1.2661
   64SAPC  C313 5246   1.479   6.040   8.129 -0.1915  0.2854 -0.0800
   64SAPC  H13X 5247   1.510   6.131   8.075  0.7847  0.7306  1.1753
   64SAPC  H13Y 5248   1.572   5.983   8.148  0.9048 -0.1165 -5.2128
   64SAPC  C314 5249   1.422   6.089   8.259  0.5452 -0.1865  0.4089
   64SAPC  H14X 5250   1.383   6.002   8.316  0.0686  0.5011  1.1443
   64SAPC  H14Y 5251   1.336   6.153   8.234  0.1623 -0.9637 -0.3260
   64SAPC  C315 5252   1.513   6.174   8.346  0.1391  0.0049  0.4597
   64SAPC  H15X 5253   1.567   6.248   8.283  2.0411 -2.3388 -0.8239
   64SAPC  H15Y 5254   1.589   6.112   8.399  0.1703 -1.0476 -0.7592
   64SAPC  C316 5255   1.433   6.249   8.453 -0.6831  0.5794  0.0114
   64SAPC  H16X 5256   1.399   6.171   8.524 -0.0101  0.6477  0.4220
   64SAPC  H16Y 5257   1.350   6.313   8.418  1.4523  3.4990 -0.1144
   64SAPC  C317 5258   1.524   6.332   8.543  0.0176 -0.2185  0.5451
   64SAPC  H17X 5259   1.469   6.356   8.637 -0.6883 -0.9588  0.3254
   64SAPC  H17Y 5260   1.546   6.429   8.493  1.3156 -1.0854 -0.6471
   64SAPC  C318 5261   1.651   6.268   8.600  0.0528 -0.1095  0.4042
   64SAPC  H18X 5262   1.705   6.329   8.675  1.7374  1.9345 -2.2852
   64SAPC  H18Y 5263   1.723   6.267   8.515  0.1092 -0.5060  0.4548
   64SAPC  H18Z 5264   1.641   6.161   8.626 -1.8607 -0.9984 -3.2704
   65SAPC     N 5265   1.304   2.454   5.951  0.1784  0.1121 -0.1702
   65SAPC   C12 5266   1.335   2.490   6.091  0.0061  0.5492  0.3950
   65SAPC  H12A 5267   1.422   2.428   6.111 -0.3448  0.2288  0.9690
   65SAPC  H12B 5268   1.272   2.451   6.170  1.6919 -2.3243  0.4829
   65SAPC   C13 5269   1.308   2.306   5.929 -0.0347  0.2552  0.5250
   65SAPC  H13A 5270   1.275   2.275   5.831 -1.9528  0.2886  1.1202
   65SAPC  H13B 5271   1.412   2.277   5.935  0.2385  0.9086 -0.7535
   65SAPC  H13C 5272   1.248   2.259   6.006 -1.5015 -1.4619 -1.5571
   65SAPC   C14 5273   1.173   2.512   5.908  0.3587 -0.0020 -0.2387
   65SAPC  H14A 5274   1.163   2.614   5.941  0.6445 -0.2040  0.5030
   65SAPC  H14B 5275   1.148   2.505   5.803  1.1353 -1.3124 -0.3535
   65SAPC  H14C 5276   1.092   2.471   5.967  1.1867 -2.3195 -0.6022
   65SAPC   C15 5277   1.399   2.506   5.854 -1.0124 -0.3356  0.1777
   65SAPC  H15A 5278   1.502   2.476   5.866 -0.6632  1.4223  1.9948
   65SAPC  H15B 5279   1.375   2.474   5.754 -0.0727  1.4406 -0.6518
   65SAPC  H15C 5280   1.402   2.614   5.853 -2.1668 -0.2576  1.7621
   65SAPC   C11 5281   1.367   2.637   6.135 -0.7386 -0.0902  0.3075
   65SAPC  H11A 5282   1.444   2.684   6.069 -3.6759  4.2049 -0.5090
   65SAPC  H11B 5283   1.424   2.640   6.230 -1.3165 -0.1316  0.6568
   65SAPC     P 5284   1.144   2.718   6.238 -0.2151 -0.1590 -0.1010
   65SAPC   O13 5285   1.082   2.850   6.254  0.2177 -0.0891 -0.3838
   65SAPC   O14 5286   1.045   2.616   6.201  0.2920  0.3281 -0.1712
   65SAPC   O12 5287   1.254   2.723   6.127 -0.3223  0.3016 -0.1321
   65SAPC   O11 5288   1.218   2.680   6.371 -0.7018  0.1633  0.1711
   65SAPC    C1 5289   1.207   2.764   6.483 -0.1334 -0.2482 -0.0002
   65SAPC    HA 5290   1.256   2.861   6.459 -0.9274  0.0883 -0.2664
   65SAPC    HB 5291   1.103   2.794   6.504 -0.4898  0.6977 -2.6912
   65SAPC    C2 5292   1.274   2.711   6.619 -0.0150 -0.1395  0.3254
   65SAPC    HS 5293   1.274   2.782   6.705 -1.5727 -1.7368  1.7235
   65SAPC   O21 5294   1.407   2.665   6.591  0.4337  0.1429 -0.6663
   65SAPC   C21 5295   1.497   2.748   6.552  0.7579 -0.3790  0.2857
   65SAPC   O22 5296   1.481   2.868   6.548 -0.0863  0.0259  0.5367
   65SAPC   C22 5297   1.627   2.670   6.539 -0.6099 -0.3058 -1.2408
   65SAPC   H2R 5298   1.619   2.582   6.471  1.5155 -0.2644 -1.6189
   65SAPC   H2S 5299   1.704   2.734   6.490 -0.4807 -0.5952 -1.4196
   65SAPC    C3 5300   1.183   2.596   6.674 -0.5505 -0.1374  0.1010
   65SAPC    HX 5301   1.186   2.513   6.601  4.8651 -0.3660  0.2025
   65SAPC    HY 5302   1.078   2.630   6.691 -1.3008 -2.2166 -0.1031
   65SAPC   O31 5303   1.232   2.545   6.800  0.6798 -0.0393  0.7855
   65SAPC   C31 5304   1.311   2.446   6.798  0.1340 -0.0147  0.1914
   65SAPC   O32 5305   1.358   2.382   6.701 -0.0437  0.0907 -0.1071
   65SAPC   C32 5306   1.365   2.418   6.942  0.3765  0.3807  1.4206
   65SAPC   H2X 5307   1.432   2.331   6.929 -1.6708 -1.2762  1.4341
   65SAPC   H2Y 5308   1.273   2.397   7.000 -1.4006  1.3733 -0.8874
   65SAPC   C23 5309   1.681   2.614   6.673  0.0887 -0.2770  0.0920
   65SAPC   H3R 5310   1.771   2.553   6.652 -1.0596 -3.2087  3.0098
   65SAPC   H3S 5311   1.604   2.540   6.703 -0.1955  0.5505  1.4931
   65SAPC   C24 5312   1.709   2.709   6.790  0.0613  0.2083  0.5789
   65SAPC   H4R 5313   1.755   2.646   6.869  0.5668 -0.1495  0.0158
   65SAPC   H4S 5314   1.610   2.740   6.831  0.1769 -1.0764  1.9055
   65SAPC   C25 5315   1.813   2.815   6.769  0.3546  0.1908  0.2812
   65SAPC   H5R 5316   1.798   2.878   6.680  0.8013 -1.6805 -1.1878
   65SAPC   C26 5317   1.917   2.846   6.851 -0.3222  0.6781 -0.1243
   65SAPC   H6R 5318   1.985   2.928   6.822 -0.4694  0.4841 -1.0619
   65SAPC   C27 5319   1.964   2.781   6.978 -0.4950  0.5503 -0.0913
   65SAPC   H7R 5320   1.879   2.746   7.041  0.4753 -2.2873 -0.1890
   65SAPC   H7S 5321   2.019   2.858   7.035  3.7243 -2.8648  1.0240
   65SAPC   C28 5322   2.060   2.664   6.965  0.6693 -0.1346 -0.1363
   65SAPC   H8R 5323   2.064   2.626   6.861 -2.1599  2.3358 -1.3286
   65SAPC   C29 5324   2.145   2.613   7.055 -0.0891 -0.3216 -0.4155
   65SAPC   H9R 5325   2.206   2.525   7.031  0.2241  0.3105 -1.9873
   65SAPC  C210 5326   2.168   2.656   7.194 -0.1698  0.1535 -0.0607
   65SAPC  H10R 5327   2.112   2.586   7.261 -1.7868  0.4529 -1.0481
   65SAPC  H10S 5328   2.138   2.761   7.212 -0.5762  0.0044  0.1614
   65SAPC  C211 5329   2.316   2.649   7.234 -0.4401 -0.1064 -0.1902
   65SAPC  H11R 5330   2.396   2.643   7.159 -0.4515 -0.9947 -0.1410
   65SAPC  C212 5331   2.361   2.644   7.359  0.8460 -0.1339  0.5067
   65SAPC  H12R 5332   2.470   2.637   7.375  1.0186  0.2328 -0.4231
   65SAPC  C213 5333   2.277   2.649   7.489  0.0358  0.1517  0.6421
   65SAPC  H13R 5334   2.248   2.542   7.498  0.5141  0.1334  2.4320
   65SAPC  H13S 5335   2.184   2.708   7.475  0.3272  0.3850 -0.3406
   65SAPC  C214 5336   2.344   2.701   7.612  0.1073 -0.0457 -0.5176
   65SAPC  H14R 5337   2.381   2.805   7.608 -2.0149  0.8337  0.7034
   65SAPC  C215 5338   2.351   2.635   7.727  0.7484  0.2183  0.8151
   65SAPC  H15R 5339   2.402   2.682   7.812  1.6582  1.1058 -0.1769
   65SAPC  C216 5340   2.296   2.494   7.752 -0.2478  0.2560  0.1773
   65SAPC  H16R 5341   2.225   2.459   7.674 -1.3688 -0.4527  1.4773
   65SAPC  H16S 5342   2.248   2.490   7.852  0.6985 -2.2715  0.6083
   65SAPC  C217 5343   2.421   2.395   7.747 -0.1987  0.2279  0.0821
   65SAPC  H17R 5344   2.453   2.371   7.644 -0.1853  0.2535  0.0807
   65SAPC  H17S 5345   2.393   2.299   7.797  1.1590 -0.8739 -1.1677
   65SAPC  C218 5346   2.548   2.438   7.821 -0.2889  0.3421 -0.1066
   65SAPC  H18R 5347   2.515   2.487   7.915 -1.5614 -0.5086 -0.0933
   65SAPC  H18S 5348   2.596   2.508   7.749  0.8329 -0.6865 -0.3898
   65SAPC  C219 5349   2.648   2.327   7.845  0.4702  0.1629 -0.3630
   65SAPC  H19R 5350   2.744   2.367   7.885  0.4575 -0.1040 -0.0604
   65SAPC  H19S 5351   2.672   2.278   7.748 -0.0613 -0.1568 -0.3368
   65SAPC  C220 5352   2.609   2.214   7.939  0.1862  0.4433 -0.2840
   65SAPC  H20R 5353   2.544   2.147   7.879  0.5560  0.2853 -0.5090
   65SAPC  H20S 5354   2.543   2.250   8.021  0.7628  1.8472 -0.4078
   65SAPC  H20T 5355   2.691   2.160   7.992  0.9466  1.6702 -0.1734
   65SAPC   C33 5356   1.428   2.540   7.000  0.2926 -0.0620 -0.1238
   65SAPC   H3X 5357   1.359   2.626   7.010  0.4227 -0.1474  1.9958
   65SAPC   H3Y 5358   1.503   2.573   6.925 -1.5726 -0.0535 -2.0943
   65SAPC   C34 5359   1.495   2.503   7.131 -0.0649 -0.3128 -0.8379
   65SAPC   H4X 5360   1.546   2.404   7.131 -1.1284 -0.8908 -0.0714
   65SAPC   H4Y 5361   1.420   2.484   7.211  1.1328 -2.1604 -0.0774
   65SAPC   C35 5362   1.586   2.617   7.167 -0.2434 -0.2384 -0.2923
   65SAPC   H5X 5363   1.539   2.717   7.171  0.3004  0.1192 -2.0196
   65SAPC   H5Y 5364   1.668   2.623   7.091 -2.4783 -1.0023 -2.9111
   65SAPC   C36 5365   1.647   2.587   7.307 -0.9239  0.2089 -0.9901
   65SAPC   H6X 5366   1.700   2.491   7.328  1.8446  1.5506 -1.4464
   65SAPC   H6Y 5367   1.559   2.587   7.375  0.8088  0.0414  1.3850
   65SAPC   C37 5368   1.742   2.695   7.347  0.7721 -0.1879  0.4242
   65SAPC   H7X 5369   1.672   2.779   7.367  0.2552 -0.2532 -1.0484
   65SAPC   H7Y 5370   1.811   2.723   7.265  0.4394  1.0821  0.5409
   65SAPC   C38 5371   1.838   2.676   7.469  0.3352 -0.1332  0.2112
   65SAPC   H8X 5372   1.931   2.733   7.449 -0.3021  0.6048 -0.7728
   65SAPC   H8Y 5373   1.856   2.567   7.464  1.4194  0.0339  0.2906
   65SAPC   C39 5374   1.774   2.717   7.608  0.2425  0.1390 -0.4152
   65SAPC   H9X 5375   1.678   2.662   7.601  0.1633  0.1412  0.6045
   65SAPC   H9Y 5376   1.749   2.825   7.610 -0.8647  0.0491 -3.3292
   65SAPC  C310 5377   1.864   2.679   7.722  0.5889  0.1165 -0.1134
   65SAPC  H10X 5378   1.953   2.745   7.712 -0.3560  1.3791 -0.3951
   65SAPC  H10Y 5379   1.902   2.575   7.712  1.9919  0.5519  0.4698
   65SAPC  C311 5380   1.800   2.682   7.862  0.1711 -0.0794  0.7115
   65SAPC  H11X 5381   1.856   2.620   7.936  0.9690  2.5406  2.4318
   65SAPC  H11Y 5382   1.694   2.651   7.866 -0.3767  1.5771 -0.1050
   65SAPC  C312 5383   1.794   2.823   7.917  0.4659  0.0250  0.5541
   65SAPC  H12X 5384   1.718   2.881   7.861  0.3762 -0.2840  0.3562
   65SAPC  H12Y 5385   1.894   2.871   7.910  0.0698  0.6913 -0.7498
   65SAPC  C313 5386   1.739   2.831   8.064  0.0553 -0.4692  0.2281
   65SAPC  H13X 5387   1.668   2.755   8.103 -0.8135  0.0348 -0.3513
   65SAPC  H13Y 5388   1.681   2.925   8.075 -0.5520 -0.8307  0.1862
   65SAPC  C314 5389   1.855   2.820   8.165 -0.6247 -0.5409 -0.6143
   65SAPC  H14X 5390   1.926   2.905   8.156 -0.2140 -0.9929 -1.8605
   65SAPC  H14Y 5391   1.924   2.735   8.143  2.8131  1.9263 -0.3166
   65SAPC  C315 5392   1.816   2.814   8.306 -0.2785 -0.0227 -0.1267
   65SAPC  H15X 5393   1.905   2.807   8.372  0.0799 -2.1242 -0.7597
   65SAPC  H15Y 5394   1.759   2.721   8.328  0.7604 -0.5047  0.6084
   65SAPC  C316 5395   1.729   2.934   8.360 -0.2503  0.4074 -0.6083
   65SAPC  H16X 5396   1.652   2.977   8.293  2.1883  0.7633 -3.3893
   65SAPC  H16Y 5397   1.800   3.020   8.364  1.4717 -0.9939  2.5720
   65SAPC  C317 5398   1.683   2.927   8.508 -0.2922 -0.2624 -0.0124
   65SAPC  H17X 5399   1.655   3.027   8.548 -1.9442 -1.7033  2.6900
   65SAPC  H17Y 5400   1.779   2.903   8.558  0.0901  0.9954 -0.1059
   65SAPC  C318 5401   1.567   2.831   8.536 -0.1325 -0.2423 -0.2119
   65SAPC  H18X 5402   1.598   2.729   8.504 -2.4181 -0.6974 -1.1977
   65SAPC  H18Y 5403   1.476   2.861   8.479 -1.7868 -0.2978  2.2585
   65SAPC  H18Z 5404   1.527   2.841   8.639  0.2759  0.1222 -0.0898
   66SAPC     N 5405   4.253   2.530   6.226 -0.1009 -0.6317 -0.2791
   66SAPC   C12 5406   4.359   2.582   6.330 -0.2711  0.2186 -0.2472
   66SAPC  H12A 5407   4.317   2.570   6.428  2.2949  1.1588  1.0823
   66SAPC  H12B 5408   4.366   2.690   6.329 -1.7540  0.3793  1.8167
   66SAPC   C13 5409   4.295   2.569   6.087  0.3029 -0.6583 -0.4637
   66SAPC  H13A 5410   4.396   2.536   6.068  0.7516 -0.0686  0.7704
   66SAPC  H13B 5411   4.223   2.537   6.014 -2.5032 -0.6785  2.1132
   66SAPC  H13C 5412   4.301   2.677   6.088  1.4481 -0.7038  0.4899
   66SAPC   C14 5413   4.232   2.383   6.225 -0.1848 -0.9552 -0.2911
   66SAPC  H14A 5414   4.189   2.353   6.319  1.9314 -0.2951  0.9726
   66SAPC  H14B 5415   4.170   2.348   6.144  0.3920  0.6779 -1.5064
   66SAPC  H14C 5416   4.328   2.335   6.210  0.9349  0.6029  1.4494
   66SAPC   C15 5417   4.117   2.599   6.245 -0.5871  0.0566 -0.2261
   66SAPC  H15A 5418   4.117   2.706   6.226  0.0814 -0.1662 -1.5927
   66SAPC  H15B 5419   4.049   2.551   6.176  0.1096 -1.0419 -0.1644
   66SAPC  H15C 5420   4.072   2.582   6.341 -4.6994  1.2207 -1.7144
   66SAPC   C11 5421   4.502   2.513   6.322  0.1743  0.2348 -1.4288
   66SAPC  H11A 5422   4.571   2.549   6.402  0.4522 -3.3103  0.0808
   66SAPC  H11B 5423   4.553   2.542   6.228 -0.4650 -2.3332 -2.6500
   66SAPC     P 5424   4.595   2.271   6.266  0.1312  0.4643  0.0089
   66SAPC   O13 5425   4.524   2.143   6.243 -0.0906  0.4749 -0.6506
   66SAPC   O14 5426   4.639   2.338   6.143 -0.4529  0.0278  0.1506
   66SAPC   O12 5427   4.499   2.373   6.339  0.0282  0.2701 -0.2388
   66SAPC   O11 5428   4.723   2.239   6.351  0.9769 -0.0332 -0.3230
   66SAPC    C1 5429   4.715   2.189   6.492  0.3950  0.7246 -0.4606
   66SAPC    HA 5430   4.635   2.234   6.555 -0.8271 -0.3078 -1.2214
   66SAPC    HB 5431   4.706   2.078   6.502 -0.3083  0.9274  1.8260
   66SAPC    C2 5432   4.852   2.207   6.562 -0.0595 -0.2540 -0.5763
   66SAPC    HS 5433   4.878   2.315   6.553 -0.0084 -0.4339 -3.2582
   66SAPC   O21 5434   4.938   2.111   6.491 -0.2161  0.5312  0.0476
   66SAPC   C21 5435   5.064   2.148   6.486 -0.0726 -0.5483  0.2846
   66SAPC   O22 5436   5.112   2.245   6.536 -0.4262 -0.0179 -0.6537
   66SAPC   C22 5437   5.146   2.044   6.420 -0.3137  1.3100  0.0825
   66SAPC   H2R 5438   5.171   2.074   6.316  0.2154  2.4239  0.5057
   66SAPC   H2S 5439   5.245   2.043   6.471  0.1732  0.4529 -0.8448
   66SAPC    C3 5440   4.836   2.159   6.712  0.2820  0.1672  0.3242
   66SAPC    HX 5441   4.927   2.171   6.774  0.1278  1.0020  0.4035
   66SAPC    HY 5442   4.816   2.050   6.703  2.1366 -0.2658  1.1991
   66SAPC   O31 5443   4.727   2.222   6.792 -0.5437  0.0950 -0.0951
   66SAPC   C31 5444   4.734   2.356   6.815  0.0489 -0.2939  0.1435
   66SAPC   O32 5445   4.820   2.432   6.771  0.6253 -0.5178  0.3950
   66SAPC   C32 5446   4.625   2.401   6.906 -0.6587  0.3311  0.1287
   66SAPC   H2X 5447   4.534   2.404   6.842 -0.2906  0.0386 -0.4147
   66SAPC   H2Y 5448   4.651   2.501   6.948 -1.9022 -0.6201  3.5244
   66SAPC   C23 5449   5.089   1.898   6.417 -0.3460  0.4648 -1.0943
   66SAPC   H3R 5450   5.173   1.839   6.372  0.0522 -0.3783  0.6665
   66SAPC   H3S 5451   5.000   1.891   6.351  0.5244 -0.6268 -2.2229
   66SAPC   C24 5452   5.068   1.825   6.551  0.0897 -0.2646 -0.8910
   66SAPC   H4R 5453   5.016   1.727   6.536  0.5404 -0.8414  1.0678
   66SAPC   H4S 5454   5.002   1.898   6.603 -0.5450  0.0492 -2.0841
   66SAPC   C25 5455   5.190   1.805   6.634  0.3561  0.1371  0.2586
   66SAPC   H5R 5456   5.253   1.719   6.609 -1.4607 -1.0193 -0.5177
   66SAPC   C26 5457   5.226   1.872   6.745  0.0512  0.7952 -0.7268
   66SAPC   H6R 5458   5.323   1.848   6.790  0.7422  0.6941 -2.2200
   66SAPC   C27 5459   5.146   1.979   6.815 -0.8207 -0.1339 -0.0353
   66SAPC   H7R 5460   5.114   1.950   6.917  2.4607  2.3660  1.9224
   66SAPC   H7S 5461   5.048   2.001   6.766 -0.5556  1.0100 -0.0767
   66SAPC   C28 5462   5.242   2.093   6.810 -0.4707  0.3073 -0.4588
   66SAPC   H8R 5463   5.266   2.135   6.711 -1.2121  2.6601  0.2816
   66SAPC   C29 5464   5.282   2.169   6.915  0.0691  0.3653 -0.1572
   66SAPC   H9R 5465   5.357   2.248   6.901 -0.7160  1.4123  1.2840
   66SAPC  C210 5466   5.245   2.146   7.061  0.8708 -0.7011 -0.5203
   66SAPC  H10R 5467   5.248   2.038   7.086 -2.0653 -0.2925  2.1528
   66SAPC  H10S 5468   5.136   2.167   7.068  0.1058 -2.8588 -3.8592
   66SAPC  C211 5469   5.311   2.242   7.161 -0.9099  0.6707 -0.6575
   66SAPC  H11R 5470   5.372   2.319   7.113  0.5570  0.0387  0.1365
   66SAPC  C212 5471   5.313   2.231   7.290  0.0407 -1.1923 -0.0878
   66SAPC  H12R 5472   5.367   2.309   7.345  2.3842 -2.3451 -0.6091
   66SAPC  C213 5473   5.245   2.123   7.370  0.1817  0.2813  0.3923
   66SAPC  H13R 5474   5.326   2.058   7.410  0.5319 -0.6336 -1.6627
   66SAPC  H13S 5475   5.179   2.059   7.307 -1.0276  1.1669  0.7272
   66SAPC  C214 5476   5.175   2.191   7.491  0.3899 -0.5105  0.5269
   66SAPC  H14R 5477   5.065   2.198   7.487  0.2375 -1.5639  2.1035
   66SAPC  C215 5478   5.234   2.248   7.601  0.5556 -0.6522 -0.4897
   66SAPC  H15R 5479   5.174   2.294   7.680  0.1394  0.4250 -1.4113
   66SAPC  C216 5480   5.382   2.266   7.626 -0.2876 -0.2498  0.3216
   66SAPC  H16R 5481   5.418   2.370   7.614  0.7151 -0.6737 -0.4873
   66SAPC  H16S 5482   5.437   2.217   7.542  1.7982  1.2859  0.7178
   66SAPC  C217 5483   5.415   2.204   7.765 -0.3431 -1.2712  0.4540
   66SAPC  H17R 5484   5.524   2.189   7.755 -0.2470 -1.1635  1.2649
   66SAPC  H17S 5485   5.377   2.101   7.778 -1.4068 -0.7981  1.2976
   66SAPC  C218 5486   5.383   2.305   7.878  0.6602  0.3856 -0.4682
   66SAPC  H18R 5487   5.274   2.328   7.884  0.7461  0.6621  0.0811
   66SAPC  H18S 5488   5.423   2.406   7.853 -1.7296  1.0812 -1.8095
   66SAPC  C219 5489   5.449   2.269   8.015 -0.6532 -0.3963 -0.7871
   66SAPC  H19R 5490   5.438   2.357   8.082  1.8775  0.0194 -0.8354
   66SAPC  H19S 5491   5.559   2.265   8.006 -0.5755 -0.2266 -0.0186
   66SAPC  C220 5492   5.412   2.136   8.067 -0.0764  0.0767 -0.9304
   66SAPC  H20R 5493   5.460   2.118   8.165 -3.0520  2.4173  1.1574
   66SAPC  H20S 5494   5.440   2.053   7.999  0.7945  0.1999 -0.7236
   66SAPC  H20T 5495   5.302   2.129   8.083  0.0078  0.2059 -0.2733
   66SAPC   C33 5496   4.616   2.303   7.039  0.2352 -0.0416 -0.3434
   66SAPC   H3X 5497   4.620   2.194   7.022  0.6201 -0.4328  1.9539
   66SAPC   H3Y 5498   4.512   2.330   7.067  0.8005  0.3064  1.5923
   66SAPC   C34 5499   4.708   2.334   7.154  0.2518 -0.4335 -0.4942
   66SAPC   H4X 5500   4.697   2.443   7.174  0.8689 -0.4415 -0.0919
   66SAPC   H4Y 5501   4.809   2.323   7.109  0.6578  0.0865  0.2755
   66SAPC   C35 5502   4.666   2.254   7.279  0.0067 -0.6426 -0.3501
   66SAPC   H5X 5503   4.682   2.149   7.247 -0.7306 -0.6052 -0.8708
   66SAPC   H5Y 5504   4.557   2.268   7.301 -0.4694 -0.6058 -2.5370
   66SAPC   C36 5505   4.740   2.285   7.412  0.2778 -0.2616 -0.1977
   66SAPC   H6X 5506   4.749   2.395   7.423  0.3768 -0.5167  3.7462
   66SAPC   H6Y 5507   4.843   2.243   7.409 -0.0469 -1.0900 -0.2090
   66SAPC   C37 5508   4.673   2.219   7.534 -0.2358  0.4335 -0.4213
   66SAPC   H7X 5509   4.680   2.109   7.522  0.2015  0.4324 -0.1702
   66SAPC   H7Y 5510   4.566   2.245   7.522 -0.5310 -0.5245  0.0536
   66SAPC   C38 5511   4.733   2.263   7.675  0.3602  0.4020  0.8897
   66SAPC   H8X 5512   4.728   2.374   7.667  0.9783  0.4634  1.3442
   66SAPC   H8Y 5513   4.835   2.219   7.681 -0.1560 -1.0036 -0.1377
   66SAPC   C39 5514   4.641   2.222   7.793  0.3839  0.0513  0.1464
   66SAPC   H9X 5515   4.634   2.112   7.789 -1.3970  0.1101  0.7248
   66SAPC   H9Y 5516   4.539   2.263   7.774  0.3760 -0.6567 -1.4968
   66SAPC  C310 5517   4.700   2.265   7.927  0.5051  0.3499 -0.1618
   66SAPC  H10X 5518   4.663   2.368   7.945  2.1463  1.0885 -0.8576
   66SAPC  H10Y 5519   4.810   2.254   7.930  0.3014 -2.0850  1.4840
   66SAPC  C311 5520   4.651   2.180   8.048 -0.3295  0.1906  0.0298
   66SAPC  H11X 5521   4.686   2.075   8.033 -0.7631 -0.6345  3.7286
   66SAPC  H11Y 5522   4.541   2.168   8.042 -0.2823 -0.2104 -0.0893
   66SAPC  C312 5523   4.691   2.232   8.185 -0.3058 -0.0064 -0.5890
   66SAPC  H12X 5524   4.647   2.161   8.258 -0.6552  0.6112 -0.1944
   66SAPC  H12Y 5525   4.645   2.331   8.203  1.4480  0.7048  0.1908
   66SAPC  C313 5526   4.845   2.235   8.212 -0.6614  0.0233  0.0764
   66SAPC  H13X 5527   4.901   2.258   8.119  0.1631 -1.2678  0.2315
   66SAPC  H13Y 5528   4.888   2.136   8.238  1.4122  1.1784  1.3179
   66SAPC  C314 5529   4.892   2.343   8.315 -0.1022 -0.1910  0.0452
   66SAPC  H14X 5530   4.847   2.306   8.409 -1.9566 -0.9822 -1.0960
   66SAPC  H14Y 5531   4.850   2.445   8.299  1.1044  0.0089 -2.1355
   66SAPC  C315 5532   5.044   2.355   8.341  0.2292  0.1651  0.0576
   66SAPC  H15X 5533   5.046   2.419   8.431 -3.8070  0.7188 -0.0530
   66SAPC  H15Y 5534   5.102   2.408   8.262 -1.0846 -0.7139 -1.5677
   66SAPC  C316 5535   5.114   2.223   8.380 -0.9365  0.1031  0.5430
   66SAPC  H16X 5536   5.101   2.164   8.287  0.7284  2.4779 -1.3059
   66SAPC  H16Y 5537   5.062   2.169   8.463  1.1529 -0.8366  1.3013
   66SAPC  C317 5538   5.264   2.236   8.419  0.2315 -0.8081 -0.2658
   66SAPC  H17X 5539   5.280   2.313   8.498 -1.1064  2.1503 -2.6319
   66SAPC  H17Y 5540   5.324   2.274   8.333  1.2555  1.2363  1.2688
   66SAPC  C318 5541   5.319   2.095   8.466  0.1404 -0.7613  0.1040
   66SAPC  H18X 5542   5.427   2.118   8.476 -0.1059  1.7853 -1.9528
   66SAPC  H18Y 5543   5.315   2.018   8.386 -1.5648  0.0528 -0.6759
   66SAPC  H18Z 5544   5.269   2.059   8.558  0.1265 -1.0753 -0.0256
   67SAPC     N 5545   0.647   2.315   6.350  0.0357  0.3054  0.6073
   67SAPC   C12 5546   0.691   2.263   6.485 -0.3839  0.0020 -0.1076
   67SAPC  H12A 5547   0.655   2.330   6.562 -1.3083 -0.3759 -0.1947
   67SAPC  H12B 5548   0.799   2.265   6.487 -0.3436  0.1181 -1.4728
   67SAPC   C13 5549   0.678   2.457   6.322  0.0833  0.0132 -0.4288
   67SAPC  H13A 5550   0.776   2.476   6.363  0.2164 -1.9339  0.2632
   67SAPC  H13B 5551   0.690   2.474   6.216  3.1641  0.9757 -0.0244
   67SAPC  H13C 5552   0.624   2.526   6.385  1.2764 -0.1907  0.8673
   67SAPC   C14 5553   0.697   2.238   6.228  0.0540 -0.0805 -0.8332
   67SAPC  H14A 5554   0.691   2.130   6.232  0.6291 -0.0813  1.4012
   67SAPC  H14B 5555   0.633   2.272   6.148  0.6615  2.6064 -0.2629
   67SAPC  H14C 5556   0.798   2.268   6.203 -0.3800  2.1135 -0.1202
   67SAPC   C15 5557   0.495   2.319   6.347 -0.5433  0.2779  0.6168
   67SAPC  H15A 5558   0.461   2.327   6.245 -0.3637  1.7123  0.6480
   67SAPC  H15B 5559   0.462   2.221   6.379  2.0090 -0.3794  1.5563
   67SAPC  H15C 5560   0.459   2.403   6.404  1.5585 -0.0905  2.7059
   67SAPC   C11 5561   0.641   2.127   6.525  0.0939  0.6711  0.2343
   67SAPC  H11A 5562   0.531   2.123   6.543 -0.5121  0.1633 -3.0187
   67SAPC  H11B 5563   0.691   2.109   6.622  1.4411  2.1608 -0.1445
   67SAPC     P 5564   0.574   1.923   6.385 -0.1219  0.4705 -0.5078
   67SAPC   O13 5565   0.452   1.988   6.327 -0.2234 -0.2331 -0.3599
   67SAPC   O14 5566   0.643   1.821   6.301 -0.1176  0.9804  0.3291
   67SAPC   O12 5567   0.682   2.026   6.429 -0.6355 -0.4880 -0.2104
   67SAPC   O11 5568   0.546   1.856   6.516  0.1228 -0.0766 -0.0834
   67SAPC    C1 5569   0.630   1.794   6.601 -0.3679  0.7932  0.1065
   67SAPC    HA 5570   0.689   1.718   6.546  0.4436  1.0278  0.6292
   67SAPC    HB 5571   0.712   1.864   6.628  0.8442 -0.4857 -0.1538
   67SAPC    C2 5572   0.561   1.734   6.729 -0.0643 -0.0394 -0.5607
   67SAPC    HS 5573   0.628   1.658   6.775 -1.6737 -0.1268  1.8339
   67SAPC   O21 5574   0.438   1.674   6.697  0.3481 -0.1129 -0.3815
   67SAPC   C21 5575   0.446   1.559   6.632 -0.0592  0.5309  1.3881
   67SAPC   O22 5576   0.547   1.495   6.606  0.2453  0.1533 -0.3895
   67SAPC   C22 5577   0.298   1.518   6.598  0.4476 -0.5899  1.3853
   67SAPC   H2R 5578   0.256   1.617   6.570 -1.7017 -1.2375  2.1567
   67SAPC   H2S 5579   0.323   1.447   6.516  0.4003  0.8504  0.0746
   67SAPC    C3 5580   0.546   1.840   6.833  0.0377  0.0484  0.5227
   67SAPC    HX 5581   0.488   1.924   6.788  2.4397  1.0227 -0.9170
   67SAPC    HY 5582   0.649   1.881   6.837 -0.4770  1.3589  0.7492
   67SAPC   O31 5583   0.502   1.791   6.959 -0.5637  0.1294 -0.2675
   67SAPC   C31 5584   0.378   1.826   6.989 -0.3914  0.0635 -0.5397
   67SAPC   O32 5585   0.303   1.896   6.922 -0.1183  0.5297  0.4186
   67SAPC   C32 5586   0.344   1.752   7.114 -0.0807  0.1064 -0.4798
   67SAPC   H2X 5587   0.427   1.679   7.124 -1.0582 -1.1447 -1.2408
   67SAPC   H2Y 5588   0.254   1.688   7.109  0.2958 -0.4449 -0.3887
   67SAPC   C23 5589   0.209   1.454   6.702  0.6043  0.0515  0.3314
   67SAPC   H3R 5590   0.266   1.382   6.764 -0.1040 -1.6539 -0.9243
   67SAPC   H3S 5591   0.141   1.392   6.640  2.1907 -0.1899 -1.2158
   67SAPC   C24 5592   0.121   1.552   6.787  0.0137 -0.0958  0.3281
   67SAPC   H4R 5593   0.072   1.622   6.716  1.2695 -0.5763 -1.0567
   67SAPC   H4S 5594   0.182   1.610   6.860 -1.3895  1.3971  0.3669
   67SAPC   C25 5595   0.029   1.465   6.869  0.1050 -0.0092 -0.9293
   67SAPC   H5R 5596  -0.075   1.456   6.836 -0.2011 -0.2330  0.0762
   67SAPC   C26 5597   0.058   1.403   6.982  0.4639  0.5136 -0.3829
   67SAPC   H6R 5598  -0.018   1.340   7.031  1.3734  0.2429  0.7153
   67SAPC   C27 5599   0.197   1.411   7.054  0.4164  0.2253  0.3430
   67SAPC   H7R 5600   0.187   1.473   7.145 -0.8892 -2.6408  2.3057
   67SAPC   H7S 5601   0.277   1.458   6.993  0.3195 -0.1615 -0.0904
   67SAPC   C28 5602   0.245   1.273   7.087 -0.9636  0.2194  0.0521
   67SAPC   H8R 5603   0.272   1.208   7.002 -1.8187 -1.3599  0.9508
   67SAPC   C29 5604   0.244   1.217   7.209 -0.5664 -0.0098 -0.1819
   67SAPC   H9R 5605   0.299   1.123   7.223 -1.7122 -0.8902 -1.2682
   67SAPC  C210 5606   0.205   1.286   7.336  0.0920  0.2172  0.1694
   67SAPC  H10R 5607   0.208   1.397   7.326  0.4486  0.3318  1.3994
   67SAPC  H10S 5608   0.288   1.278   7.410  0.3615  2.0527  0.1262
   67SAPC  C211 5609   0.078   1.248   7.398 -0.1194 -0.1977 -0.3619
   67SAPC  H11R 5610  -0.017   1.262   7.344 -0.7124  0.5844  0.8229
   67SAPC  C212 5611   0.055   1.211   7.530 -0.2780 -0.4068  1.3097
   67SAPC  H12R 5612  -0.048   1.185   7.557 -0.4299 -1.8361 -0.4684
   67SAPC  C213 5613   0.162   1.206   7.635  0.5743  0.2592 -0.1318
   67SAPC  H13R 5614   0.261   1.180   7.592  0.3070  1.6483 -1.6982
   67SAPC  H13S 5615   0.147   1.129   7.714  2.0235  0.5488  0.4697
   67SAPC  C214 5616   0.177   1.346   7.688 -0.1177  0.1860 -0.1937
   67SAPC  H14R 5617   0.239   1.414   7.628 -0.0332 -1.4711 -2.1067
   67SAPC  C215 5618   0.110   1.391   7.799 -0.3095 -0.0791  0.6679
   67SAPC  H15R 5619   0.127   1.494   7.832 -0.3948 -0.2253  1.1773
   67SAPC  C216 5620   0.010   1.309   7.875  0.2082 -0.0776  0.4682
   67SAPC  H16R 5621   0.053   1.258   7.963  1.9656  1.6665  0.6970
   67SAPC  H16S 5622  -0.027   1.224   7.813  2.1441 -1.7719  1.5351
   67SAPC  C217 5623  -0.120   1.378   7.927  0.1738 -0.2883  0.1880
   67SAPC  H17R 5624  -0.200   1.397   7.853  2.5453 -1.0605 -2.7599
   67SAPC  H17S 5625  -0.080   1.476   7.959  0.2234 -0.0520 -0.5935
   67SAPC  C218 5626  -0.170   1.308   8.050  0.6010  0.4409  0.4804
   67SAPC  H18R 5627  -0.089   1.282   8.122  0.4288  0.4564  0.6818
   67SAPC  H18S 5628  -0.199   1.208   8.011  0.2517  0.9849 -0.6926
   67SAPC  C219 5629  -0.297   1.389   8.100  0.5162  0.4641  0.1633
   67SAPC  H19R 5630  -0.367   1.325   8.157 -3.5608  2.8951 -1.6727
   67SAPC  H19S 5631  -0.349   1.424   8.008  0.5168  0.6380  0.2299
   67SAPC  C220 5632  -0.265   1.499   8.194  0.8067  0.4616  0.1895
   67SAPC  H20R 5633  -0.352   1.567   8.206  0.8287  0.1163  3.0129
   67SAPC  H20S 5634  -0.170   1.545   8.158  0.9145  1.1785  1.3466
   67SAPC  H20T 5635  -0.242   1.451   8.292 -0.5310 -0.9214 -0.1356
   67SAPC   C33 5636   0.326   1.848   7.237  0.2538  0.0891  0.6466
   67SAPC   H3X 5637   0.221   1.883   7.224  0.6350  0.3045 -2.4649
   67SAPC   H3Y 5638   0.384   1.942   7.220 -0.1632  0.1850 -0.2962
   67SAPC   C34 5639   0.357   1.803   7.379 -0.0851  0.1085  0.1638
   67SAPC   H4X 5640   0.466   1.789   7.390 -0.0821  0.5616  0.7480
   67SAPC   H4Y 5641   0.304   1.706   7.391 -0.2535  0.1666 -0.1015
   67SAPC   C35 5642   0.318   1.904   7.487  0.2338 -0.6691 -0.3752
   67SAPC   H5X 5643   0.210   1.928   7.479  0.5740  2.0139  1.6094
   67SAPC   H5Y 5644   0.382   1.995   7.489  0.8249 -1.0866  0.3308
   67SAPC   C36 5645   0.337   1.856   7.633 -0.4383 -0.2759 -0.3477
   67SAPC   H6X 5646   0.439   1.816   7.653 -0.3696 -0.0767 -0.2986
   67SAPC   H6Y 5647   0.275   1.764   7.642  2.3349 -2.4555 -1.6246
   67SAPC   C37 5648   0.304   1.948   7.749 -0.1350 -0.6788 -0.3934
   67SAPC   H7X 5649   0.198   1.981   7.757  0.4300  0.8148  1.6263
   67SAPC   H7Y 5650   0.367   2.039   7.737 -2.7287  1.5728  1.8035
   67SAPC   C38 5651   0.345   1.892   7.887  0.5614 -0.1521  0.2760
   67SAPC   H8X 5652   0.454   1.873   7.897  0.7978  0.0794 -1.5492
   67SAPC   H8Y 5653   0.291   1.795   7.894 -0.7792  0.6096  1.0628
   67SAPC   C39 5654   0.285   1.969   8.004  0.1761  0.1545 -0.6216
   67SAPC   H9X 5655   0.174   1.974   8.001  0.1510 -0.5815 -1.1092
   67SAPC   H9Y 5656   0.324   2.073   7.998  0.0532  0.1420 -1.9313
   67SAPC  C310 5657   0.319   1.905   8.144 -0.3823 -0.8164 -0.6800
   67SAPC  H10X 5658   0.417   1.940   8.181 -0.5265 -0.8067 -0.3035
   67SAPC  H10Y 5659   0.304   1.796   8.128 -0.3480 -1.2606  1.9648
   67SAPC  C311 5660   0.214   1.944   8.249 -0.1847 -1.0555 -0.0219
   67SAPC  H11X 5661   0.112   1.931   8.206  0.2427 -1.1469 -1.0435
   67SAPC  H11Y 5662   0.220   2.052   8.273  1.7930 -0.9370 -0.8003
   67SAPC  C312 5663   0.232   1.873   8.380  0.7039  0.8918 -0.1425
   67SAPC  H12X 5664   0.303   1.789   8.368  0.5876  1.0541 -2.2837
   67SAPC  H12Y 5665   0.132   1.831   8.404  1.2014  0.1139  0.6343
   67SAPC  C313 5666   0.288   1.954   8.496 -0.1774 -0.3669  0.3857
   67SAPC  H13X 5667   0.220   2.043   8.505 -0.6096 -0.4561 -1.4449
   67SAPC  H13Y 5668   0.391   1.982   8.468  0.4078 -3.0914 -0.4378
   67SAPC  C314 5669   0.288   1.874   8.631  0.5796 -0.2976  0.4120
   67SAPC  H14X 5670   0.327   1.773   8.607  1.7446  0.7766 -2.5250
   67SAPC  H14Y 5671   0.186   1.855   8.674  0.5035  1.5498  1.1349
   67SAPC  C315 5672   0.376   1.944   8.736  0.5269  0.3126  0.2919
   67SAPC  H15X 5673   0.337   2.034   8.787  0.1048  1.0461 -1.2807
   67SAPC  H15Y 5674   0.467   1.976   8.680 -0.8552  1.0820 -1.6002
   67SAPC  C316 5675   0.423   1.844   8.850  0.6457  0.3083 -0.3449
   67SAPC  H16X 5676   0.419   1.740   8.811  1.1171  0.8560 -1.9562
   67SAPC  H16Y 5677   0.344   1.850   8.928  1.4255 -1.4927  0.6209
   67SAPC  C317 5678   0.556   1.871   8.922  0.0929 -0.7015 -0.6315
   67SAPC  H17X 5679   0.576   1.784   8.988  0.1185 -0.3775 -0.2103
   67SAPC  H17Y 5680   0.537   1.964   8.980  1.5881  0.0445 -1.2912
   67SAPC  C318 5681   0.672   1.899   8.836  0.7298  0.4248  0.1216
   67SAPC  H18X 5682   0.658   1.987   8.771  0.4853 -0.6676 -1.3555
   67SAPC  H18Y 5683   0.682   1.820   8.759 -0.2670 -0.4959  0.8989
   67SAPC  H18Z 5684   0.768   1.911   8.892 -0.0218  1.5910  1.2016
   68SAPC     N 5685   4.893   1.601   6.064 -0.1513 -0.0797  0.4120
   68SAPC   C12 5686   5.010   1.635   6.154  1.3739  0.0237  0.2377
   68SAPC  H12A 5687   4.986   1.732   6.194 -0.6207 -0.5118  0.4706
   68SAPC  H12B 5688   5.102   1.649   6.099  2.3513 -0.8359  1.5959
   68SAPC   C13 5689   4.928   1.469   5.997  0.0981 -0.5024 -0.5908
   68SAPC  H13A 5690   4.948   1.397   6.075  1.4873  0.1042 -0.3513
   68SAPC  H13B 5691   4.837   1.442   5.946 -0.0334  0.6040 -0.9527
   68SAPC  H13C 5692   5.009   1.467   5.926  1.7361 -0.4766  1.1672
   68SAPC   C14 5693   4.761   1.586   6.133  0.1555 -0.5361  0.6775
   68SAPC  H14A 5694   4.717   1.684   6.141 -2.5170 -1.5966 -0.1643
   68SAPC  H14B 5695   4.694   1.525   6.076 -2.2464  1.7950  0.8110
   68SAPC  H14C 5696   4.774   1.547   6.233 -0.7380  1.0698  1.4617
   68SAPC   C15 5697   4.875   1.702   5.947  0.6501  0.4136 -0.3798
   68SAPC  H15A 5698   4.796   1.671   5.881 -0.6530  1.2450  0.7342
   68SAPC  H15B 5699   4.844   1.797   5.987 -0.4775  0.3913 -1.1660
   68SAPC  H15C 5700   4.970   1.708   5.895  0.2515  0.1969 -1.1500
   68SAPC   C11 5701   5.043   1.542   6.267 -0.7368  0.8779 -0.4843
   68SAPC  H11A 5702   4.958   1.530   6.338 -0.5906 -2.8923 -0.7500
   68SAPC  H11B 5703   5.128   1.585   6.324  0.2163 -0.3922 -0.8902
   68SAPC     P 5704   5.229   1.395   6.163 -0.3378  0.6520 -0.4063
   68SAPC   O13 5705   5.248   1.255   6.139  0.3237  0.8862 -0.4013
   68SAPC   O14 5706   5.245   1.487   6.045 -0.1060  0.8696 -0.0322
   68SAPC   O12 5707   5.087   1.411   6.230  0.7079  0.2767 -0.3321
   68SAPC   O11 5708   5.341   1.434   6.266 -0.2918  0.0437 -0.1086
   68SAPC    C1 5709   5.322   1.401   6.405 -0.1878 -0.2370  0.3642
   68SAPC    HA 5710   5.222   1.425   6.447  0.0949  0.9352  0.3960
   68SAPC    HB 5711   5.341   1.292   6.411 -2.3986 -0.5852  1.9160
   68SAPC    C2 5712   5.433   1.463   6.497  0.2051  0.0478 -0.1169
   68SAPC    HS 5713   5.527   1.405   6.485 -0.0852 -0.3045 -0.7895
   68SAPC   O21 5714   5.392   1.470   6.631  0.0208  0.2048  0.1993
   68SAPC   C21 5715   5.384   1.358   6.700  0.4914 -0.2390 -0.3462
   68SAPC   O22 5716   5.425   1.247   6.667  0.3309  0.0406  0.1918
   68SAPC   C22 5717   5.306   1.381   6.836 -0.4017 -0.0752  0.0812
   68SAPC   H2R 5718   5.226   1.457   6.819 -0.6727 -0.5791 -0.9778
   68SAPC   H2S 5719   5.264   1.280   6.856 -0.2159 -0.0671  0.5146
   68SAPC    C3 5720   5.469   1.607   6.450  0.2510  0.3701 -0.3678
   68SAPC    HX 5721   5.372   1.657   6.429 -1.1516 -1.5669  1.1224
   68SAPC    HY 5722   5.529   1.608   6.356  0.0539  1.0081 -0.4892
   68SAPC   O31 5723   5.551   1.682   6.543  0.2285  0.3845 -0.2863
   68SAPC   C31 5724   5.545   1.816   6.521  0.3982  0.4977 -0.5701
   68SAPC   O32 5725   5.485   1.867   6.435  0.3185  0.1536 -0.0778
   68SAPC   C32 5726   5.635   1.891   6.626 -0.0607 -0.0922  0.2098
   68SAPC   H2X 5727   5.560   1.949   6.683 -0.1087 -1.1278  1.2405
   68SAPC   H2Y 5728   5.699   1.957   6.563 -0.7575 -0.1674 -0.6076
   68SAPC   C23 5729   5.407   1.420   6.942 -0.1897  0.0587  0.2001
   68SAPC   H3R 5730   5.462   1.509   6.907 -1.8861  1.0589 -0.0125
   68SAPC   H3S 5731   5.482   1.339   6.958 -1.3307 -0.8190  1.2838
   68SAPC   C24 5732   5.337   1.447   7.079  0.2642 -0.1523 -0.0226
   68SAPC   H4R 5733   5.412   1.447   7.161 -1.6926  2.1180  1.9232
   68SAPC   H4S 5734   5.278   1.355   7.098 -1.1955  0.2082 -2.4409
   68SAPC   C25 5735   5.251   1.577   7.092 -1.3051 -0.8858 -0.5334
   68SAPC   H5R 5736   5.248   1.629   6.995 -0.6753  1.7978  0.7694
   68SAPC   C26 5737   5.196   1.634   7.201  0.2944  0.0350  0.2904
   68SAPC   H6R 5738   5.141   1.728   7.188 -0.7966 -0.7412 -0.9767
   68SAPC   C27 5739   5.182   1.570   7.334  0.3226  0.0211 -0.7526
   68SAPC   H7R 5740   5.184   1.647   7.414  3.4628 -0.5308 -0.1747
   68SAPC   H7S 5741   5.268   1.508   7.367  0.4522  0.2839 -0.5872
   68SAPC   C28 5742   5.063   1.479   7.341  0.1852  0.4442 -0.7155
   68SAPC   H8R 5743   4.999   1.482   7.252  0.5988 -1.8342 -1.1527
   68SAPC   C29 5744   5.027   1.386   7.439 -0.6419 -0.2500 -1.0575
   68SAPC   H9R 5745   4.934   1.332   7.415 -1.0214 -0.4963  0.8020
   68SAPC  C210 5746   5.082   1.363   7.578 -0.5488  0.1185 -0.2462
   68SAPC  H10R 5747   5.158   1.282   7.580 -1.3799 -0.7974 -2.7983
   68SAPC  H10S 5748   5.001   1.320   7.640  1.3182 -1.8930  0.9173
   68SAPC  C211 5749   5.143   1.467   7.672  0.2546 -0.5201 -0.3583
   68SAPC  H11R 5750   5.153   1.567   7.627  1.8704 -0.5346 -0.1092
   68SAPC  C212 5751   5.165   1.445   7.810 -0.3478  0.6126  0.8359
   68SAPC  H12R 5752   5.197   1.528   7.874 -1.6198  0.9230  1.0963
   68SAPC  C213 5753   5.148   1.308   7.876 -0.7465 -0.2933  0.7185
   68SAPC  H13R 5754   5.242   1.256   7.849 -0.1084  2.0463 -1.9464
   68SAPC  H13S 5755   5.067   1.250   7.826  0.5043 -0.7542 -0.8145
   68SAPC  C214 5756   5.143   1.320   8.022  0.7472 -0.5951  0.8999
   68SAPC  H14R 5757   5.085   1.406   8.059  2.3033 -0.1783  2.5025
   68SAPC  C215 5758   5.195   1.237   8.109  0.0062 -0.5286  0.3262
   68SAPC  H15R 5759   5.181   1.271   8.213 -0.2370  2.8640 -0.6999
   68SAPC  C216 5760   5.272   1.110   8.084 -0.2399 -0.0588 -0.1914
   68SAPC  H16R 5761   5.368   1.106   8.140 -0.8992  1.1375  1.1039
   68SAPC  H16S 5762   5.290   1.110   7.974  0.2174  0.3303 -0.1206
   68SAPC  C217 5763   5.182   0.991   8.120  0.0446  0.1969  0.4277
   68SAPC  H17R 5764   5.085   1.005   8.066 -1.2062 -2.5230  1.7326
   68SAPC  H17S 5765   5.159   0.977   8.228  1.3923  1.8708  0.9666
   68SAPC  C218 5766   5.241   0.858   8.068 -0.1149  0.0499 -0.1603
   68SAPC  H18R 5767   5.185   0.776   8.120  0.9785 -0.6216 -0.0163
   68SAPC  H18S 5768   5.348   0.855   8.098  0.0448 -0.2284 -0.7478
   68SAPC  C219 5769   5.218   0.834   7.923  0.7410 -0.0842  0.2818
   68SAPC  H19R 5770   5.252   0.921   7.863 -2.9626  1.3229 -0.0875
   68SAPC  H19S 5771   5.111   0.817   7.898  0.7360  0.8065 -0.3648
   68SAPC  C220 5772   5.291   0.707   7.874 -0.0959  0.6626  0.4372
   68SAPC  H20R 5773   5.399   0.710   7.900 -0.5419  2.0650  2.3555
   68SAPC  H20S 5774   5.284   0.694   7.764 -1.6361  1.8283  0.3630
   68SAPC  H20T 5775   5.244   0.614   7.913  1.2018 -1.4359 -2.5669
   68SAPC   C33 5776   5.721   1.801   6.717 -0.2747  0.1233  0.4658
   68SAPC   H3X 5777   5.796   1.861   6.773  0.4157 -1.1233  0.9128
   68SAPC   H3Y 5778   5.783   1.729   6.660  1.0696  0.2820  1.6719
   68SAPC   C34 5779   5.641   1.727   6.820 -0.0148  0.0738 -0.9218
   68SAPC   H4X 5780   5.591   1.643   6.767 -0.6054  0.6489 -1.2843
   68SAPC   H4Y 5781   5.572   1.800   6.868 -0.2478  0.1175 -1.3150
   68SAPC   C35 5782   5.728   1.670   6.935  0.7671 -0.6695  0.0802
   68SAPC   H5X 5783   5.838   1.661   6.921  0.9654 -2.3817  2.1565
   68SAPC   H5Y 5784   5.701   1.567   6.967  1.2631 -1.3596 -1.5987
   68SAPC   C36 5785   5.730   1.760   7.063  0.5683  0.0647  0.3471
   68SAPC   H6X 5786   5.723   1.864   7.026  1.9146 -0.7407 -2.5087
   68SAPC   H6Y 5787   5.832   1.756   7.106  0.3777 -0.0153  0.7920
   68SAPC   C37 5788   5.619   1.706   7.165 -0.2120  0.6414  0.2013
   68SAPC   H7X 5789   5.627   1.598   7.188  0.7177  1.1248  2.2896
   68SAPC   H7Y 5790   5.516   1.728   7.127 -1.0419 -3.9536 -0.7811
   68SAPC   C38 5791   5.629   1.778   7.298 -0.4694  0.6834  0.0357
   68SAPC   H8X 5792   5.625   1.888   7.280  1.4082  0.9387  0.9206
   68SAPC   H8Y 5793   5.737   1.761   7.320 -0.0293 -0.0136 -2.3710
   68SAPC   C39 5794   5.540   1.728   7.417 -0.4218 -0.2303  0.2166
   68SAPC   H9X 5795   5.585   1.632   7.449 -0.0518 -0.8085 -1.8667
   68SAPC   H9Y 5796   5.441   1.705   7.372  0.4258 -2.8869 -0.4323
   68SAPC  C310 5797   5.525   1.829   7.537  0.1237 -0.9287 -0.2143
   68SAPC  H10X 5798   5.465   1.912   7.494  1.3514  0.3593  0.4564
   68SAPC  H10Y 5799   5.623   1.874   7.563  0.2340 -1.3569  0.1263
   68SAPC  C311 5800   5.452   1.768   7.670 -0.9109 -0.1883  0.0559
   68SAPC  H11X 5801   5.368   1.702   7.638 -1.6011  0.4946  0.4112
   68SAPC  H11Y 5802   5.414   1.845   7.741  1.8587  0.0391  1.4267
   68SAPC  C312 5803   5.556   1.697   7.752 -0.2534  0.2989  0.1380
   68SAPC  H12X 5804   5.627   1.765   7.804  0.0656 -0.5636  0.8557
   68SAPC  H12Y 5805   5.606   1.628   7.681  1.4953  2.1305 -0.4982
   68SAPC  C313 5806   5.495   1.607   7.852 -0.1381  0.1481 -0.7853
   68SAPC  H13X 5807   5.547   1.508   7.851 -1.3190 -0.5003 -2.3485
   68SAPC  H13Y 5808   5.390   1.584   7.827 -0.0243 -1.4126  0.0470
   68SAPC  C314 5809   5.499   1.658   7.994  0.1900  0.1475  0.1585
   68SAPC  H14X 5810   5.427   1.742   8.008 -0.5252  0.5581 -4.4187
   68SAPC  H14Y 5811   5.601   1.687   8.026 -0.0958 -0.3578  1.6212
   68SAPC  C315 5812   5.449   1.555   8.091 -0.3474  0.4079  0.5169
   68SAPC  H15X 5813   5.507   1.461   8.085 -0.7653 -0.1445  3.3602
   68SAPC  H15Y 5814   5.351   1.515   8.057  1.7693 -1.2627 -4.4897
   68SAPC  C316 5815   5.437   1.593   8.237 -0.6568 -0.0857 -0.1128
   68SAPC  H16X 5816   5.434   1.501   8.300 -2.4859 -0.6520 -0.9540
   68SAPC  H16Y 5817   5.346   1.653   8.256 -1.7226 -1.1680 -1.5690
   68SAPC  C317 5818   5.562   1.679   8.283 -0.0592  0.8480  0.1247
   68SAPC  H17X 5819   5.573   1.776   8.230 -1.2464  1.2285  0.5331
   68SAPC  H17Y 5820   5.646   1.608   8.273 -0.1184  0.4610  1.9628
   68SAPC  C318 5821   5.549   1.717   8.430 -0.1573 -0.6205 -0.6763
   68SAPC  H18X 5822   5.461   1.781   8.453 -0.4391 -1.4308  0.6028
   68SAPC  H18Y 5823   5.647   1.765   8.453 -1.1083  2.2383 -2.0654
   68SAPC  H18Z 5824   5.535   1.628   8.495 -0.4241  0.7878  1.3176
   69SLPC     N 5825   2.488   4.572  11.286  0.6292  0.5315 -0.0854
   69SLPC   C13 5826   2.626   4.515  11.280 -0.8465 -0.4199 -0.0720
   69SLPC  H13A 5827   2.645   4.431  11.346  0.1353 -0.2284 -0.0989
   69SLPC  H13B 5828   2.632   4.467  11.184  2.9555  2.1984 -1.3458
   69SLPC  H13C 5829   2.706   4.587  11.277  0.8158 -2.2185 -1.8527
   69SLPC   C14 5830   2.468   4.690  11.203  0.5989  0.2685  0.6258
   69SLPC  H14A 5831   2.516   4.775  11.250  1.2510  1.1913 -1.6052
   69SLPC  H14B 5832   2.517   4.693  11.107  1.1445  1.1087  0.9213
   69SLPC  H14C 5833   2.366   4.715  11.178  0.4725  2.2343  2.7427
   69SLPC   C15 5834   2.459   4.610  11.431 -0.0060  0.1446 -0.1863
   69SLPC  H15A 5835   2.362   4.656  11.441  0.6123  1.2466  1.1275
   69SLPC  H15B 5836   2.456   4.527  11.501  0.6327  1.7451  1.8577
   69SLPC  H15C 5837   2.535   4.684  11.450  0.0066  1.1565 -3.6220
   69SLPC   C12 5838   2.391   4.457  11.244 -0.0838  0.6757  0.1181
   69SLPC  H12A 5839   2.286   4.484  11.239 -0.4448 -0.7466 -0.5856
   69SLPC  H12B 5840   2.386   4.384  11.323 -2.3002 -0.6561 -1.1560
   69SLPC   C11 5841   2.432   4.387  11.119 -0.0815  0.1103  0.2241
   69SLPC  H11A 5842   2.524   4.329  11.139 -1.1754 -2.2045 -1.1102
   69SLPC  H11B 5843   2.450   4.458  11.035 -0.5779  1.0157  0.8662
   69SLPC     P 5844   2.190   4.331  11.033 -0.1391 -0.2131  0.7191
   69SLPC   O13 5845   2.103   4.210  11.026 -0.5784 -0.0319  0.0717
   69SLPC   O14 5846   2.135   4.442  11.116 -1.3503  0.1978 -0.2717
   69SLPC   O12 5847   2.337   4.286  11.083  0.2829 -0.0292  0.4641
   69SLPC   O11 5848   2.213   4.389  10.886 -0.4577  0.5233  0.3508
   69SLPC    C1 5849   2.256   4.289  10.790  0.4330 -0.3516 -0.6246
   69SLPC    HA 5850   2.359   4.258  10.818  0.2071  0.6071  1.4532
   69SLPC    HB 5851   2.189   4.200  10.783  1.2302 -1.0053 -0.0961
   69SLPC    C2 5852   2.254   4.339  10.640  0.8312 -0.3254  0.6164
   69SLPC    HS 5853   2.323   4.284  10.573 -1.2507 -1.8444 -0.4229
   69SLPC   O21 5854   2.287   4.484  10.644  0.0592 -0.4949  0.4601
   69SLPC   C21 5855   2.414   4.511  10.668  0.1040 -0.2520  0.2039
   69SLPC   O22 5856   2.500   4.428  10.688  0.5548 -0.0602 -0.2615
   69SLPC   C22 5857   2.430   4.665  10.659  0.5801 -0.1632  0.3874
   69SLPC   H2R 5858   2.339   4.716  10.620 -0.1977 -0.5174  1.7058
   69SLPC   H2S 5859   2.437   4.696  10.765 -0.3149 -1.8625  0.9824
   69SLPC    C3 5860   2.110   4.327  10.574 -0.4239  0.3177 -1.1786
   69SLPC    HX 5861   2.054   4.409  10.623  1.9927  0.6536  1.3202
   69SLPC    HY 5862   2.066   4.232  10.610 -0.3389  0.7548  0.1273
   69SLPC   O31 5863   2.117   4.340  10.429  0.2828 -0.1723 -0.4739
   69SLPC   C31 5864   2.003   4.381  10.366  0.0607 -0.2029 -0.6779
   69SLPC   O32 5865   1.891   4.380  10.419  0.5167 -0.0072  0.4549
   69SLPC   C32 5866   2.029   4.413  10.223 -0.0872  0.3372  0.3285
   69SLPC   H2X 5867   2.138   4.417  10.202 -0.5666  1.2540 -2.3798
   69SLPC   H2Y 5868   1.976   4.505  10.190  1.3308  1.0888  0.0874
   69SLPC   C23 5869   2.553   4.705  10.582  0.1146  0.1283 -0.1403
   69SLPC   H3R 5870   2.649   4.657  10.610  0.4543  0.7554 -0.2237
   69SLPC   H3S 5871   2.561   4.809  10.619  1.2468 -0.4105  1.1919
   69SLPC   C24 5872   2.520   4.722  10.433  0.2511  0.2545 -0.1463
   69SLPC   H4R 5873   2.610   4.762  10.382  3.3374 -2.4499  2.7500
   69SLPC   H4S 5874   2.442   4.801  10.434  1.2157  1.2243  1.1216
   69SLPC   C25 5875   2.475   4.591  10.359 -0.3330 -0.3255  0.4142
   69SLPC   H5R 5876   2.382   4.543  10.395 -0.9280  1.0606  0.7691
   69SLPC   H5S 5877   2.553   4.517  10.387 -2.5231 -2.5953  0.8156
   69SLPC   C26 5878   2.479   4.612  10.209 -0.4822 -0.0529  0.9330
   69SLPC   H6R 5879   2.457   4.516  10.158  4.2204 -1.0804  0.4269
   69SLPC   H6S 5880   2.584   4.637  10.183 -0.8972  0.6586 -0.1409
   69SLPC   C27 5881   2.375   4.720  10.175 -0.1634 -0.3767  0.7660
   69SLPC   H7R 5882   2.387   4.816  10.231  0.9401 -1.0670  1.7794
   69SLPC   H7S 5883   2.283   4.663  10.199  1.5688 -3.6582  0.2230
   69SLPC   C28 5884   2.389   4.767  10.024 -0.1760  0.0796 -0.4066
   69SLPC   H8R 5885   2.493   4.808  10.021 -0.9204  1.9909 -1.4599
   69SLPC   H8S 5886   2.323   4.855  10.009 -0.3398 -0.0429 -0.4074
   69SLPC   C29 5887   2.365   4.641   9.942  0.1425  0.0937 -0.1537
   69SLPC   H9R 5888   2.283   4.583   9.986  1.7041 -1.5774  0.6963
   69SLPC  C210 5889   2.414   4.595   9.825 -0.1515  0.9038 -0.3782
   69SLPC  H10R 5890   2.379   4.497   9.788 -1.7778  1.9531 -1.7789
   69SLPC  C211 5891   2.504   4.673   9.742 -1.1470 -0.2602 -0.1702
   69SLPC  H11R 5892   2.542   4.768   9.784  2.6074 -0.1716 -3.1925
   69SLPC  H11S 5893   2.450   4.713   9.653 -0.5966  0.6882 -0.0905
   69SLPC  C212 5894   2.628   4.595   9.686 -0.0159  0.7851 -0.0582
   69SLPC  H12R 5895   2.726   4.621   9.728  0.0243 -0.1760  0.4812
   69SLPC  C213 5896   2.621   4.502   9.590  0.5701 -0.5107 -0.4554
   69SLPC  H13R 5897   2.709   4.441   9.565  0.7367 -0.5304  0.1704
   69SLPC  C214 5898   2.497   4.458   9.501 -0.2579 -0.4604 -0.2908
   69SLPC  H14R 5899   2.405   4.514   9.532  0.0045  0.6763 -1.4859
   69SLPC  H14S 5900   2.471   4.354   9.530  1.0395 -0.7509 -0.0965
   69SLPC  C215 5901   2.513   4.483   9.348  0.8411 -0.5274 -0.8321
   69SLPC  H15R 5902   2.587   4.566   9.346  0.7984 -0.4677 -3.5235
   69SLPC  H15S 5903   2.414   4.507   9.304 -0.0571 -1.3740  0.6787
   69SLPC  C216 5904   2.573   4.363   9.275 -0.2080 -0.2507  0.3350
   69SLPC  H16R 5905   2.524   4.267   9.304  1.5011 -0.3372  3.4355
   69SLPC  H16S 5906   2.679   4.352   9.305  0.1383  1.0328 -0.3720
   69SLPC  C217 5907   2.582   4.364   9.113  0.7078  0.2598 -0.4924
   69SLPC  H17R 5908   2.647   4.454   9.102  1.2026 -0.2694 -2.0759
   69SLPC  H17S 5909   2.482   4.384   9.070  0.7381 -0.8232 -1.0900
   69SLPC  C218 5910   2.634   4.241   9.040  0.6591 -0.7540 -0.4304
   69SLPC  H18R 5911   2.645   4.270   8.933 -0.7164  2.0802  0.0923
   69SLPC  H18S 5912   2.564   4.156   9.047 -0.9904  0.6119  0.2645
   69SLPC  H18T 5913   2.726   4.199   9.086 -0.1811 -0.3107  1.7373
   69SLPC   C33 5914   1.963   4.308  10.130 -0.0597  0.4718  0.3074
   69SLPC   H3X 5915   1.961   4.340  10.023 -2.0690 -1.3440 -0.2727
   69SLPC   H3Y 5916   1.860   4.274  10.153 -0.8274  2.0912 -0.5641
   69SLPC   C34 5917   2.054   4.184  10.127  1.1265 -0.2299  0.0144
   69SLPC   H4X 5918   1.988   4.120  10.065 -0.4671  1.4361 -0.0985
   69SLPC   H4Y 5919   2.056   4.144  10.231  0.8812  1.7846  0.8464
   69SLPC   C35 5920   2.193   4.201  10.074 -0.1002  0.8206 -0.9899
   69SLPC   H5X 5921   2.231   4.097  10.066  0.4927  0.5240  3.1478
   69SLPC   H5Y 5922   2.257   4.242  10.156  1.4294 -0.3541 -1.5509
   69SLPC   C36 5923   2.218   4.279   9.939 -0.6599 -0.1812  0.0434
   69SLPC   H6X 5924   2.329   4.281   9.933 -0.4686 -2.5128  1.7175
   69SLPC   H6Y 5925   2.180   4.383   9.954  2.1459  0.8873  0.5852
   69SLPC   C37 5926   2.145   4.213   9.827  0.0929 -0.1576 -0.1010
   69SLPC   H7X 5927   2.041   4.197   9.861  0.8658 -2.2374  1.5242
   69SLPC   H7Y 5928   2.187   4.110   9.823  2.5335  0.7031  1.0919
   69SLPC   C38 5929   2.174   4.275   9.692  0.6622 -0.3275 -0.1627
   69SLPC   H8X 5930   2.281   4.303   9.680  0.4989  0.8064  0.7364
   69SLPC   H8Y 5931   2.114   4.369   9.685 -1.7213 -1.6879  0.9251
   69SLPC   C39 5932   2.144   4.172   9.582  0.2681  0.4744 -0.0780
   69SLPC   H9X 5933   2.038   4.151   9.605 -0.1212  1.6340 -0.7615
   69SLPC   H9Y 5934   2.213   4.086   9.595  2.5845  2.4110  1.3661
   69SLPC  C310 5935   2.159   4.230   9.445 -0.4228 -0.8712 -0.4094
   69SLPC  H10X 5936   2.235   4.311   9.450 -2.4454  1.2377 -1.9465
   69SLPC  H10Y 5937   2.065   4.278   9.411 -1.9023 -3.0574  0.4377
   69SLPC  C311 5938   2.202   4.122   9.337  0.1402 -0.0182 -0.6036
   69SLPC  H11X 5939   2.138   4.032   9.349  0.4887 -0.3990 -1.5425
   69SLPC  H11Y 5940   2.307   4.095   9.360 -0.4968 -0.9002  1.4700
   69SLPC  C312 5941   2.179   4.171   9.194 -0.1653  1.2833  0.2080
   69SLPC  H12X 5942   2.235   4.267   9.186 -0.7382  1.8220  2.1829
   69SLPC  H12Y 5943   2.070   4.185   9.175 -0.2610 -0.9101 -1.1404
   69SLPC  C313 5944   2.244   4.069   9.091  0.0188 -0.0944 -0.4956
   69SLPC  H13X 5945   2.231   3.965   9.128  2.8969 -0.3138  0.1528
   69SLPC  H13Y 5946   2.352   4.092   9.076  0.0627 -0.8353 -1.4335
   69SLPC  C314 5947   2.171   4.078   8.953  0.3143 -0.2075 -0.0621
   69SLPC  H14X 5948   2.205   4.172   8.904 -3.3089  1.1226 -0.3501
   69SLPC  H14Y 5949   2.064   4.086   8.984  1.2220  0.6684  3.2833
   69SLPC  C315 5950   2.197   3.953   8.859  0.0473 -0.2956 -0.1654
   69SLPC  H15X 5951   2.148   3.864   8.905  1.1096 -0.2092  1.1845
   69SLPC  H15Y 5952   2.307   3.942   8.856 -0.1247 -2.4671 -2.5947
   69SLPC  C316 5953   2.153   3.981   8.717  0.2605  0.4335  0.9277
   69SLPC  H16X 5954   2.208   4.070   8.679  0.9511  0.1718  1.2844
   69SLPC  H16Y 5955   2.046   4.009   8.708  0.0340 -0.7935 -0.7700
   69SLPC  C317 5956   2.181   3.865   8.615 -0.5857 -0.1932 -0.9890
   69SLPC  H17X 5957   2.142   3.905   8.519 -0.6686  2.1169 -0.0488
   69SLPC  H17Y 5958   2.128   3.773   8.646 -3.3930  1.8540  0.7392
   69SLPC  C318 5959   2.327   3.827   8.592  0.1132  0.3638  0.0704
   69SLPC  H18X 5960   2.332   3.738   8.526 -1.6249 -2.7071  3.6648
   69SLPC  H18Y 5961   2.371   3.803   8.691  0.5617  2.1694  0.3391
   69SLPC  H18Z 5962   2.376   3.918   8.551  1.0595 -1.1790 -2.4140
   70SLPC     N 5963   4.192   1.523  10.738  0.2827  0.3987  0.4298
   70SLPC   C13 5964   4.046   1.550  10.758 -0.7581  0.0306  0.3862
   70SLPC  H13A 5965   4.008   1.603  10.672  1.8510  0.7261 -0.4349
   70SLPC  H13B 5966   3.993   1.456  10.758 -1.8290  0.6016 -1.0016
   70SLPC  H13C 5967   4.026   1.606  10.849 -3.4348  0.7463 -0.5659
   70SLPC   C14 5968   4.243   1.444  10.854 -0.3740  0.1846 -0.0833
   70SLPC  H14A 5969   4.211   1.490  10.947 -0.3030 -0.5506  0.3074
   70SLPC  H14B 5970   4.205   1.344  10.865 -1.3989  0.4062 -1.3664
   70SLPC  H14C 5971   4.350   1.434  10.862 -0.5501 -0.8642  1.1457
   70SLPC   C15 5972   4.268   1.654  10.736  1.6399  0.0636  0.5360
   70SLPC  H15A 5973   4.259   1.698  10.834 -0.6457 -1.2811  0.9990
   70SLPC  H15B 5974   4.374   1.638  10.723  1.3928 -0.8518 -0.4634
   70SLPC  H15C 5975   4.238   1.728  10.663  1.6982 -0.3546  0.0847
   70SLPC   C12 5976   4.205   1.448  10.607  0.6216 -0.1075  0.1248
   70SLPC  H12A 5977   4.310   1.435  10.589  0.8094 -1.3317  1.9472
   70SLPC  H12B 5978   4.176   1.517  10.528 -0.1922  0.1042  0.5918
   70SLPC   C11 5979   4.115   1.322  10.590 -0.2262  0.0188 -0.3865
   70SLPC  H11A 5980   4.123   1.282  10.487 -1.7769 -1.1394 -0.0998
   70SLPC  H11B 5981   4.010   1.357  10.600 -0.7293 -1.0211 -1.6747
   70SLPC     P 5982   4.039   1.101  10.721 -0.1157  0.1404  0.3023
   70SLPC   O13 5983   4.108   0.976  10.753  0.1312 -0.3071  0.8933
   70SLPC   O14 5984   3.971   1.171  10.832 -0.0045 -0.1445 -0.2331
   70SLPC   O12 5985   4.144   1.210  10.678 -0.8471  0.0217 -0.4484
   70SLPC   O11 5986   3.939   1.090  10.600 -0.3909 -0.1626  0.2007
   70SLPC    C1 5987   3.984   1.035  10.469  0.1260  0.2029 -0.5141
   70SLPC    HA 5988   4.094   1.018  10.469 -0.3030 -3.3183 -0.0943
   70SLPC    HB 5989   3.943   0.933  10.451  0.6952  0.1801 -1.7749
   70SLPC    C2 5990   3.932   1.124  10.353 -0.7498 -0.0774 -1.3938
   70SLPC    HS 5991   3.962   1.229  10.376 -2.7286 -0.1505  2.5404
   70SLPC   O21 5992   3.792   1.107  10.344 -0.5359 -0.0116 -0.3304
   70SLPC   C21 5993   3.725   1.207  10.291  0.4293  0.4656  0.9420
   70SLPC   O22 5994   3.770   1.295  10.219  0.2063 -0.1911 -0.0656
   70SLPC   C22 5995   3.579   1.174  10.326 -0.4343  0.3897  0.1800
   70SLPC   H2R 5996   3.590   1.150  10.434  0.1618  0.4924  0.1474
   70SLPC   H2S 5997   3.525   1.269  10.310  0.9700  0.8365 -2.6276
   70SLPC    C3 5998   4.005   1.088  10.222 -0.6581  0.5125 -0.4053
   70SLPC    HX 5999   3.963   1.162  10.151  0.9606  1.3308 -0.5495
   70SLPC    HY 6000   3.969   0.985  10.200  0.4791 -0.2115  0.9263
   70SLPC   O31 6001   4.155   1.081  10.227 -0.2247 -0.1445  0.0864
   70SLPC   C31 6002   4.221   1.184  10.185  0.2211 -0.0163  0.6128
   70SLPC   O32 6003   4.171   1.283  10.136 -0.6600  0.5183  0.0301
   70SLPC   C32 6004   4.371   1.187  10.231 -0.1613  0.7548  0.9849
   70SLPC   H2X 6005   4.382   1.146  10.334  0.0167 -0.1980  0.5927
   70SLPC   H2Y 6006   4.400   1.293  10.219  1.4792  0.1616 -0.8544
   70SLPC   C23 6007   3.525   1.055  10.245 -0.1502 -0.3311 -0.5053
   70SLPC   H3R 6008   3.435   1.021  10.301 -1.7748  2.4210 -1.2516
   70SLPC   H3S 6009   3.590   0.967  10.262 -0.1601 -0.0496  1.1334
   70SLPC   C24 6010   3.489   1.084  10.102  0.0306 -0.2598  0.2697
   70SLPC   H4R 6011   3.583   1.126  10.060 -0.7198  0.6430 -0.5667
   70SLPC   H4S 6012   3.408   1.161  10.101  1.0786  0.9053  0.9483
   70SLPC   C25 6013   3.438   0.965  10.013 -0.1051 -0.2717  0.1591
   70SLPC   H5R 6014   3.336   0.935  10.045 -0.4530 -0.7368 -1.2984
   70SLPC   H5S 6015   3.489   0.869  10.037  0.3262 -0.7785 -2.4978
   70SLPC   C26 6016   3.434   0.992   9.855  0.1502  0.2865 -0.0948
   70SLPC   H6R 6017   3.538   1.014   9.821  0.9225 -1.2905  1.0833
   70SLPC   H6S 6018   3.367   1.079   9.845 -1.2388 -0.2527  3.3165
   70SLPC   C27 6019   3.382   0.873   9.778  0.0377  0.1674  0.2899
   70SLPC   H7R 6020   3.297   0.834   9.838  0.0363 -1.0484 -0.4471
   70SLPC   H7S 6021   3.459   0.793   9.773  0.0902 -0.2207  4.2546
   70SLPC   C28 6022   3.321   0.906   9.640 -0.2632  0.1714  0.2453
   70SLPC   H8R 6023   3.405   0.940   9.575 -0.8768  0.1676 -0.5742
   70SLPC   H8S 6024   3.258   0.993   9.669  0.5569  0.8557  0.0233
   70SLPC   C29 6025   3.249   0.788   9.579  0.0735 -0.4923 -0.6120
   70SLPC   H9R 6026   3.204   0.720   9.653 -2.0902  0.6468 -0.7948
   70SLPC  C210 6027   3.233   0.757   9.447 -0.5788  0.5742  0.3492
   70SLPC  H10R 6028   3.197   0.655   9.424  1.9805 -0.2489 -0.2922
   70SLPC  C211 6029   3.286   0.839   9.330  0.3762  0.0426 -0.2530
   70SLPC  H11R 6030   3.395   0.818   9.322  0.7957  1.2924  1.6065
   70SLPC  H11S 6031   3.281   0.946   9.360 -1.3845  0.0818 -0.5865
   70SLPC  C212 6032   3.209   0.821   9.203 -0.0194 -0.1134  0.4206
   70SLPC  H12R 6033   3.120   0.886   9.192  0.1338  0.0250  0.0042
   70SLPC  C213 6034   3.244   0.732   9.106 -0.3472 -0.2304  0.3847
   70SLPC  H13R 6035   3.197   0.723   9.006  0.5146 -0.6793  0.0052
   70SLPC  C214 6036   3.369   0.653   9.113 -0.4527 -1.2035 -0.1688
   70SLPC  H14R 6037   3.349   0.550   9.149 -0.2523 -1.2329 -0.1371
   70SLPC  H14S 6038   3.445   0.693   9.184  0.7709 -3.7355  0.0533
   70SLPC  C215 6039   3.460   0.651   8.986  0.8842 -0.4556 -0.3339
   70SLPC  H15R 6040   3.561   0.615   9.016 -0.0155 -2.3310  0.5902
   70SLPC  H15S 6041   3.465   0.757   8.953 -2.0770 -0.5933 -1.5313
   70SLPC  C216 6042   3.414   0.560   8.877  1.0319 -0.2935  0.0400
   70SLPC  H16R 6043   3.314   0.594   8.843  1.2818  1.8755  1.3408
   70SLPC  H16S 6044   3.406   0.451   8.899  1.0085 -0.4832 -0.8450
   70SLPC  C217 6045   3.506   0.553   8.753 -0.6049  0.0283  0.3984
   70SLPC  H17R 6046   3.463   0.489   8.673 -1.9034  1.9229 -0.5019
   70SLPC  H17S 6047   3.603   0.510   8.785  0.1828  2.5403  1.6910
   70SLPC  C218 6048   3.524   0.688   8.686  0.6807 -0.9879 -0.4662
   70SLPC  H18R 6049   3.585   0.751   8.753 -1.3510  2.1653 -1.3361
   70SLPC  H18S 6050   3.427   0.739   8.668  1.6211  0.8414 -0.5717
   70SLPC  H18T 6051   3.568   0.671   8.585  0.2714  0.9193 -0.9994
   70SLPC   C33 6052   4.449   1.091  10.143 -0.2858 -0.4835  0.9020
   70SLPC   H3X 6053   4.406   0.990  10.164 -2.1985 -0.8330 -3.5332
   70SLPC   H3Y 6054   4.556   1.094  10.172 -0.7271  0.4896  2.5431
   70SLPC   C34 6055   4.439   1.128   9.986  0.1061 -0.0424 -0.5642
   70SLPC   H4X 6056   4.529   1.190   9.964 -0.6568  2.2310  2.1112
   70SLPC   H4Y 6057   4.343   1.178   9.962  0.7581  0.5847 -1.9707
   70SLPC   C35 6058   4.448   1.003   9.894  0.8148  0.1928 -1.0052
   70SLPC   H5X 6059   4.371   0.925   9.915  1.7743 -0.4852  0.1197
   70SLPC   H5Y 6060   4.545   0.950   9.898  0.6090 -0.1459 -0.1466
   70SLPC   C36 6061   4.422   1.048   9.745 -0.6225  0.5953  0.5353
   70SLPC   H6X 6062   4.505   1.116   9.715 -0.4241 -0.1284 -0.5937
   70SLPC   H6Y 6063   4.326   1.102   9.727 -0.9311  0.5099  1.7708
   70SLPC   C37 6064   4.435   0.929   9.653  0.1479  0.0628  0.5625
   70SLPC   H7X 6065   4.354   0.857   9.676  0.9695 -0.9054  0.4909
   70SLPC   H7Y 6066   4.525   0.863   9.656 -0.8070 -1.2494  1.1955
   70SLPC   C38 6067   4.411   0.989   9.506 -0.3553 -0.2089  0.0777
   70SLPC   H8X 6068   4.500   1.052   9.486 -0.7374  0.0342 -0.9058
   70SLPC   H8Y 6069   4.320   1.053   9.505 -0.9678 -0.9961 -2.7414
   70SLPC   C39 6070   4.403   0.891   9.389 -0.3556  0.4840  0.0446
   70SLPC   H9X 6071   4.308   0.834   9.395  0.5611 -1.2995 -1.3517
   70SLPC   H9Y 6072   4.499   0.835   9.390  0.6068  1.9654 -1.8417
   70SLPC  C310 6073   4.427   0.964   9.254 -0.6186  0.5024 -0.4804
   70SLPC  H10X 6074   4.513   1.029   9.283  0.6016 -1.7495  1.3275
   70SLPC  H10Y 6075   4.343   1.034   9.236 -0.6270  0.9463  1.1600
   70SLPC  C311 6076   4.455   0.875   9.135  0.0240  0.0213 -0.3085
   70SLPC  H11X 6077   4.354   0.844   9.099 -0.4323  1.4292 -0.3135
   70SLPC  H11Y 6078   4.513   0.783   9.157  1.0798  0.5751 -0.7215
   70SLPC  C312 6079   4.522   0.967   9.035  0.3854  0.0332  0.1668
   70SLPC  H12X 6080   4.631   0.988   9.045  0.6970 -0.5387 -1.7107
   70SLPC  H12Y 6081   4.465   1.062   9.043 -1.4369 -1.0742  0.9492
   70SLPC  C313 6082   4.500   0.927   8.895  0.1823  0.2122 -0.4270
   70SLPC  H13X 6083   4.391   0.925   8.879  0.3748  0.6969 -1.8800
   70SLPC  H13Y 6084   4.546   0.827   8.877  1.8644  1.1399 -1.5810
   70SLPC  C314 6085   4.562   1.026   8.790 -0.1058  0.0851 -0.2038
   70SLPC  H14X 6086   4.672   1.014   8.799 -0.2643 -0.1707  2.0229
   70SLPC  H14Y 6087   4.537   1.127   8.830  1.1153  1.7488 -3.2400
   70SLPC  C315 6088   4.516   1.002   8.638 -0.3878 -0.5562  0.3409
   70SLPC  H15X 6089   4.408   1.027   8.627  0.1520  2.0346  0.4202
   70SLPC  H15Y 6090   4.530   0.896   8.608  0.4151 -0.7551  1.3846
   70SLPC  C316 6091   4.605   1.091   8.540  0.3598 -0.1906  0.0135
   70SLPC  H16X 6092   4.596   1.197   8.574 -1.9287 -0.3191 -0.0245
   70SLPC  H16Y 6093   4.565   1.082   8.437 -0.0476  1.5226 -0.0167
   70SLPC  C317 6094   4.751   1.041   8.535 -0.4851  0.4486  0.4727
   70SLPC  H17X 6095   4.744   0.931   8.518  3.0982  0.1469  0.2032
   70SLPC  H17Y 6096   4.793   1.058   8.636 -0.7263 -0.8698  0.8113
   70SLPC  C318 6097   4.845   1.101   8.433 -0.5024 -0.2544 -0.7513
   70SLPC  H18X 6098   4.830   1.081   8.325 -1.5344  0.8051 -0.8244
   70SLPC  H18Y 6099   4.944   1.052   8.437 -0.8384 -0.8797  0.1871
   70SLPC  H18Z 6100   4.862   1.210   8.445 -0.3384 -0.3796  0.2480
   71SLPC     N 6101   2.434   0.395  10.858 -0.1157 -0.1637  0.5158
   71SLPC   C13 6102   2.509   0.525  10.886 -0.5367  0.6919  0.1165
   71SLPC  H13A 6103   2.598   0.537  10.826 -0.0695 -0.7279  0.4892
   71SLPC  H13B 6104   2.452   0.616  10.877 -1.5125 -0.0447 -1.6068
   71SLPC  H13C 6105   2.554   0.521  10.984 -1.7641  0.3931  0.6879
   71SLPC   C14 6106   2.301   0.408  10.935 -0.3281  0.1306 -0.1687
   71SLPC  H14A 6107   2.245   0.316  10.929  0.4957 -0.5611  1.8274
   71SLPC  H14B 6108   2.324   0.414  11.040 -2.8965  1.6569  0.3759
   71SLPC  H14C 6109   2.238   0.489  10.902  1.9231  2.2154  0.3571
   71SLPC   C15 6110   2.507   0.274  10.911  0.2104  0.3031  0.3927
   71SLPC  H15A 6111   2.445   0.186  10.904 -0.0971  0.6720 -2.2645
   71SLPC  H15B 6112   2.590   0.256  10.844 -1.3370 -0.7090 -1.3372
   71SLPC  H15C 6113   2.545   0.292  11.011 -2.3320  0.4807  1.4005
   71SLPC   C12 6114   2.405   0.376  10.703  0.1371 -0.2579  0.0512
   71SLPC  H12A 6115   2.377   0.272  10.694 -1.2747  0.2273 -1.5912
   71SLPC  H12B 6116   2.502   0.382  10.656  0.3610  2.3735  0.7092
   71SLPC   C11 6117   2.294   0.462  10.630 -0.1313  0.3269 -1.3138
   71SLPC  H11A 6118   2.303   0.450  10.520  1.6588 -2.9326 -0.9153
   71SLPC  H11B 6119   2.312   0.571  10.644 -1.1309  0.5203 -1.4469
   71SLPC     P 6120   2.100   0.275  10.658  0.7817 -0.6302  0.3567
   71SLPC   O13 6121   2.208   0.175  10.662  0.0809  0.0731  0.2153
   71SLPC   O14 6122   1.994   0.259  10.757 -0.6250 -0.0499 -0.2321
   71SLPC   O12 6123   2.158   0.419  10.670  0.0440  0.2666 -0.5149
   71SLPC   O11 6124   2.025   0.276  10.516  0.0856 -0.2228  0.5704
   71SLPC    C1 6125   1.903   0.339  10.495 -0.3497 -0.3888 -0.0747
   71SLPC    HA 6126   1.827   0.258  10.506 -1.3129  0.7203  2.0491
   71SLPC    HB 6127   1.880   0.408  10.578  0.6451  0.8729 -0.8149
   71SLPC    C2 6128   1.897   0.425  10.362  0.7482  0.8342 -0.0052
   71SLPC    HS 6129   1.797   0.473  10.366 -0.2379 -1.0943 -0.0723
   71SLPC   O21 6130   1.902   0.335  10.250 -0.0543 -0.3573 -0.7376
   71SLPC   C21 6131   1.797   0.254  10.228 -0.0131 -0.4954  0.7042
   71SLPC   O22 6132   1.687   0.281  10.272 -0.2118 -0.5661  0.2485
   71SLPC   C22 6133   1.843   0.111  10.181  0.3201 -0.1811  0.0166
   71SLPC   H2R 6134   1.936   0.080  10.233 -0.3784 -4.0230 -0.7526
   71SLPC   H2S 6135   1.775   0.038  10.230  0.6477  0.3441  1.3004
   71SLPC    C3 6136   1.996   0.538  10.361  0.1588 -0.0397 -0.3307
   71SLPC    HX 6137   2.098   0.505  10.391  0.0733 -0.6141 -0.6488
   71SLPC    HY 6138   1.971   0.608  10.443 -0.6881 -0.3035 -0.3582
   71SLPC   O31 6139   2.001   0.612  10.236 -0.1466 -0.2812 -0.0772
   71SLPC   C31 6140   2.063   0.549  10.137  0.1783  0.7130 -0.2075
   71SLPC   O32 6141   2.140   0.458  10.149  0.5508  0.2947  0.6033
   71SLPC   C32 6142   2.032   0.620  10.004  0.2838  0.1558 -0.4927
   71SLPC   H2X 6143   2.105   0.583   9.929  0.0789 -0.6544 -0.3003
   71SLPC   H2Y 6144   2.027   0.730  10.019 -1.6195  0.5362 -3.1077
   71SLPC   C23 6145   1.849   0.085  10.025  0.4585  0.3025  0.4295
   71SLPC   H3R 6146   1.756   0.123   9.976 -1.6351 -3.0441  1.4399
   71SLPC   H3S 6147   1.843  -0.024  10.005 -1.9087  0.0109  2.2561
   71SLPC   C24 6148   1.971   0.149   9.972  0.7711  0.0271  0.7088
   71SLPC   H4R 6149   2.067   0.101  10.003  0.7159 -0.2962  0.3730
   71SLPC   H4S 6150   1.990   0.256   9.998  0.0944  0.5921 -1.0371
   71SLPC   C25 6151   1.990   0.127   9.819 -0.2234 -0.0630  0.9796
   71SLPC   H5R 6152   2.066   0.199   9.783  1.5333 -1.2373  2.2275
   71SLPC   H5S 6153   1.899   0.163   9.766 -0.1777 -0.6903  0.4655
   71SLPC   C26 6154   2.027  -0.011   9.766 -0.1554  0.1491 -0.0159
   71SLPC   H6R 6155   1.945  -0.084   9.782  1.6086 -1.9416 -0.0586
   71SLPC   H6S 6156   2.114  -0.058   9.818 -0.1822  0.4540  0.3106
   71SLPC   C27 6157   2.062   0.002   9.618  0.5105  0.8836 -0.1701
   71SLPC   H7R 6158   2.091  -0.096   9.573  0.0803  0.7051 -0.0628
   71SLPC   H7S 6159   2.161   0.052   9.618  1.7058 -1.3065 -1.6546
   71SLPC   C28 6160   1.947   0.042   9.521  0.3815 -0.7414  0.6832
   71SLPC   H8R 6161   1.859   0.007   9.578 -0.5055 -0.0695 -0.2364
   71SLPC   H8S 6162   1.967  -0.028   9.437 -0.7933 -1.5789  1.0685
   71SLPC   C29 6163   1.935   0.187   9.489 -0.1260 -0.6517  0.9406
   71SLPC   H9R 6164   1.948   0.254   9.576 -1.4109 -1.1701  1.5599
   71SLPC  C210 6165   1.886   0.227   9.370  0.2807  0.5149  0.3645
   71SLPC  H10R 6166   1.885   0.334   9.346 -1.5764  0.5545  0.4167
   71SLPC  C211 6167   1.836   0.139   9.260  0.0884  0.2464 -0.6853
   71SLPC  H11R 6168   1.871   0.033   9.255 -0.8902 -0.0807 -0.8750
   71SLPC  H11S 6169   1.865   0.188   9.165 -0.4242 -0.3910 -1.1840
   71SLPC  C212 6170   1.686   0.153   9.260 -0.4818  0.2233 -0.0425
   71SLPC  H12R 6171   1.639   0.206   9.344 -2.1516 -1.0613 -0.1082
   71SLPC  C213 6172   1.620   0.106   9.158  0.7806 -0.1180  0.0106
   71SLPC  H13R 6173   1.513   0.129   9.163  0.4186 -1.3380 -1.4017
   71SLPC  C214 6174   1.672   0.038   9.030 -0.2362 -0.0400 -0.3349
   71SLPC  H14R 6175   1.610  -0.050   9.004 -2.7401  1.3862  0.5244
   71SLPC  H14S 6176   1.771  -0.007   9.053 -0.5862 -0.4298  0.4530
   71SLPC  C215 6177   1.667   0.128   8.912  0.8828 -0.1468 -0.5698
   71SLPC  H15R 6178   1.727   0.085   8.830  1.4077  0.2217 -0.3832
   71SLPC  H15S 6179   1.726   0.218   8.940 -0.1728  0.2961  0.3442
   71SLPC  C216 6180   1.519   0.169   8.871 -0.6518  0.8243  0.4084
   71SLPC  H16R 6181   1.477   0.240   8.945  0.6498  1.9087  0.1586
   71SLPC  H16S 6182   1.450   0.082   8.874 -1.4241  1.4536  2.9908
   71SLPC  C217 6183   1.517   0.224   8.732  0.7541 -0.2484 -0.7171
   71SLPC  H17R 6184   1.593   0.162   8.681 -0.6953 -1.7271 -1.1629
   71SLPC  H17S 6185   1.555   0.328   8.740 -2.8548  1.2302 -0.9779
   71SLPC  C218 6186   1.393   0.211   8.653  0.2756 -0.6755  0.6069
   71SLPC  H18R 6187   1.398   0.258   8.552 -1.2792 -3.7665 -1.0675
   71SLPC  H18S 6188   1.322   0.267   8.718  1.0816 -1.2360  2.0076
   71SLPC  H18T 6189   1.353   0.108   8.651 -0.9547 -0.2978  2.6244
   71SLPC   C33 6190   1.895   0.572   9.953  0.2450 -0.1293 -0.2195
   71SLPC   H3X 6191   1.828   0.615  10.030  1.9285 -0.5661  1.5543
   71SLPC   H3Y 6192   1.884   0.462   9.950 -2.4441 -0.1152  3.0490
   71SLPC   C34 6193   1.842   0.623   9.812 -1.4692 -0.2113  0.5029
   71SLPC   H4X 6194   1.860   0.731   9.796  1.0015 -0.4199  1.3920
   71SLPC   H4Y 6195   1.734   0.597   9.813 -1.6701  0.5002 -0.6946
   71SLPC   C35 6196   1.912   0.543   9.703 -0.6293  0.3496  0.5436
   71SLPC   H5X 6197   1.919   0.438   9.736  1.0153  0.4969  0.7674
   71SLPC   H5Y 6198   2.020   0.570   9.701 -0.2103 -1.2264  0.4805
   71SLPC   C36 6199   1.858   0.558   9.563  0.4246  0.1544  0.7561
   71SLPC   H6X 6200   1.754   0.520   9.555 -0.3242  2.3001 -0.4705
   71SLPC   H6Y 6201   1.922   0.493   9.500 -1.2255 -0.5822 -0.2044
   71SLPC   C37 6202   1.856   0.692   9.499 -0.0586 -0.7895 -0.0292
   71SLPC   H7X 6203   1.952   0.746   9.507 -2.2114  4.4715 -3.8071
   71SLPC   H7Y 6204   1.779   0.752   9.553  0.1670 -0.8966  0.4159
   71SLPC   C38 6205   1.822   0.679   9.344 -0.0079  0.0999 -0.7482
   71SLPC   H8X 6206   1.878   0.593   9.303 -0.2834 -1.0355  1.1080
   71SLPC   H8Y 6207   1.858   0.769   9.291 -0.3969 -0.2144 -1.5672
   71SLPC   C39 6208   1.672   0.665   9.306 -0.3294 -0.1275  0.9910
   71SLPC   H9X 6209   1.629   0.767   9.298 -0.6434 -0.4075 -1.8477
   71SLPC   H9Y 6210   1.612   0.621   9.389 -0.9715  2.5810  2.0960
   71SLPC  C310 6211   1.643   0.582   9.185 -0.2672 -1.1831  0.7226
   71SLPC  H10X 6212   1.538   0.545   9.190 -0.8831  0.4015  0.0840
   71SLPC  H10Y 6213   1.708   0.492   9.180  0.2072 -0.8163  0.0176
   71SLPC  C311 6214   1.657   0.672   9.062 -0.2609 -0.3728 -0.4808
   71SLPC  H11X 6215   1.755   0.723   9.076 -1.0976  0.9178  0.8486
   71SLPC  H11Y 6216   1.582   0.753   9.069  0.3321  0.1206  0.3192
   71SLPC  C312 6217   1.633   0.598   8.929 -0.6368 -0.0158  0.6537
   71SLPC  H12X 6218   1.537   0.545   8.943  0.7356 -2.7246  0.3193
   71SLPC  H12Y 6219   1.716   0.528   8.908 -1.3757 -0.5124 -0.6392
   71SLPC  C313 6220   1.623   0.698   8.812 -0.4028 -0.3837  0.3241
   71SLPC  H13X 6221   1.536   0.766   8.830  0.0540  0.5805 -0.9663
   71SLPC  H13Y 6222   1.589   0.642   8.722  1.2044 -0.2825 -0.3631
   71SLPC  C314 6223   1.751   0.781   8.773 -0.1644  0.0280 -0.3673
   71SLPC  H14X 6224   1.791   0.804   8.874 -0.8081  1.5088 -0.4229
   71SLPC  H14Y 6225   1.703   0.874   8.734 -2.4396 -0.8421  0.1788
   71SLPC  C315 6226   1.847   0.718   8.674  0.4023 -1.0410  0.1228
   71SLPC  H15X 6227   1.796   0.713   8.575  0.7500  0.8539 -0.1930
   71SLPC  H15Y 6228   1.859   0.614   8.710 -0.1087 -1.3925 -0.6870
   71SLPC  C316 6229   1.974   0.804   8.666 -0.3805  0.2109 -0.2792
   71SLPC  H16X 6230   1.996   0.849   8.765  0.6772 -1.8533  0.4871
   71SLPC  H16Y 6231   1.954   0.889   8.597 -1.0245 -1.3129 -2.0648
   71SLPC  C317 6232   2.097   0.719   8.639 -1.0438  1.2415  0.3848
   71SLPC  H17X 6233   2.079   0.645   8.559  1.4000 -0.8764  1.6703
   71SLPC  H17Y 6234   2.115   0.656   8.729  1.0039  2.3812  0.8255
   71SLPC  C318 6235   2.227   0.784   8.598  0.2882  0.1141 -0.3868
   71SLPC  H18X 6236   2.209   0.876   8.538  0.7810 -0.0527 -0.7933
   71SLPC  H18Y 6237   2.288   0.713   8.539 -0.7621 -0.6076 -0.6389
   71SLPC  H18Z 6238   2.278   0.822   8.690 -0.1953  2.6525 -1.0769
   72SLPC     N 6239   2.842   5.675  11.182  0.4194  0.3332  0.2822
   72SLPC   C13 6240   2.812   5.609  11.057  0.0792 -0.2472 -0.1103
   72SLPC  H13A 6241   2.902   5.569  11.012  1.7546  1.2804  1.7064
   72SLPC  H13B 6242   2.755   5.519  11.077 -1.4111  0.6698 -0.0463
   72SLPC  H13C 6243   2.761   5.674  10.987 -0.5338  1.1918  1.6004
   72SLPC   C14 6244   2.881   5.573  11.288  0.2396 -0.1467 -0.3666
   72SLPC  H14A 6245   2.801   5.507  11.318  0.3816  0.3623  1.2062
   72SLPC  H14B 6246   2.969   5.517  11.261  1.1544  0.4013  1.3143
   72SLPC  H14C 6247   2.912   5.630  11.374 -0.0744 -0.5194 -0.0034
   72SLPC   C15 6248   2.717   5.735  11.237  0.8249 -0.5745 -0.1384
   72SLPC  H15A 6249   2.691   5.830  11.192 -1.5031 -0.6880  0.8001
   72SLPC  H15B 6250   2.640   5.658  11.235 -0.7057  0.8540  0.9112
   72SLPC  H15C 6251   2.727   5.759  11.342  0.5154  0.2299 -0.2907
   72SLPC   C12 6252   2.954   5.780  11.164  0.4854  0.5048 -0.1047
   72SLPC  H12A 6253   3.045   5.730  11.134  1.8109  2.5835  0.2254
   72SLPC  H12B 6254   2.979   5.825  11.259  2.4123  0.5870 -0.6004
   72SLPC   C11 6255   2.939   5.889  11.055  0.0044 -0.3944  0.9685
   72SLPC  H11A 6256   2.931   5.835  10.958  0.4441 -3.1776  2.4062
   72SLPC  H11B 6257   3.030   5.954  11.054  0.0263 -0.4204  1.2473
   72SLPC     P 6258   2.740   6.054  10.980  0.7506  0.0638  0.6754
   72SLPC   O13 6259   2.629   5.965  10.940 -0.4119 -0.5578 -0.5728
   72SLPC   O14 6260   2.702   6.186  11.032  0.1203 -0.1479  0.0545
   72SLPC   O12 6261   2.827   5.971  11.085 -0.2985  0.2437 -0.0927
   72SLPC   O11 6262   2.828   6.072  10.848 -0.1119  0.1606  0.1655
   72SLPC    C1 6263   2.939   6.167  10.851  0.2988  0.6022 -0.2810
   72SLPC    HA 6264   2.944   6.229  10.944  0.1298  2.4381 -1.4444
   72SLPC    HB 6265   3.031   6.104  10.848  0.1184  0.2756  0.6613
   72SLPC    C2 6266   2.932   6.249  10.724 -0.4734  0.2883 -0.5393
   72SLPC    HS 6267   2.844   6.315  10.737  1.2580  2.3086  1.9538
   72SLPC   O21 6268   2.935   6.151  10.612 -0.0527  0.1765  0.3646
   72SLPC   C21 6269   2.827   6.141  10.530  0.0091 -0.5156 -0.4484
   72SLPC   O22 6270   2.729   6.214  10.540  0.6251  0.3231  0.0400
   72SLPC   C22 6271   2.858   6.052  10.410  0.5467  0.7204 -0.4026
   72SLPC   H2R 6272   2.914   5.962  10.444  0.9191  1.0928 -0.0191
   72SLPC   H2S 6273   2.759   6.023  10.370 -0.0629  0.3591  1.2915
   72SLPC    C3 6274   3.053   6.345  10.696 -0.6038 -0.2039 -1.0969
   72SLPC    HX 6275   3.153   6.296  10.686 -1.1580 -2.0682  1.4342
   72SLPC    HY 6276   3.082   6.405  10.785  0.2922 -0.9936 -0.8337
   72SLPC   O31 6277   3.012   6.444  10.599 -0.0838  0.0627 -0.3393
   72SLPC   C31 6278   3.082   6.450  10.483 -0.2683  0.0406  0.0793
   72SLPC   O32 6279   3.185   6.393  10.452 -0.0498 -0.1252 -0.0914
   72SLPC   C32 6280   3.022   6.567  10.389  0.3724 -0.3206  0.3845
   72SLPC   H2X 6281   3.080   6.660  10.405 -1.0225  0.3383  1.9402
   72SLPC   H2Y 6282   2.928   6.605  10.434  1.0609  1.3138  0.5147
   72SLPC   C23 6283   2.950   6.120  10.311  0.0414  0.9669  0.5423
   72SLPC   H3R 6284   3.049   6.130  10.360  0.5502 -2.2402  0.3929
   72SLPC   H3S 6285   2.915   6.221  10.280  0.4952  1.4577  1.5947
   72SLPC   C24 6286   2.960   6.034  10.191  0.2890 -0.5789 -0.7058
   72SLPC   H4R 6287   2.864   6.011  10.139  0.1598 -0.8533 -0.3482
   72SLPC   H4S 6288   2.993   5.937  10.234 -1.5754 -0.5614  0.8825
   72SLPC   C25 6289   3.060   6.082  10.082 -0.2209 -0.5369 -0.4305
   72SLPC   H5R 6290   3.046   6.007  10.002 -0.6937 -1.2409  0.2901
   72SLPC   H5S 6291   3.162   6.082  10.125 -0.4972  1.5414  0.3420
   72SLPC   C26 6292   3.028   6.222  10.031 -0.8714  0.2886  0.2228
   72SLPC   H6R 6293   3.047   6.302  10.105 -2.6865  0.1142  0.9234
   72SLPC   H6S 6294   2.919   6.226  10.015 -0.6776 -0.6327 -1.5176
   72SLPC   C27 6295   3.108   6.259   9.907  0.0202 -0.2603  0.0145
   72SLPC   H7R 6296   3.204   6.204   9.900 -0.9479 -1.9405 -0.5481
   72SLPC   H7S 6297   3.140   6.365   9.916  3.7707 -1.1888 -0.5962
   72SLPC   C28 6298   3.041   6.263   9.776 -0.2289 -0.0601  0.3379
   72SLPC   H8R 6299   3.106   6.286   9.688 -0.7413 -2.6018 -0.7986
   72SLPC   H8S 6300   2.951   6.327   9.788 -0.6091 -0.6297  0.5317
   72SLPC   C29 6301   2.986   6.123   9.748 -0.3394  0.1655 -0.6924
   72SLPC   H9R 6302   2.938   6.063   9.827  0.8419 -1.3014 -1.0414
   72SLPC  C210 6303   3.009   6.059   9.636  0.4502  0.2145  0.9122
   72SLPC  H10R 6304   2.952   5.969   9.609 -0.9918  1.0119  1.1772
   72SLPC  C211 6305   3.064   6.115   9.506 -0.5240  0.0417  0.5034
   72SLPC  H11R 6306   3.057   6.225   9.504 -1.3136  0.0889  2.9818
   72SLPC  H11S 6307   2.993   6.076   9.429 -0.8075 -1.3869  1.4422
   72SLPC  C212 6308   3.204   6.064   9.479  0.3778 -0.2443  0.5390
   72SLPC  H12R 6309   3.271   6.078   9.565  3.3265 -1.2343 -1.4623
   72SLPC  C213 6310   3.256   6.016   9.366  0.0180  0.2348  0.2419
   72SLPC  H13R 6311   3.363   5.995   9.371 -0.1538 -0.5573  0.9501
   72SLPC  C214 6312   3.181   5.994   9.237  0.3639 -0.1590 -0.4199
   72SLPC  H14R 6313   3.229   6.034   9.145  0.5034  0.6891  0.0080
   72SLPC  H14S 6314   3.082   6.045   9.237 -0.6852 -2.0938 -1.2296
   72SLPC  C215 6315   3.137   5.850   9.225  0.1381 -0.0515 -0.0058
   72SLPC  H15R 6316   3.052   5.825   9.291  0.4693 -0.2229  0.3561
   72SLPC  H15S 6317   3.221   5.780   9.246  1.2624  0.9668 -0.9662
   72SLPC  C216 6318   3.082   5.824   9.086 -0.5028 -0.0290  0.8271
   72SLPC  H16R 6319   3.147   5.870   9.009 -1.2719 -1.6751 -0.8749
   72SLPC  H16S 6320   2.986   5.878   9.070 -0.4104 -0.3528 -0.9820
   72SLPC  C217 6321   3.062   5.670   9.048 -0.0331 -0.4183 -0.2960
   72SLPC  H17R 6322   2.972   5.678   8.983  0.4232  1.4187 -0.7675
   72SLPC  H17S 6323   3.040   5.612   9.141  0.1105  0.5833  0.3794
   72SLPC  C218 6324   3.170   5.616   8.957 -0.2763  0.0477 -0.1653
   72SLPC  H18R 6325   3.257   5.609   9.026 -1.3000  0.4998  1.1965
   72SLPC  H18S 6326   3.198   5.684   8.874 -0.4777  0.9963  0.5371
   72SLPC  H18T 6327   3.160   5.515   8.910  0.3927 -0.4120  0.6385
   72SLPC   C33 6328   2.999   6.535  10.234  0.0126  1.1882  0.1303
   72SLPC   H3X 6329   2.935   6.443  10.236  1.8199 -0.1185  0.1447
   72SLPC   H3Y 6330   3.095   6.506  10.187 -0.4997 -1.9587  0.7842
   72SLPC   C34 6331   2.941   6.646  10.156 -0.0812  0.0722  1.2039
   72SLPC   H4X 6332   2.986   6.742  10.191  0.3034 -0.2992  1.7506
   72SLPC   H4Y 6333   2.834   6.661  10.182 -1.2133 -1.4381 -2.0941
   72SLPC   C35 6334   2.950   6.633   9.997 -0.4310 -0.2994  0.2074
   72SLPC   H5X 6335   2.902   6.542   9.956  0.5958 -1.6720  1.9285
   72SLPC   H5Y 6336   3.058   6.627   9.971 -0.7084 -1.6293 -0.7352
   72SLPC   C36 6337   2.902   6.766   9.925  0.4947 -0.7839  0.2581
   72SLPC   H6X 6338   2.954   6.854   9.967  1.9084 -0.1818 -2.5158
   72SLPC   H6Y 6339   2.797   6.767   9.961  0.0763 -1.2820 -0.8892
   72SLPC   C37 6340   2.910   6.758   9.763 -0.3893  0.1630 -0.2872
   72SLPC   H7X 6341   3.016   6.777   9.737 -0.6967  0.0845 -1.6686
   72SLPC   H7Y 6342   2.859   6.845   9.717  1.5994  0.9899 -1.0367
   72SLPC   C38 6343   2.860   6.629   9.700 -0.0594  0.4928  0.0178
   72SLPC   H8X 6344   2.756   6.604   9.729  0.2527 -0.2125  0.5620
   72SLPC   H8Y 6345   2.914   6.548   9.753 -2.5885 -0.5818  1.1056
   72SLPC   C39 6346   2.876   6.622   9.556  0.1278 -0.1005 -0.1297
   72SLPC   H9X 6347   2.984   6.634   9.532 -0.0155 -0.3336 -0.9298
   72SLPC   H9Y 6348   2.820   6.706   9.510 -1.1210  1.5068  3.9007
   72SLPC  C310 6349   2.827   6.483   9.500 -0.8645 -0.3698 -0.3375
   72SLPC  H10X 6350   2.717   6.470   9.499 -1.0595  0.4389  2.7537
   72SLPC  H10Y 6351   2.858   6.412   9.580 -0.6439  1.9519  1.7681
   72SLPC  C311 6352   2.895   6.437   9.372  0.1819 -0.6177 -0.3430
   72SLPC  H11X 6353   2.980   6.379   9.414  0.0405 -1.2690 -0.9425
   72SLPC  H11Y 6354   2.936   6.517   9.307  1.6998 -0.3798  0.8598
   72SLPC  C312 6355   2.808   6.334   9.304  0.5769 -0.9073  0.5716
   72SLPC  H12X 6356   2.752   6.276   9.380 -1.9275  1.4813  0.7329
   72SLPC  H12Y 6357   2.877   6.261   9.257  0.0706 -2.2832  1.9089
   72SLPC  C313 6358   2.710   6.406   9.204  0.5839 -0.1887  0.0380
   72SLPC  H13X 6359   2.775   6.484   9.159 -0.1952  0.9107  0.7481
   72SLPC  H13Y 6360   2.635   6.466   9.260 -0.8886  0.4066 -2.4114
   72SLPC  C314 6361   2.632   6.324   9.110  0.1750  0.4790 -0.1901
   72SLPC  H14X 6362   2.576   6.254   9.175  1.3338  0.4638  0.8465
   72SLPC  H14Y 6363   2.705   6.270   9.046 -0.2454 -1.2696  0.7490
   72SLPC  C315 6364   2.537   6.392   9.014  0.0022  0.2268 -0.1421
   72SLPC  H15X 6365   2.589   6.459   8.942  0.7778  1.1127  1.2075
   72SLPC  H15Y 6366   2.468   6.456   9.073  0.3423  0.5495 -0.0873
   72SLPC  C316 6367   2.465   6.287   8.926 -0.1786  0.0077 -0.0561
   72SLPC  H16X 6368   2.422   6.203   8.983 -0.0173 -0.3949 -0.5263
   72SLPC  H16Y 6369   2.535   6.257   8.845 -1.1570  4.0136 -2.6644
   72SLPC  C317 6370   2.339   6.352   8.866  1.0361 -0.6620 -0.0558
   72SLPC  H17X 6371   2.291   6.409   8.948 -0.4958 -0.8495 -0.7857
   72SLPC  H17Y 6372   2.269   6.271   8.835 -0.1820 -0.0640  1.0310
   72SLPC  C318 6373   2.377   6.439   8.751  0.1383 -0.4658  0.1568
   72SLPC  H18X 6374   2.284   6.485   8.711  0.6768 -1.4743 -2.5046
   72SLPC  H18Y 6375   2.439   6.388   8.674 -1.3450 -3.7161  0.9376
   72SLPC  H18Z 6376   2.442   6.518   8.793 -2.0119  1.4227  0.1114
   73SLPC     N 6377   3.718   0.904  11.056  0.0885  0.4061 -0.3734
   73SLPC   C13 6378   3.606   0.932  10.955 -0.4219 -0.1594 -0.2959
   73SLPC  H13A 6379   3.629   1.020  10.898  1.0495 -0.2048  0.1801
   73SLPC  H13B 6380   3.605   0.851  10.883  0.5143  0.0725 -0.5799
   73SLPC  H13C 6381   3.509   0.946  10.999 -0.7979  2.4997 -1.7487
   73SLPC   C14 6382   3.696   0.774  11.128 -0.1033  0.2860 -0.1865
   73SLPC  H14A 6383   3.763   0.772  11.212 -0.0088 -0.0448 -0.2670
   73SLPC  H14B 6384   3.598   0.789  11.172 -0.3508  1.4458 -1.0968
   73SLPC  H14C 6385   3.694   0.682  11.071  1.8390 -1.3424  2.1449
   73SLPC   C15 6386   3.718   1.016  11.150 -0.1170 -0.0649  1.0611
   73SLPC  H15A 6387   3.616   1.040  11.176 -0.2051  1.7945 -0.7742
   73SLPC  H15B 6388   3.775   1.004  11.241 -1.8059  3.1677  2.7422
   73SLPC  H15C 6389   3.756   1.106  11.103 -0.9427  0.2261  0.9381
   73SLPC   C12 6390   3.851   0.887  10.985  0.4594 -0.2202  0.7539
   73SLPC  H12A 6391   3.932   0.883  11.056  1.6731  2.8692 -0.2641
   73SLPC  H12B 6392   3.859   0.983  10.936  0.7595 -1.0633 -0.9631
   73SLPC   C11 6393   3.867   0.768  10.893 -0.2545 -0.1253 -0.0157
   73SLPC  H11A 6394   3.876   0.676  10.955 -0.4657 -0.6651 -0.7748
   73SLPC  H11B 6395   3.956   0.779  10.827 -1.4900  2.8459 -1.3604
   73SLPC     P 6396   3.705   0.616  10.757  0.3092 -0.7408  0.1086
   73SLPC   O13 6397   3.824   0.534  10.751 -0.5849 -0.0142 -0.4818
   73SLPC   O14 6398   3.586   0.565  10.835 -0.7100 -0.2950  0.1596
   73SLPC   O12 6399   3.756   0.754  10.800  0.3240 -0.2335  0.2768
   73SLPC   O11 6400   3.656   0.638  10.600  0.1100  0.2641  0.3862
   73SLPC    C1 6401   3.717   0.727  10.508  0.2428  0.0575 -0.2727
   73SLPC    HA 6402   3.652   0.813  10.481  2.1747  1.9526  0.7464
   73SLPC    HB 6403   3.810   0.768  10.553  0.5250 -2.3025  1.4706
   73SLPC    C2 6404   3.741   0.656  10.370 -0.1928  0.2927  0.3826
   73SLPC    HS 6405   3.796   0.724  10.302 -1.7730  0.1200 -1.1446
   73SLPC   O21 6406   3.621   0.609  10.313  0.7259 -0.0231  0.1107
   73SLPC   C21 6407   3.610   0.626  10.186  1.0339  0.1757  0.7700
   73SLPC   O22 6408   3.689   0.679  10.107 -0.7403  0.0561 -0.3060
   73SLPC   C22 6409   3.480   0.567  10.135  0.3071  0.0489  0.2623
   73SLPC   H2R 6410   3.444   0.484  10.201  1.3525 -0.9649 -0.3989
   73SLPC   H2S 6411   3.399   0.643  10.142 -2.9271 -3.1506  0.5001
   73SLPC    C3 6412   3.843   0.546  10.405 -0.0194  0.4732 -0.1421
   73SLPC    HX 6413   3.781   0.488  10.477 -0.3763  0.3551 -0.5399
   73SLPC    HY 6414   3.935   0.584  10.455 -0.2256  2.1593 -0.9902
   73SLPC   O31 6415   3.871   0.453  10.288 -0.2010 -0.1686 -0.5982
   73SLPC   C31 6416   3.963   0.500  10.205  1.2637  0.0494  0.8191
   73SLPC   O32 6417   4.017   0.608  10.222 -0.6273  0.2328 -0.0501
   73SLPC   C32 6418   3.980   0.409  10.079 -0.7127  0.9006  0.7313
   73SLPC   H2X 6419   3.882   0.380  10.036 -0.1553 -0.5067  0.3511
   73SLPC   H2Y 6420   4.020   0.314  10.120  2.2106  0.6482 -2.2617
   73SLPC   C23 6421   3.492   0.523   9.989 -0.7324 -0.3039  0.1924
   73SLPC   H3R 6422   3.532   0.420   9.984 -0.2028 -0.1333  0.7312
   73SLPC   H3S 6423   3.555   0.596   9.933 -2.4612  0.4209 -0.8932
   73SLPC   C24 6424   3.352   0.502   9.921  0.6958  1.0100  0.2287
   73SLPC   H4R 6425   3.323   0.606   9.894  2.2228  0.9430 -1.9039
   73SLPC   H4S 6426   3.279   0.446   9.984  1.5765  1.0685  1.3352
   73SLPC   C25 6427   3.354   0.433   9.790  0.2219  0.4810 -0.0615
   73SLPC   H5R 6428   3.255   0.431   9.739  0.9602 -1.0461 -1.5430
   73SLPC   H5S 6429   3.378   0.325   9.795 -0.7922 -0.1317 -4.2785
   73SLPC   C26 6430   3.455   0.493   9.693 -0.4409  0.1307 -0.2502
   73SLPC   H6R 6431   3.556   0.482   9.740 -0.6652 -4.0185 -0.3683
   73SLPC   H6S 6432   3.435   0.600   9.670 -1.0281  0.2901  0.9144
   73SLPC   C27 6433   3.470   0.407   9.573 -0.0346  0.3288  0.3109
   73SLPC   H7R 6434   3.371   0.395   9.524  0.6384 -0.3978 -0.9475
   73SLPC   H7S 6435   3.506   0.305   9.599  1.1080 -0.0244 -2.3200
   73SLPC   C28 6436   3.567   0.469   9.471  0.2924  0.3842  0.6203
   73SLPC   H8R 6437   3.543   0.574   9.444  0.3482  0.4435  0.8029
   73SLPC   H8S 6438   3.565   0.408   9.378  0.4041  0.6059  0.4706
   73SLPC   C29 6439   3.718   0.476   9.521 -0.0729  0.8852  0.2765
   73SLPC   H9R 6440   3.732   0.502   9.627 -3.4174 -1.7103  1.5830
   73SLPC  C210 6441   3.825   0.424   9.461  0.2405 -0.2261  0.8930
   73SLPC  H10R 6442   3.922   0.428   9.511 -0.4914 -1.6796  2.5099
   73SLPC  C211 6443   3.828   0.354   9.319 -0.6339 -0.5758 -1.3987
   73SLPC  H11R 6444   3.735   0.293   9.312 -1.4632  0.5931 -0.9349
   73SLPC  H11S 6445   3.904   0.273   9.317 -1.2516 -1.1596 -3.4954
   73SLPC  C212 6446   3.827   0.439   9.196  0.1640 -1.0330  0.2972
   73SLPC  H12R 6447   3.853   0.544   9.218 -0.4531 -1.1663  1.7857
   73SLPC  C213 6448   3.800   0.393   9.073 -0.4839 -0.2622  0.3884
   73SLPC  H13R 6449   3.801   0.452   8.980  2.7611  0.8442  0.9928
   73SLPC  C214 6450   3.760   0.247   9.042  0.2252  0.1622 -0.7261
   73SLPC  H14R 6451   3.675   0.253   8.971 -0.4008  0.0044 -0.0060
   73SLPC  H14S 6452   3.722   0.183   9.125 -1.0386 -0.2304 -1.5785
   73SLPC  C215 6453   3.881   0.186   8.963  0.0124  0.1493  0.2297
   73SLPC  H15R 6454   3.879   0.209   8.854  1.2564  0.9029  0.3482
   73SLPC  H15S 6455   3.878   0.076   8.978  0.3634 -0.0131 -0.7967
   73SLPC  C216 6456   4.026   0.224   9.015  0.2483  0.3200  0.0536
   73SLPC  H16R 6457   4.018   0.203   9.124  0.1905  2.6605  0.5440
   73SLPC  H16S 6458   4.031   0.334   9.005  0.5013  0.3890  0.8467
   73SLPC  C217 6459   4.137   0.157   8.937  0.2732  0.5557  0.2187
   73SLPC  H17R 6460   4.128   0.047   8.946  0.0883  0.5625  0.1262
   73SLPC  H17S 6461   4.235   0.192   8.976  0.6085 -1.4574  1.2858
   73SLPC  C218 6462   4.148   0.197   8.786 -0.0149  0.3549 -0.2929
   73SLPC  H18R 6463   4.059   0.172   8.724 -0.9078  0.6362  0.8441
   73SLPC  H18S 6464   4.230   0.149   8.728 -0.0697 -2.0415  1.4628
   73SLPC  H18T 6465   4.150   0.308   8.776  1.2894  0.3784  0.0399
   73SLPC   C33 6466   4.073   0.473   9.980  0.7921  0.6033  0.0325
   73SLPC   H3X 6467   4.170   0.498  10.030  1.0042 -0.9022  0.4213
   73SLPC   H3Y 6468   4.032   0.572   9.951  2.8227  1.4181 -0.2190
   73SLPC   C34 6469   4.100   0.384   9.859  0.0355  0.0142  0.3357
   73SLPC   H4X 6470   4.007   0.334   9.824 -0.3774 -0.6327  2.2159
   73SLPC   H4Y 6471   4.170   0.303   9.887 -1.1682 -1.6737 -1.3130
   73SLPC   C35 6472   4.163   0.456   9.739 -0.1033 -0.1444  0.8045
   73SLPC   H5X 6473   4.236   0.534   9.771 -0.5037 -0.7249  3.2826
   73SLPC   H5Y 6474   4.083   0.508   9.682  0.1427 -1.3033 -0.6703
   73SLPC   C36 6475   4.214   0.356   9.637 -1.3507  0.2355  0.2613
   73SLPC   H6X 6476   4.137   0.279   9.615  1.1450 -3.1008  2.2060
   73SLPC   H6Y 6477   4.299   0.298   9.680  1.7492  1.0007 -4.1476
   73SLPC   C37 6478   4.269   0.428   9.521 -0.5282  0.0037 -0.3177
   73SLPC   H7X 6479   4.342   0.504   9.556 -0.0430 -0.0558 -1.1711
   73SLPC   H7Y 6480   4.193   0.492   9.473  1.1576  2.7570  0.4998
   73SLPC   C38 6481   4.343   0.340   9.418  0.0650  0.4043 -0.6818
   73SLPC   H8X 6482   4.271   0.272   9.366 -0.9022  0.1776  0.8927
   73SLPC   H8Y 6483   4.420   0.282   9.474  0.2376 -0.7055 -1.9989
   73SLPC   C39 6484   4.413   0.421   9.304  0.3959 -0.0490 -0.3586
   73SLPC   H9X 6485   4.509   0.374   9.273 -0.6340 -1.3044 -1.7855
   73SLPC   H9Y 6486   4.414   0.528   9.333 -1.2466 -0.3064  0.7602
   73SLPC  C310 6487   4.327   0.425   9.183  0.1983 -0.2249 -0.2280
   73SLPC  H10X 6488   4.232   0.475   9.211  0.7046  0.0520  1.0510
   73SLPC  H10Y 6489   4.286   0.325   9.156 -0.6298 -0.0526  0.3567
   73SLPC  C311 6490   4.395   0.490   9.062 -0.3577 -0.1156 -0.0206
   73SLPC  H11X 6491   4.454   0.412   9.010  1.0415  2.0745 -1.9225
   73SLPC  H11Y 6492   4.467   0.565   9.103  2.1752 -1.1153 -2.3506
   73SLPC  C312 6493   4.292   0.545   8.956  0.7831  0.4344 -0.4015
   73SLPC  H12X 6494   4.251   0.631   9.013 -0.4916  0.6805 -1.6399
   73SLPC  H12Y 6495   4.223   0.462   8.929  0.7476 -0.0538  1.0915
   73SLPC  C313 6496   4.361   0.602   8.828  0.4293 -0.2325 -0.2063
   73SLPC  H13X 6497   4.452   0.655   8.865  1.2840 -0.1982 -2.2340
   73SLPC  H13Y 6498   4.280   0.663   8.785 -0.3656 -1.5363 -0.6214
   73SLPC  C314 6499   4.393   0.490   8.729 -0.4589  0.1109  0.5817
   73SLPC  H14X 6500   4.299   0.438   8.697  0.7011 -1.0332 -1.1529
   73SLPC  H14Y 6501   4.453   0.417   8.787 -1.9899 -0.2615  1.7670
   73SLPC  C315 6502   4.464   0.528   8.595 -0.4278 -0.3355 -0.1259
   73SLPC  H15X 6503   4.559   0.579   8.623 -0.7119 -0.3227  0.8688
   73SLPC  H15Y 6504   4.414   0.603   8.530 -0.4155  0.4045  0.6940
   73SLPC  C316 6505   4.498   0.401   8.516  0.0309  0.1453  0.1684
   73SLPC  H16X 6506   4.412   0.350   8.469  0.3049  0.2484 -0.4502
   73SLPC  H16Y 6507   4.557   0.335   8.583  1.4919  1.1968 -0.0197
   73SLPC  C317 6508   4.610   0.430   8.407  0.2285 -0.8992 -0.2607
   73SLPC  H17X 6509   4.633   0.345   8.341  1.3781 -0.8869  0.1140
   73SLPC  H17Y 6510   4.702   0.449   8.466  1.0440 -1.5228 -1.3148
   73SLPC  C318 6511   4.576   0.554   8.332  0.8145  0.4143 -0.6175
   73SLPC  H18X 6512   4.613   0.644   8.387  0.7145 -0.0688  0.2585
   73SLPC  H18Y 6513   4.467   0.560   8.314  0.1781  0.1397  2.5912
   73SLPC  H18Z 6514   4.629   0.551   8.234  1.4462 -2.0531 -0.2551
   74SLPC     N 6515   4.018   2.307  10.691  0.5966 -0.2047 -0.5499
   74SLPC   C13 6516   3.979   2.399  10.807 -0.5666 -0.7497  0.1132
   74SLPC  H13A 6517   3.887   2.372  10.857 -0.2468  0.8898  1.6531
   74SLPC  H13B 6518   4.068   2.426  10.862  0.7271  0.2296 -2.3084
   74SLPC  H13C 6519   3.940   2.489  10.764 -2.1693 -0.7963  1.3431
   74SLPC   C14 6520   3.895   2.281  10.611 -0.7408 -0.3481 -0.1698
   74SLPC  H14A 6521   3.920   2.230  10.519 -0.3974  0.3672 -0.4824
   74SLPC  H14B 6522   3.832   2.225  10.679 -0.6120  1.0255  1.1337
   74SLPC  H14C 6523   3.853   2.377  10.584 -1.0445 -0.0539  1.2488
   74SLPC   C15 6524   4.070   2.180  10.757  0.2527  0.5889 -0.3415
   74SLPC  H15A 6525   4.142   2.214  10.831  0.0561 -2.1105  1.2397
   74SLPC  H15B 6526   3.996   2.125  10.812 -1.4024  0.3755 -2.6564
   74SLPC  H15C 6527   4.121   2.118  10.684 -0.5704 -0.4691 -0.0389
   74SLPC   C12 6528   4.130   2.381  10.619  0.3943 -0.1051  0.2428
   74SLPC  H12A 6529   4.098   2.458  10.550  0.1833 -0.8028 -0.4524
   74SLPC  H12B 6530   4.181   2.310  10.556  0.7626  0.8583 -0.5677
   74SLPC   C11 6531   4.243   2.447  10.702  0.2435 -0.1632 -0.5640
   74SLPC  H11A 6532   4.307   2.483  10.618  0.9443 -1.3833 -0.5695
   74SLPC  H11B 6533   4.304   2.376  10.761  0.1081  0.3822  0.2557
   74SLPC     P 6534   4.168   2.701  10.752 -0.0876  0.3124 -0.1259
   74SLPC   O13 6535   4.097   2.773  10.859 -0.1369 -0.8113 -0.1948
   74SLPC   O14 6536   4.292   2.757  10.698  0.4020 -0.5405 -0.5981
   74SLPC   O12 6537   4.210   2.553  10.792  0.2279  0.7107 -0.1170
   74SLPC   O11 6538   4.066   2.673  10.640  0.5001  0.1100  0.2918
   74SLPC    C1 6539   4.001   2.775  10.567 -0.1594  0.2739 -0.5544
   74SLPC    HA 6540   3.891   2.781  10.584 -0.1919  0.2229 -0.7414
   74SLPC    HB 6541   4.040   2.878  10.579  0.6969 -0.2510  1.6552
   74SLPC    C2 6542   4.007   2.752  10.417  0.0878  0.5453 -0.2665
   74SLPC    HS 6543   3.967   2.649  10.406  2.1453 -0.2780 -0.5553
   74SLPC   O21 6544   4.139   2.762  10.372  0.2025  0.6603 -0.5776
   74SLPC   C21 6545   4.198   2.640  10.356  0.0316  0.7722  0.0761
   74SLPC   O22 6546   4.141   2.535  10.367 -0.2047 -0.4833  0.3624
   74SLPC   C22 6547   4.348   2.656  10.323 -0.9586  0.5427  0.3324
   74SLPC   H2R 6548   4.402   2.707  10.406 -2.1296  0.9664  0.8707
   74SLPC   H2S 6549   4.386   2.553  10.310 -0.1060  0.8364  0.4253
   74SLPC    C3 6550   3.916   2.850  10.338 -0.6764  0.0459 -0.0910
   74SLPC    HX 6551   3.937   2.953  10.374  0.8852  0.1986 -1.3376
   74SLPC    HY 6552   3.812   2.824  10.366 -1.1438  0.8039 -1.0386
   74SLPC   O31 6553   3.934   2.856  10.200 -0.5359  0.2407 -0.7731
   74SLPC   C31 6554   3.883   2.749  10.140 -0.2244 -0.0247 -0.7487
   74SLPC   O32 6555   3.824   2.657  10.197  0.2276  0.3005 -0.6838
   74SLPC   C32 6556   3.912   2.759   9.994  0.3948 -0.5071  0.6816
   74SLPC   H2X 6557   4.016   2.722   9.984  0.4544 -0.4650  1.1310
   74SLPC   H2Y 6558   3.900   2.865   9.962  2.0868  0.1120  1.9136
   74SLPC   C23 6559   4.363   2.727  10.187  0.2336 -0.1089  0.3883
   74SLPC   H3R 6560   4.470   2.753  10.171 -0.0876  0.9397 -0.0814
   74SLPC   H3S 6561   4.304   2.821  10.182  3.1957  1.8188 -1.7959
   74SLPC   C24 6562   4.330   2.648  10.057 -0.2095  0.2600  0.1099
   74SLPC   H4R 6563   4.234   2.592  10.065 -0.4347  0.8087  1.5163
   74SLPC   H4S 6564   4.405   2.566  10.055 -0.2193  0.1978  1.5162
   74SLPC   C25 6565   4.329   2.736   9.929  0.3224  0.1823  0.5158
   74SLPC   H5R 6566   4.424   2.794   9.924  1.3472 -1.3763  1.2668
   74SLPC   H5S 6567   4.255   2.819   9.927  0.1202 -0.0094 -1.1854
   74SLPC   C26 6568   4.312   2.638   9.803  0.7000  0.0208 -0.0133
   74SLPC   H6R 6569   4.214   2.585   9.793  2.0885 -2.2566 -3.0765
   74SLPC   H6S 6570   4.398   2.569   9.815  3.1757  2.9777  0.5163
   74SLPC   C27 6571   4.332   2.690   9.661 -1.1336 -0.1926 -0.1331
   74SLPC   H7R 6572   4.324   2.604   9.592 -0.1627 -0.7354  0.4114
   74SLPC   H7S 6573   4.439   2.721   9.664 -0.4114 -2.5965  1.0934
   74SLPC   C28 6574   4.248   2.812   9.622  0.2242 -0.6268  0.0506
   74SLPC   H8R 6575   4.284   2.898   9.682  0.8296  0.8480 -2.2963
   74SLPC   H8S 6576   4.141   2.792   9.642  0.7949 -3.1796  0.9631
   74SLPC   C29 6577   4.277   2.848   9.483  0.8561 -0.2949 -0.2192
   74SLPC   H9R 6578   4.380   2.830   9.448  1.8613  0.7534  2.0181
   74SLPC  C210 6579   4.184   2.885   9.391 -0.4731 -0.3421  0.1619
   74SLPC  H10R 6580   4.216   2.890   9.285 -2.4430 -2.1068 -0.5957
   74SLPC  C211 6581   4.035   2.911   9.413 -0.1135 -0.3882 -0.4398
   74SLPC  H11R 6582   4.017   3.020   9.398 -1.0972 -0.5063 -0.1611
   74SLPC  H11S 6583   4.011   2.895   9.520 -1.1456  0.5235 -0.5131
   74SLPC  C212 6584   3.940   2.830   9.331  0.8410  0.1277  0.3033
   74SLPC  H12R 6585   3.887   2.752   9.387  1.6492 -1.4406 -1.0572
   74SLPC  C213 6586   3.895   2.859   9.209 -0.1420 -0.0768 -0.2545
   74SLPC  H13R 6587   3.830   2.789   9.154 -0.0413  0.6966 -1.3946
   74SLPC  C214 6588   3.945   2.970   9.116 -0.0492 -0.1031 -0.7478
   74SLPC  H14R 6589   3.970   2.938   9.012 -0.3362  1.2167 -1.2402
   74SLPC  H14S 6590   4.033   3.016   9.164 -1.6245  0.0667  2.2576
   74SLPC  C215 6591   3.840   3.086   9.100  0.5066  0.0853  0.4533
   74SLPC  H15R 6592   3.886   3.161   9.032 -1.3865  0.9041  0.0195
   74SLPC  H15S 6593   3.808   3.124   9.200 -1.2771  1.6142 -0.6246
   74SLPC  C216 6594   3.723   3.045   9.011 -0.7695  0.5209 -0.0475
   74SLPC  H16R 6595   3.667   2.959   9.054  0.6555 -0.5126 -0.1530
   74SLPC  H16S 6596   3.769   3.020   8.912  1.5311  0.1405  1.0387
   74SLPC  C217 6597   3.630   3.155   8.988  0.9819  0.2517  0.4204
   74SLPC  H17R 6598   3.694   3.234   8.944  0.4143  0.6836  0.3582
   74SLPC  H17S 6599   3.594   3.186   9.089 -0.6708  1.7074 -0.5680
   74SLPC  C218 6600   3.526   3.127   8.880  0.4540 -0.2391 -0.4314
   74SLPC  H18R 6601   3.578   3.117   8.782  0.2780 -1.2344 -0.4332
   74SLPC  H18S 6602   3.456   3.212   8.868 -1.5877 -1.8324 -0.4039
   74SLPC  H18T 6603   3.458   3.041   8.897 -0.0498  0.2711  0.1569
   74SLPC   C33 6604   3.828   2.654   9.915 -0.1109  0.0881 -0.1655
   74SLPC   H3X 6605   3.720   2.682   9.923 -0.1123  0.1643 -0.4567
   74SLPC   H3Y 6606   3.846   2.551   9.950 -0.3799  0.5732  1.4911
   74SLPC   C34 6607   3.876   2.654   9.764 -0.3556  0.0645 -0.2961
   74SLPC   H4X 6608   3.978   2.697   9.758 -0.2709 -0.1146 -0.1409
   74SLPC   H4Y 6609   3.811   2.719   9.701 -1.9274 -1.7751 -0.6515
   74SLPC   C35 6610   3.879   2.516   9.699 -0.5546 -0.0906 -0.2926
   74SLPC   H5X 6611   3.782   2.462   9.702 -0.3188 -0.7417 -2.4850
   74SLPC   H5Y 6612   3.948   2.454   9.760 -2.7606 -2.1645  0.2347
   74SLPC   C36 6613   3.914   2.528   9.549  0.8424  0.1160  0.0386
   74SLPC   H6X 6614   3.963   2.624   9.523  0.9713  0.1914  0.5533
   74SLPC   H6Y 6615   3.812   2.522   9.506  0.4076 -0.2697  1.0955
   74SLPC   C37 6616   3.996   2.408   9.506 -0.2743  0.1052  0.1846
   74SLPC   H7X 6617   3.939   2.326   9.553 -1.5600  1.8238  1.7609
   74SLPC   H7Y 6618   4.098   2.408   9.550 -0.3077 -0.7805  0.2860
   74SLPC   C38 6619   4.000   2.382   9.361  0.5119  0.8881 -0.4305
   74SLPC   H8X 6620   3.897   2.405   9.328 -0.6529  1.0823  2.9192
   74SLPC   H8Y 6621   4.033   2.277   9.346 -1.4918  0.1321  0.2005
   74SLPC   C39 6622   4.118   2.461   9.290  0.4522 -0.2332  0.3066
   74SLPC   H9X 6623   4.216   2.433   9.333  0.5605  1.5587  1.2950
   74SLPC   H9Y 6624   4.104   2.567   9.319  0.8461  0.1480 -0.8239
   74SLPC  C310 6625   4.106   2.448   9.140  0.4015 -0.2150 -0.4433
   74SLPC  H10X 6626   4.108   2.342   9.105  1.1845  0.5525 -2.9073
   74SLPC  H10Y 6627   4.205   2.488   9.110 -0.0884  0.3284 -1.3850
   74SLPC  C311 6628   3.972   2.507   9.083 -0.5541  0.4184 -0.1588
   74SLPC  H11X 6629   3.947   2.597   9.144 -1.4264  0.0115  0.0987
   74SLPC  H11Y 6630   3.894   2.429   9.082 -1.5344  1.3687 -0.7459
   74SLPC  C312 6631   3.984   2.572   8.937  0.2744  0.0266  0.4246
   74SLPC  H12X 6632   4.007   2.485   8.872  1.8063 -0.2230  1.2460
   74SLPC  H12Y 6633   4.060   2.652   8.943  0.4089 -0.0599 -0.1079
   74SLPC  C313 6634   3.852   2.630   8.879 -0.2077  0.2760  0.1056
   74SLPC  H13X 6635   3.840   2.727   8.932  1.2504  0.0065  0.9887
   74SLPC  H13Y 6636   3.770   2.561   8.908  0.3269  0.2752  1.7100
   74SLPC  C314 6637   3.869   2.665   8.728 -0.3127  0.1838 -0.3869
   74SLPC  H14X 6638   3.877   2.579   8.658 -0.4208  0.8967 -1.2973
   74SLPC  H14Y 6639   3.960   2.723   8.700  1.0053 -0.6869  1.8249
   74SLPC  C315 6640   3.748   2.743   8.674 -0.8486  0.2290  0.1071
   74SLPC  H15X 6641   3.736   2.729   8.564 -1.6924 -0.8458  0.3184
   74SLPC  H15Y 6642   3.768   2.847   8.707  1.0959 -0.1826  0.3587
   74SLPC  C316 6643   3.612   2.699   8.725  0.4751 -0.0335  0.4892
   74SLPC  H16X 6644   3.616   2.738   8.830  1.6712 -1.7479  1.1211
   74SLPC  H16Y 6645   3.589   2.592   8.742 -0.0704  0.2449  1.6096
   74SLPC  C317 6646   3.503   2.754   8.637  0.1822 -0.3136  0.0214
   74SLPC  H17X 6647   3.534   2.846   8.583 -0.0223 -1.7601 -2.7004
   74SLPC  H17Y 6648   3.410   2.782   8.691 -0.4879  0.3043 -1.3867
   74SLPC  C318 6649   3.455   2.646   8.532 -0.3779 -0.2436 -0.8934
   74SLPC  H18X 6650   3.392   2.682   8.448 -2.6054  1.7959  1.4959
   74SLPC  H18Y 6651   3.390   2.570   8.580  1.7323 -0.9780  0.9884
   74SLPC  H18Z 6652   3.541   2.593   8.485 -0.6072 -1.1661 -0.2937
   75SLPC     N 6653   3.937   5.211   6.724  0.1861 -0.3560  0.5351
   75SLPC   C13 6654   3.854   5.096   6.778 -0.3575 -0.6863  0.0429
   75SLPC  H13A 6655   3.885   5.069   6.877 -1.4834  0.4622  0.7491
   75SLPC  H13B 6656   3.750   5.122   6.795 -0.6886 -2.0762  0.2592
   75SLPC  H13C 6657   3.845   5.025   6.697 -1.6955  0.4665 -0.8873
   75SLPC   C14 6658   4.075   5.153   6.702 -0.0959  0.5707 -0.5837
   75SLPC  H14A 6659   4.068   5.073   6.630 -1.2555  0.4045 -0.3118
   75SLPC  H14B 6660   4.157   5.221   6.684  1.2775 -0.3840  1.5405
   75SLPC  H14C 6661   4.106   5.115   6.799  0.0018  3.1150  0.4604
   75SLPC   C15 6662   3.946   5.316   6.832  0.0315 -0.3315  0.5704
   75SLPC  H15A 6663   3.998   5.404   6.796  0.6827 -0.1548  1.8863
   75SLPC  H15B 6664   3.844   5.342   6.854  0.4111 -0.4440  2.6484
   75SLPC  H15C 6665   3.987   5.286   6.927  1.0025  2.1959  1.0209
   75SLPC   C12 6666   3.879   5.273   6.598  0.0753 -0.4292 -0.4409
   75SLPC  H12A 6667   3.865   5.193   6.527  0.4579  0.6533 -1.7787
   75SLPC  H12B 6668   3.958   5.330   6.550 -0.1893 -0.6480 -1.1559
   75SLPC   C11 6669   3.745   5.346   6.608 -0.6177 -0.2230  0.0645
   75SLPC  H11A 6670   3.727   5.393   6.509  0.7321 -1.1759 -0.6613
   75SLPC  H11B 6671   3.747   5.433   6.677 -0.2074  0.1784 -0.4416
   75SLPC     P 6672   3.578   5.161   6.538 -0.3595  0.1748 -0.1028
   75SLPC   O13 6673   3.453   5.218   6.496  0.6649 -0.1906  0.5546
   75SLPC   O14 6674   3.677   5.121   6.436 -0.8878  0.1767  0.4621
   75SLPC   O12 6675   3.642   5.262   6.639  0.5082  0.0088  0.7535
   75SLPC   O11 6676   3.561   5.023   6.615  0.1720  0.6697 -0.6236
   75SLPC    C1 6677   3.436   4.966   6.668  0.4111 -0.6663  0.2916
   75SLPC    HA 6678   3.356   4.997   6.598 -0.8390 -0.7043  1.6416
   75SLPC    HB 6679   3.441   4.855   6.670 -0.6896 -0.7357 -0.1158
   75SLPC    C2 6680   3.399   5.011   6.817 -0.3205  0.0839  0.1535
   75SLPC    HS 6681   3.425   5.118   6.822 -2.9287  0.7703  0.4660
   75SLPC   O21 6682   3.444   4.916   6.914  0.1593  0.2230 -0.2366
   75SLPC   C21 6683   3.554   4.948   6.975 -0.0867  0.4127  0.2435
   75SLPC   O22 6684   3.626   5.047   6.958  0.7256  0.0028  0.3142
   75SLPC   C22 6685   3.580   4.828   7.075  0.1530 -0.7050  0.3952
   75SLPC   H2R 6686   3.485   4.773   7.091 -0.8482  0.0447 -2.3096
   75SLPC   H2S 6687   3.656   4.775   7.014  1.0640 -0.4360  1.2739
   75SLPC    C3 6688   3.249   5.016   6.840 -0.3528 -0.1169 -0.1517
   75SLPC    HX 6689   3.205   4.915   6.851  0.8199 -0.4726  1.8287
   75SLPC    HY 6690   3.200   5.083   6.766  1.0748  1.3969  0.2081
   75SLPC   O31 6691   3.234   5.084   6.973  0.5943 -0.6188  0.3369
   75SLPC   C31 6692   3.113   5.072   7.016  0.1066  0.4932 -0.6092
   75SLPC   O32 6693   3.036   4.976   6.996 -0.1491 -0.3389 -0.4443
   75SLPC   C32 6694   3.082   5.198   7.092  0.7551  0.0710 -0.6387
   75SLPC   H2X 6695   3.008   5.254   7.031  0.1912  0.4667  0.3707
   75SLPC   H2Y 6696   3.176   5.256   7.097  1.8873 -1.7746  0.9822
   75SLPC   C23 6697   3.641   4.888   7.200  0.7897  0.3427 -0.0439
   75SLPC   H3R 6698   3.554   4.902   7.268  1.6018  0.7102  0.9391
   75SLPC   H3S 6699   3.690   4.987   7.188  1.1947 -0.0954 -2.4280
   75SLPC   C24 6700   3.733   4.770   7.252 -0.0620  0.0845  0.6986
   75SLPC   H4R 6701   3.797   4.733   7.169 -0.2683 -0.2964  0.7052
   75SLPC   H4S 6702   3.659   4.696   7.288 -0.0223 -0.2884  0.0390
   75SLPC   C25 6703   3.827   4.818   7.359  0.1850 -0.5647  0.1710
   75SLPC   H5R 6704   3.798   4.896   7.433  3.4501 -2.4367  3.7776
   75SLPC   H5S 6705   3.919   4.854   7.308 -0.1520  0.0906  0.0043
   75SLPC   C26 6706   3.879   4.712   7.453  0.0550  0.4258 -0.1667
   75SLPC   H6R 6707   3.961   4.755   7.514  1.0629 -0.0732 -1.1246
   75SLPC   H6S 6708   3.931   4.638   7.389 -2.0041  0.6617 -2.2390
   75SLPC   C27 6709   3.770   4.651   7.542  0.0439 -0.0355  0.7688
   75SLPC   H7R 6710   3.687   4.607   7.483 -0.2213 -0.2206  1.2738
   75SLPC   H7S 6711   3.726   4.736   7.599 -0.7478  0.5585 -0.6673
   75SLPC   C28 6712   3.812   4.531   7.634  0.3880 -0.9178 -0.9312
   75SLPC   H8R 6713   3.858   4.456   7.566  0.7100 -1.6012  0.0087
   75SLPC   H8S 6714   3.717   4.492   7.676  1.4987 -4.2556 -1.1789
   75SLPC   C29 6715   3.917   4.577   7.740 -0.1179  1.0432 -0.9061
   75SLPC   H9R 6716   3.998   4.643   7.702  1.0481 -0.9490 -2.0582
   75SLPC  C210 6717   3.903   4.547   7.868  0.5482 -0.0814 -0.2037
   75SLPC  H10R 6718   3.977   4.586   7.940 -0.4909  0.4371  0.5963
   75SLPC  C211 6719   3.796   4.457   7.934 -0.2254  0.4067 -0.0022
   75SLPC  H11R 6720   3.843   4.390   8.009 -1.7647 -1.5934 -0.7263
   75SLPC  H11S 6721   3.766   4.395   7.846  2.4886  0.3824 -1.0080
   75SLPC  C212 6722   3.680   4.536   7.996 -0.5023 -0.2181  0.7902
   75SLPC  H12R 6723   3.595   4.556   7.930  0.8096 -0.4020 -1.0280
   75SLPC  C213 6724   3.669   4.567   8.124 -0.0814 -0.4030  0.2080
   75SLPC  H13R 6725   3.591   4.635   8.162 -0.6071 -1.2546  0.6736
   75SLPC  C214 6726   3.775   4.536   8.228  0.4141  0.5922 -0.2403
   75SLPC  H14R 6727   3.877   4.535   8.185  0.6041 -0.6487  0.1965
   75SLPC  H14S 6728   3.757   4.434   8.270  0.8086  0.6084 -0.0328
   75SLPC  C215 6729   3.770   4.638   8.343 -0.2133  0.0218 -0.1951
   75SLPC  H15R 6730   3.772   4.742   8.303  4.0798 -0.2322 -1.1475
   75SLPC  H15S 6731   3.863   4.634   8.404 -0.2045  1.0580 -0.1212
   75SLPC  C216 6732   3.653   4.615   8.439 -0.2971 -0.6707 -0.0659
   75SLPC  H16R 6733   3.667   4.519   8.493 -1.4347 -1.7910 -1.6534
   75SLPC  H16S 6734   3.558   4.598   8.384  0.5372 -1.4288 -1.3159
   75SLPC  C217 6735   3.633   4.731   8.548 -1.0521  0.1086 -0.0692
   75SLPC  H17R 6736   3.572   4.809   8.498 -1.3649  0.7526  1.2728
   75SLPC  H17S 6737   3.727   4.778   8.584  0.3513 -0.8177 -2.3121
   75SLPC  C218 6738   3.566   4.677   8.669 -0.2696 -0.0430 -0.2996
   75SLPC  H18R 6739   3.461   4.648   8.645  0.3347 -0.4553 -2.6952
   75SLPC  H18S 6740   3.567   4.756   8.748  2.8668  0.1700 -0.4569
   75SLPC  H18T 6741   3.631   4.596   8.707 -0.1497 -0.2658 -0.9679
   75SLPC   C33 6742   3.014   5.178   7.229  0.2589 -0.1577 -0.0062
   75SLPC   H3X 6743   3.002   5.276   7.281 -2.1482  0.2478 -1.1815
   75SLPC   H3Y 6744   2.911   5.143   7.206  0.0228 -0.2206  1.0911
   75SLPC   C34 6745   3.068   5.071   7.326  0.4379  0.0488 -0.7468
   75SLPC   H4X 6746   3.065   4.971   7.278 -0.6076  0.4772 -1.6342
   75SLPC   H4Y 6747   3.000   5.070   7.414 -1.7531 -0.1901 -2.3505
   75SLPC   C35 6748   3.218   5.097   7.368 -0.4365  0.0842  0.0657
   75SLPC   H5X 6749   3.229   5.205   7.393  0.1529  0.0284  0.0598
   75SLPC   H5Y 6750   3.280   5.056   7.286 -0.2026 -1.4439  0.9514
   75SLPC   C36 6751   3.253   5.001   7.487 -0.0510 -0.4931 -0.1801
   75SLPC   H6X 6752   3.232   4.896   7.456 -2.2838 -0.2476  0.3599
   75SLPC   H6Y 6753   3.177   5.023   7.565 -0.1047 -2.8750  0.5157
   75SLPC   C37 6754   3.398   5.032   7.531  0.2473 -0.4926 -0.4960
   75SLPC   H7X 6755   3.410   5.141   7.546  0.5475 -0.5841 -0.0425
   75SLPC   H7Y 6756   3.470   4.987   7.459  1.4039 -0.3719  0.5594
   75SLPC   C38 6757   3.445   4.950   7.654 -0.5928 -0.6655  0.3872
   75SLPC   H8X 6758   3.500   4.859   7.622 -1.8538 -1.5747  0.6826
   75SLPC   H8Y 6759   3.351   4.914   7.703 -0.3946 -1.5922  0.1104
   75SLPC   C39 6760   3.537   5.027   7.752  0.0445  0.4073  0.2203
   75SLPC   H9X 6761   3.493   5.121   7.790 -0.8669  0.4574 -0.9068
   75SLPC   H9Y 6762   3.625   5.057   7.691 -0.3930 -1.5889 -1.5065
   75SLPC  C310 6763   3.585   4.937   7.869 -0.6024  0.4885 -1.0131
   75SLPC  H10X 6764   3.638   4.854   7.818 -0.1293  0.2703 -0.1805
   75SLPC  H10Y 6765   3.494   4.901   7.922  0.0365 -2.4141 -1.7094
   75SLPC  C311 6766   3.682   5.009   7.959 -0.2829 -0.2744  0.0762
   75SLPC  H11X 6767   3.714   5.102   7.908 -1.6333  0.7599  1.0449
   75SLPC  H11Y 6768   3.761   4.933   7.978 -0.9824 -0.9906  0.1696
   75SLPC  C312 6769   3.617   5.053   8.093 -0.1756 -0.3411 -0.1116
   75SLPC  H12X 6770   3.572   4.962   8.139 -0.2392  0.2100  0.9482
   75SLPC  H12Y 6771   3.548   5.139   8.100  2.9541  2.3288  0.3231
   75SLPC  C313 6772   3.723   5.093   8.205  0.0264  0.3061  0.5416
   75SLPC  H13X 6773   3.771   5.186   8.170  0.9158 -0.4913 -0.4210
   75SLPC  H13Y 6774   3.800   5.013   8.211 -0.1888 -0.1226 -1.5455
   75SLPC  C314 6775   3.659   5.110   8.343  0.2668 -0.7870 -0.3378
   75SLPC  H14X 6776   3.635   5.013   8.391  1.6778 -0.4952  1.0232
   75SLPC  H14Y 6777   3.565   5.165   8.320  0.7791 -0.3027 -1.3373
   75SLPC  C315 6778   3.752   5.181   8.446  0.1557 -0.4103  0.1215
   75SLPC  H15X 6779   3.787   5.279   8.408 -2.1144  0.0412 -0.9567
   75SLPC  H15Y 6780   3.847   5.124   8.456  1.6255  1.7246 -0.9619
   75SLPC  C316 6781   3.684   5.191   8.589 -0.4181 -0.4039 -0.1089
   75SLPC  H16X 6782   3.774   5.200   8.653  1.0797  1.4287 -2.2915
   75SLPC  H16Y 6783   3.612   5.112   8.620 -0.7147 -2.0301 -4.2915
   75SLPC  C317 6784   3.612   5.324   8.609 -0.8670 -1.0970 -0.1011
   75SLPC  H17X 6785   3.537   5.327   8.527 -3.2696 -1.7222  1.9450
   75SLPC  H17Y 6786   3.676   5.414   8.594  0.6075 -1.7914  1.5923
   75SLPC  C318 6787   3.545   5.339   8.744 -0.1024  0.3468  0.1875
   75SLPC  H18X 6788   3.466   5.262   8.759 -1.4949  1.6723 -0.0277
   75SLPC  H18Y 6789   3.498   5.439   8.755 -0.2506  0.2640  0.3094
   75SLPC  H18Z 6790   3.620   5.329   8.825  1.9085 -0.2692 -1.6649
   76SLPC     N 6791   6.093   3.283   6.439  0.5929  0.1789  0.1586
   76SLPC   C13 6792   6.188   3.315   6.552  0.3305 -0.1984 -1.0723
   76SLPC  H13A 6793   6.134   3.374   6.625  0.9502  0.1905 -0.9158
   76SLPC  H13B 6794   6.216   3.222   6.601 -1.2372 -0.2770 -0.2531
   76SLPC  H13C 6795   6.269   3.377   6.517  0.4900 -0.4576 -1.1718
   76SLPC   C14 6796   6.181   3.210   6.341 -0.4226 -0.8458  0.4971
   76SLPC  H14A 6797   6.200   3.111   6.379 -1.3259 -1.5637 -0.8468
   76SLPC  H14B 6798   6.139   3.199   6.242 -1.3900 -0.7883  0.8957
   76SLPC  H14C 6799   6.279   3.255   6.331 -1.1896  0.6159 -0.7843
   76SLPC   C15 6800   6.031   3.402   6.376  0.4720 -0.0120  0.6880
   76SLPC  H15A 6801   5.957   3.448   6.440  0.1312 -0.1369  0.3885
   76SLPC  H15B 6802   6.108   3.476   6.357  0.6740 -0.4051 -0.0678
   76SLPC  H15C 6803   5.983   3.382   6.282 -5.0769 -1.0427  3.3394
   76SLPC   C12 6804   5.980   3.187   6.494 -0.3951  0.5207  0.4905
   76SLPC  H12A 6805   5.930   3.238   6.575 -1.4499  0.4761 -0.1130
   76SLPC  H12B 6806   6.027   3.096   6.529 -0.6335 -0.1549 -0.9157
   76SLPC   C11 6807   5.864   3.143   6.395 -0.5954 -0.3079 -0.3298
   76SLPC  H11A 6808   5.799   3.229   6.371  0.2935  0.2311 -0.8465
   76SLPC  H11B 6809   5.788   3.083   6.450 -1.9665  0.9381 -0.8038
   76SLPC     P 6810   5.931   2.923   6.259  0.2196  0.3591  0.4102
   76SLPC   O13 6811   5.798   2.866   6.282  0.0817 -0.6660  0.1586
   76SLPC   O14 6812   6.003   2.872   6.140  0.1298 -0.5831 -0.4294
   76SLPC   O12 6813   5.917   3.083   6.278  0.3588  0.1812  0.1091
   76SLPC   O11 6814   6.029   2.891   6.375 -0.8676 -0.9154 -0.5490
   76SLPC    C1 6815   6.100   2.766   6.374  0.1126 -0.0466 -0.2903
   76SLPC    HA 6816   6.145   2.735   6.277  0.2076 -0.3077 -0.1636
   76SLPC    HB 6817   6.184   2.780   6.445 -0.2495  2.7830 -0.2664
   76SLPC    C2 6818   6.015   2.641   6.420 -0.0323  0.3398 -0.2554
   76SLPC    HS 6819   5.982   2.585   6.330  0.0581  3.1047 -2.0967
   76SLPC   O21 6820   5.897   2.677   6.492  0.0614 -0.0100  0.0027
   76SLPC   C21 6821   5.796   2.579   6.494  0.3536 -0.5274  0.0801
   76SLPC   O22 6822   5.804   2.475   6.433 -0.3009  0.1140  0.4263
   76SLPC   C22 6823   5.683   2.624   6.590 -0.2760 -0.8096  0.3880
   76SLPC   H2R 6824   5.706   2.725   6.629  2.7223 -0.4434 -1.9167
   76SLPC   H2S 6825   5.602   2.648   6.518  0.5466  0.8122 -0.0513
   76SLPC    C3 6826   6.096   2.539   6.501 -0.0790  0.2921  0.6169
   76SLPC    HX 6827   6.188   2.519   6.442  1.1823  2.3423  1.7895
   76SLPC    HY 6828   6.040   2.445   6.518  0.4071  0.1027  1.1907
   76SLPC   O31 6829   6.138   2.600   6.624 -1.1532 -0.6548 -0.1583
   76SLPC   C31 6830   6.192   2.508   6.709  0.9395 -0.5853 -0.0875
   76SLPC   O32 6831   6.213   2.392   6.681 -0.0841  0.3838  0.3435
   76SLPC   C32 6832   6.200   2.565   6.852 -0.6891  0.3951  0.5764
   76SLPC   H2X 6833   6.123   2.641   6.878 -0.2964  0.7413  0.7453
   76SLPC   H2Y 6834   6.292   2.628   6.859 -0.5514  0.2460  0.1147
   76SLPC   C23 6835   5.633   2.517   6.698  0.2414 -0.1648  0.4299
   76SLPC   H3R 6836   5.598   2.424   6.649  0.3877 -1.4366  2.5988
   76SLPC   H3S 6837   5.554   2.569   6.756 -1.9275 -2.6687 -0.0913
   76SLPC   C24 6838   5.738   2.458   6.792 -0.3651 -0.5001  0.2461
   76SLPC   H4R 6839   5.784   2.546   6.842 -2.3051  0.6781  0.0704
   76SLPC   H4S 6840   5.820   2.409   6.735 -2.5776 -2.2636 -1.5824
   76SLPC   C25 6841   5.676   2.360   6.890 -0.5632 -0.7163  0.0300
   76SLPC   H5R 6842   5.666   2.269   6.827 -2.1666  1.1280 -2.5834
   76SLPC   H5S 6843   5.573   2.390   6.917 -0.1143  0.8441  0.1173
   76SLPC   C26 6844   5.773   2.340   7.010  0.1650  0.5399 -0.3579
   76SLPC   H6R 6845   5.777   2.430   7.075  0.4754 -1.4266  2.4991
   76SLPC   H6S 6846   5.874   2.320   6.966  0.5750  2.7641 -0.5387
   76SLPC   C27 6847   5.731   2.213   7.094  0.0512 -0.5299  0.5454
   76SLPC   H7R 6848   5.712   2.136   7.017 -3.1836  1.0925 -0.4732
   76SLPC   H7S 6849   5.635   2.238   7.146  0.4376 -1.1216  1.5873
   76SLPC   C28 6850   5.840   2.192   7.202  0.6561 -0.1172 -0.4997
   76SLPC   H8R 6851   5.938   2.206   7.152 -0.6930  1.4249 -2.9133
   76SLPC   H8S 6852   5.830   2.270   7.281 -1.5555 -2.5760  1.8821
   76SLPC   C29 6853   5.819   2.057   7.268 -0.5710  0.3279  0.6371
   76SLPC   H9R 6854   5.808   1.969   7.203  0.2854 -0.0640  1.0024
   76SLPC  C210 6855   5.838   2.034   7.403  0.1518 -0.2461  0.4666
   76SLPC  H10R 6856   5.842   1.927   7.430 -0.2017  0.4621  3.7784
   76SLPC  C211 6857   5.872   2.136   7.504 -1.2372  1.0666 -0.4467
   76SLPC  H11R 6858   5.779   2.157   7.562 -0.5337  0.4947  0.9326
   76SLPC  H11S 6859   5.910   2.233   7.464  0.7805  0.7882  0.6829
   76SLPC  C212 6860   5.969   2.072   7.604  0.0420 -0.1007 -0.1983
   76SLPC  H12R 6861   6.071   2.095   7.570 -0.6943  0.6352 -2.0822
   76SLPC  C213 6862   5.948   2.026   7.727  0.0253 -0.5118  0.0340
   76SLPC  H13R 6863   6.040   1.997   7.782 -1.4575 -0.6959  2.5759
   76SLPC  C214 6864   5.817   2.013   7.796  0.5708  0.2082 -0.0961
   76SLPC  H14R 6865   5.804   1.910   7.834  1.7180  0.1338  0.1209
   76SLPC  H14S 6866   5.731   2.038   7.730  2.2513  2.5037 -1.5641
   76SLPC  C215 6867   5.802   2.113   7.910  0.2381  0.0349  0.8780
   76SLPC  H15R 6868   5.696   2.109   7.942  0.2308 -0.6673  0.7916
   76SLPC  H15S 6869   5.833   2.212   7.871 -0.5422 -0.1100 -0.1422
   76SLPC  C216 6870   5.883   2.079   8.038  0.2435  0.1757  0.3743
   76SLPC  H16R 6871   5.904   2.178   8.085 -3.3553  0.4381  1.7507
   76SLPC  H16S 6872   5.967   2.007   8.023 -1.5577 -2.3136  1.5937
   76SLPC  C217 6873   5.788   2.016   8.136 -0.1025  0.2691  0.1620
   76SLPC  H17R 6874   5.760   1.915   8.101 -2.1126  1.5572 -2.2283
   76SLPC  H17S 6875   5.692   2.071   8.130 -1.3228 -1.9016 -1.7885
   76SLPC  C218 6876   5.832   2.015   8.279 -0.2466  0.0043  0.2766
   76SLPC  H18R 6877   5.745   1.967   8.329  0.2291 -0.5489  0.5983
   76SLPC  H18S 6878   5.846   2.121   8.307  0.0535  0.4176 -1.3381
   76SLPC  H18T 6879   5.921   1.951   8.301  0.5747  0.6235 -1.1484
   76SLPC   C33 6880   6.201   2.453   6.958 -0.0164 -0.0154  0.1148
   76SLPC   H3X 6881   6.273   2.372   6.931 -0.2605 -1.4864  3.4104
   76SLPC   H3Y 6882   6.106   2.398   6.976 -0.3533  1.1738  2.3085
   76SLPC   C34 6883   6.241   2.513   7.097  0.3978 -0.3170  0.7076
   76SLPC   H4X 6884   6.177   2.602   7.114  1.5151  0.5465  0.4812
   76SLPC   H4Y 6885   6.346   2.548   7.097  0.6016 -0.9027  1.1607
   76SLPC   C35 6886   6.229   2.413   7.207  0.7192  0.6546  0.1501
   76SLPC   H5X 6887   6.304   2.330   7.202 -0.6276 -0.8486  2.7647
   76SLPC   H5Y 6888   6.130   2.362   7.211  1.4599 -0.8241  3.5369
   76SLPC   C36 6889   6.245   2.478   7.349 -0.1989 -0.6548 -0.3633
   76SLPC   H6X 6890   6.167   2.557   7.341  1.3745  1.1028  0.8354
   76SLPC   H6Y 6891   6.344   2.528   7.360  1.9550 -4.6766  0.2672
   76SLPC   C37 6892   6.221   2.383   7.471 -0.5379  0.3602  0.5010
   76SLPC   H7X 6893   6.294   2.299   7.474 -0.0852  0.7657  1.0597
   76SLPC   H7Y 6894   6.122   2.336   7.452  0.1642 -1.2082  0.6246
   76SLPC   C38 6895   6.240   2.458   7.605  0.8824  1.1307 -0.0809
   76SLPC   H8X 6896   6.159   2.530   7.631 -2.3459 -3.3521  4.0888
   76SLPC   H8Y 6897   6.336   2.513   7.596  1.6491 -0.1599 -0.0174
   76SLPC   C39 6898   6.245   2.371   7.729  0.8150  0.7456  0.9429
   76SLPC   H9X 6899   6.317   2.289   7.707 -0.8126 -0.4379 -0.2161
   76SLPC   H9Y 6900   6.142   2.329   7.733  0.8709  0.0950 -1.9131
   76SLPC  C310 6901   6.289   2.439   7.852  0.0197 -0.4954  0.0218
   76SLPC  H10X 6902   6.251   2.542   7.845  1.4744  0.1804  1.3234
   76SLPC  H10Y 6903   6.398   2.461   7.858 -0.4180  1.4320  1.9465
   76SLPC  C311 6904   6.249   2.372   7.978  0.6173 -0.7624  0.1141
   76SLPC  H11X 6905   6.290   2.273   8.009  0.9195 -0.2156  1.5575
   76SLPC  H11Y 6906   6.139   2.360   7.978  0.0251  3.1870 -1.2133
   76SLPC  C312 6907   6.268   2.466   8.103 -0.5181 -0.1123 -0.4424
   76SLPC  H12X 6908   6.225   2.563   8.070 -0.5044 -0.7261 -2.3996
   76SLPC  H12Y 6909   6.377   2.480   8.114 -0.2870  0.5080 -2.8284
   76SLPC  C313 6910   6.215   2.405   8.236 -0.3435  0.3265  0.5414
   76SLPC  H13X 6911   6.269   2.312   8.261 -1.8455 -0.5388  0.6947
   76SLPC  H13Y 6912   6.106   2.387   8.223  0.1012 -1.8901 -0.5428
   76SLPC  C314 6913   6.219   2.504   8.354  0.4795 -0.5182 -0.0199
   76SLPC  H14X 6914   6.182   2.604   8.322  1.7324  0.0780  0.3303
   76SLPC  H14Y 6915   6.324   2.512   8.391  0.4150 -1.4575  0.3946
   76SLPC  C315 6916   6.134   2.469   8.473  0.4131  0.8184 -0.4506
   76SLPC  H15X 6917   6.169   2.381   8.532 -0.6817  0.6772  0.0168
   76SLPC  H15Y 6918   6.035   2.443   8.430  0.9830 -0.5879 -1.0002
   76SLPC  C316 6919   6.105   2.583   8.565  0.6753 -0.0408 -0.0132
   76SLPC  H16X 6920   6.067   2.668   8.505 -0.5566  0.3126  1.2054
   76SLPC  H16Y 6921   6.202   2.606   8.613 -0.5823 -0.4255  2.9786
   76SLPC  C317 6922   6.007   2.567   8.685 -0.0156  0.5654 -0.4110
   76SLPC  H17X 6923   6.024   2.650   8.756  0.8706  0.6570 -0.7269
   76SLPC  H17Y 6924   6.027   2.469   8.734  2.0572  0.8259 -0.6430
   76SLPC  C318 6925   5.856   2.556   8.637  0.0572  0.0150 -0.3763
   76SLPC  H18X 6926   5.776   2.501   8.690 -1.6163  0.8426 -1.9247
   76SLPC  H18Y 6927   5.843   2.530   8.530 -1.2308  1.4917 -0.6123
   76SLPC  H18Z 6928   5.808   2.656   8.646  0.6182  0.1084  2.7611
   77SLPC     N 6929   2.215   3.473   6.466  0.7522  0.3595 -0.2033
   77SLPC   C13 6930   2.225   3.325   6.421  0.1366  0.1920 -0.5675
   77SLPC  H13A 6931   2.328   3.296   6.436 -0.1982  0.0769  1.9193
   77SLPC  H13B 6932   2.164   3.254   6.474  4.0007 -1.8864  1.5256
   77SLPC  H13C 6933   2.199   3.317   6.317 -2.7250 -1.5494  0.1899
   77SLPC   C14 6934   2.073   3.504   6.425 -0.0823  0.7366 -0.1606
   77SLPC  H14A 6935   2.042   3.606   6.443  1.5877  0.9275  2.1659
   77SLPC  H14B 6936   2.053   3.479   6.322 -0.5632  0.8832 -0.1065
   77SLPC  H14C 6937   2.003   3.450   6.486 -0.4343  0.8703 -0.4455
   77SLPC   C15 6938   2.304   3.559   6.380  0.1799 -0.2619 -0.0651
   77SLPC  H15A 6939   2.258   3.657   6.382 -2.4372 -1.2099 -3.4170
   77SLPC  H15B 6940   2.402   3.555   6.424  0.5518 -0.4312 -0.8895
   77SLPC  H15C 6941   2.306   3.528   6.277  1.2197  1.4248 -0.6003
   77SLPC   C12 6942   2.238   3.486   6.610  0.0841 -0.0761 -0.0444
   77SLPC  H12A 6943   2.155   3.447   6.668 -0.4002  0.4364 -0.3823
   77SLPC  H12B 6944   2.235   3.590   6.638 -0.5605 -0.2086  0.4046
   77SLPC   C11 6945   2.364   3.427   6.674  0.6315 -0.2232 -0.2767
   77SLPC  H11A 6946   2.367   3.318   6.651 -0.3162 -0.2738 -0.2256
   77SLPC  H11B 6947   2.353   3.426   6.784 -1.7155  0.8687 -0.4380
   77SLPC     P 6948   2.512   3.632   6.663 -0.2783  0.0474  0.2481
   77SLPC   O13 6949   2.615   3.679   6.563  0.4383 -0.1788  0.0647
   77SLPC   O14 6950   2.393   3.722   6.690  0.2257  0.3441 -0.3496
   77SLPC   O12 6951   2.478   3.488   6.626  0.2770  0.2464  0.3085
   77SLPC   O11 6952   2.588   3.609   6.801 -0.4078 -0.1784  0.0303
   77SLPC    C1 6953   2.688   3.515   6.805  0.0499  0.9671 -0.4422
   77SLPC    HA 6954   2.646   3.413   6.791 -0.1246  0.6552  1.9726
   77SLPC    HB 6955   2.769   3.535   6.731  0.1059  0.7597 -0.4379
   77SLPC    C2 6956   2.766   3.516   6.944  0.6314  0.3797  0.2370
   77SLPC    HS 6957   2.830   3.427   6.957 -0.5792 -0.8425 -1.6439
   77SLPC   O21 6958   2.664   3.527   7.048 -0.1985 -0.3864  0.4828
   77SLPC   C21 6959   2.604   3.416   7.069  0.4168 -0.8597 -0.3107
   77SLPC   O22 6960   2.634   3.311   7.020  0.2216  0.8622  0.4870
   77SLPC   C22 6961   2.493   3.446   7.169 -0.2931  0.5892  0.0064
   77SLPC   H2R 6962   2.427   3.527   7.133  2.3660  3.4396  1.1084
   77SLPC   H2S 6963   2.434   3.353   7.184 -0.6487  0.4601 -1.9575
   77SLPC    C3 6964   2.866   3.634   6.958 -0.0405  0.2196  0.8962
   77SLPC    HX 6965   2.811   3.730   6.953 -0.0397  0.2172  0.8500
   77SLPC    HY 6966   2.928   3.628   6.866 -3.1560 -0.7514 -1.2958
   77SLPC   O31 6967   2.934   3.637   7.088 -0.0671 -0.2074 -0.2235
   77SLPC   C31 6968   3.040   3.559   7.100  0.4815  0.3346 -0.3835
   77SLPC   O32 6969   3.082   3.493   7.010 -0.4396  0.3837 -0.2220
   77SLPC   C32 6970   3.086   3.553   7.249 -0.4080 -0.9860 -0.7217
   77SLPC   H2X 6971   3.192   3.518   7.245  0.5434  1.6416 -1.2971
   77SLPC   H2Y 6972   3.020   3.480   7.299 -0.4353  0.6013  1.7053
   77SLPC   C23 6973   2.543   3.497   7.300  0.7252  0.4221  0.1437
   77SLPC   H3R 6974   2.465   3.549   7.359 -0.2935 -1.7599  0.8100
   77SLPC   H3S 6975   2.625   3.571   7.287 -0.0505  1.3887  0.7117
   77SLPC   C24 6976   2.583   3.383   7.395  0.3038 -0.8199  0.7788
   77SLPC   H4R 6977   2.658   3.320   7.342  0.9235  3.0831 -3.6843
   77SLPC   H4S 6978   2.501   3.312   7.417  0.1673  0.0837  3.4852
   77SLPC   C25 6979   2.659   3.435   7.511  0.5720 -0.0590  0.0061
   77SLPC   H5R 6980   2.737   3.508   7.480 -0.6953  0.9594 -0.9160
   77SLPC   H5S 6981   2.711   3.348   7.556  0.8434  0.9392  1.6954
   77SLPC   C26 6982   2.569   3.488   7.617 -0.7012 -1.0179  0.1565
   77SLPC   H6R 6983   2.508   3.578   7.594  0.4818 -0.6562 -1.7569
   77SLPC   H6S 6984   2.634   3.527   7.698 -1.0362 -0.5296  0.1923
   77SLPC   C27 6985   2.471   3.382   7.671 -0.5428 -0.4603 -0.2782
   77SLPC   H7R 6986   2.501   3.276   7.679  1.5079  0.1916  1.4764
   77SLPC   H7S 6987   2.383   3.376   7.602 -0.2905 -0.2191 -0.6292
   77SLPC   C28 6988   2.426   3.425   7.812  0.1719  0.6343 -0.3901
   77SLPC   H8R 6989   2.332   3.373   7.843  0.8134 -1.0055 -1.0792
   77SLPC   H8S 6990   2.397   3.532   7.802  4.3970  2.3826  2.8301
   77SLPC   C29 6991   2.539   3.423   7.916  0.7844 -0.0667  0.4473
   77SLPC   H9R 6992   2.631   3.475   7.888  0.2653  1.4125  1.3641
   77SLPC  C210 6993   2.530   3.379   8.045 -0.0447 -0.2124  0.7439
   77SLPC  H10R 6994   2.623   3.394   8.102 -0.4165  2.1351  0.8150
   77SLPC  C211 6995   2.417   3.316   8.113 -0.2096  0.2602 -0.3694
   77SLPC  H11R 6996   2.458   3.234   8.177 -2.7790  0.1247  1.2541
   77SLPC  H11S 6997   2.356   3.257   8.042 -0.6641  0.0207  0.2170
   77SLPC  C212 6998   2.333   3.420   8.188 -0.2060  0.7797 -0.1715
   77SLPC  H12R 6999   2.357   3.525   8.167 -1.6684  1.0758 -0.4632
   77SLPC  C213 7000   2.233   3.374   8.275  0.0336  0.4052 -0.0699
   77SLPC  H13R 7001   2.165   3.446   8.322  0.5571 -0.4183  2.0247
   77SLPC  C214 7002   2.203   3.226   8.307 -0.1093  0.4976  0.2039
   77SLPC  H14R 7003   2.270   3.156   8.252  1.2966  0.4725  1.8524
   77SLPC  H14S 7004   2.100   3.198   8.277  0.4536 -1.3433 -0.1302
   77SLPC  C215 7005   2.212   3.190   8.457 -0.5059 -0.4164  0.3195
   77SLPC  H15R 7006   2.144   3.254   8.518  1.2873  0.7358  1.1854
   77SLPC  H15S 7007   2.310   3.213   8.504 -0.7513  1.7370 -0.1187
   77SLPC  C216 7008   2.167   3.050   8.485  0.1692  0.3654 -0.1880
   77SLPC  H16R 7009   2.240   2.993   8.423  0.0009 -1.1116  0.9193
   77SLPC  H16S 7010   2.063   3.046   8.447  0.3352  2.3736 -0.9862
   77SLPC  C217 7011   2.192   2.991   8.624  0.2740 -0.2182  0.3244
   77SLPC  H17R 7012   2.135   3.041   8.705 -0.5480 -0.9051  0.1818
   77SLPC  H17S 7013   2.298   3.011   8.650 -0.4969 -0.5779  4.3094
   77SLPC  C218 7014   2.178   2.836   8.634  0.5454 -0.0535 -0.2271
   77SLPC  H18R 7015   2.069   2.816   8.630  0.6759 -1.3629  1.4077
   77SLPC  H18S 7016   2.215   2.807   8.735 -0.0002  2.4741  0.7770
   77SLPC  H18T 7017   2.237   2.783   8.557  1.5888  0.2097  0.3659
   77SLPC   C33 7018   3.089   3.681   7.333 -0.0149  0.6059  0.3292
   77SLPC   H3X 7019   2.987   3.725   7.332 -0.2159  0.1971 -1.8361
   77SLPC   H3Y 7020   3.158   3.753   7.282  0.3801 -0.2138 -0.3199
   77SLPC   C34 7021   3.129   3.650   7.477 -0.3748 -0.1125 -0.0239
   77SLPC   H4X 7022   3.162   3.748   7.516 -0.0656  0.5728 -1.9323
   77SLPC   H4Y 7023   3.214   3.580   7.465 -0.6983 -0.3437 -1.0859
   77SLPC   C35 7024   3.021   3.596   7.570 -0.5193  0.7046  0.8001
   77SLPC   H5X 7025   2.974   3.514   7.510 -0.0590  0.1164  1.2285
   77SLPC   H5Y 7026   2.948   3.677   7.583 -1.7398 -0.6026  2.4204
   77SLPC   C36 7027   3.072   3.541   7.703 -0.1939 -0.1716 -0.0563
   77SLPC   H6X 7028   3.130   3.620   7.755  1.0943 -1.2160  0.1392
   77SLPC   H6Y 7029   3.139   3.454   7.687  0.0732  0.0247 -0.0109
   77SLPC   C37 7030   2.960   3.513   7.804  0.7372 -0.5116  0.2022
   77SLPC   H7X 7031   2.914   3.422   7.760 -0.1034  0.5270 -1.1847
   77SLPC   H7Y 7032   2.879   3.590   7.797  0.2324 -1.0415  0.1187
   77SLPC   C38 7033   3.000   3.495   7.950 -0.8699  0.4205  0.1922
   77SLPC   H8X 7034   3.056   3.584   7.986  0.9143 -0.6833  0.2939
   77SLPC   H8Y 7035   3.082   3.420   7.960  0.6785  2.0692  0.4376
   77SLPC   C39 7036   2.878   3.462   8.036 -0.1770  0.0404 -0.0685
   77SLPC   H9X 7037   2.826   3.382   7.979 -1.0757  0.6043 -0.0565
   77SLPC   H9Y 7038   2.810   3.549   8.050  2.1418  1.5574  3.1380
   77SLPC  C310 7039   2.904   3.437   8.188 -0.2027 -0.4081  0.0231
   77SLPC  H10X 7040   2.994   3.373   8.195 -1.4298 -2.2389 -0.1292
   77SLPC  H10Y 7041   2.818   3.374   8.221  0.0235 -0.2072  1.0143
   77SLPC  C311 7042   2.923   3.565   8.270  0.5475 -0.2810 -0.3567
   77SLPC  H11X 7043   2.835   3.633   8.267 -0.9538 -2.1777 -1.2136
   77SLPC  H11Y 7044   2.998   3.625   8.214  0.2455 -0.8823 -1.4332
   77SLPC  C312 7045   2.974   3.539   8.409  0.5020 -0.1392 -0.3295
   77SLPC  H12X 7046   3.002   3.634   8.459 -0.6184 -0.5371  1.1008
   77SLPC  H12Y 7047   3.075   3.491   8.411  0.9220  0.7438  1.1994
   77SLPC  C313 7048   2.879   3.451   8.493 -0.0447  0.0852  0.1599
   77SLPC  H13X 7049   2.934   3.446   8.590  1.1605 -0.4224 -0.5350
   77SLPC  H13Y 7050   2.851   3.346   8.469  0.5924 -0.3959  1.4226
   77SLPC  C314 7051   2.734   3.512   8.527  0.2616 -0.1200  0.3475
   77SLPC  H14X 7052   2.683   3.526   8.429 -2.4154  0.3922  1.7193
   77SLPC  H14Y 7053   2.755   3.619   8.552  1.0355  0.7510 -3.4192
   77SLPC  C315 7054   2.659   3.438   8.638 -0.3157 -0.3733 -0.4157
   77SLPC  H15X 7055   2.718   3.437   8.732 -0.8920  0.2166 -0.0378
   77SLPC  H15Y 7056   2.646   3.329   8.621  0.9550 -0.9702  2.0919
   77SLPC  C316 7057   2.525   3.496   8.669 -0.6863 -0.0628  0.0832
   77SLPC  H16X 7058   2.474   3.504   8.571  4.1117 -0.1185 -2.6802
   77SLPC  H16Y 7059   2.542   3.597   8.712 -0.0364  0.2007 -0.7790
   77SLPC  C317 7060   2.435   3.423   8.768  0.3279 -0.2605  0.2063
   77SLPC  H17X 7061   2.474   3.437   8.871  0.4634  0.5042  0.0543
   77SLPC  H17Y 7062   2.437   3.316   8.735  0.7263 -0.3985  0.6698
   77SLPC  C318 7063   2.287   3.467   8.763  0.3060  0.0545 -0.5151
   77SLPC  H18X 7064   2.244   3.472   8.660 -0.5550 -2.6318 -0.3606
   77SLPC  H18Y 7065   2.281   3.565   8.815  0.8973 -0.7129  1.0539
   77SLPC  H18Z 7066   2.219   3.403   8.822  0.6630 -0.5473 -0.7549
   78SLPC     N 7067   1.876   4.187   6.137  0.0728  0.5627  0.0372
   78SLPC   C13 7068   1.907   4.321   6.193  0.4114 -0.0517 -0.2353
   78SLPC  H13A 7069   1.878   4.337   6.296  1.3805  2.3772 -0.2578
   78SLPC  H13B 7070   2.014   4.337   6.187  0.4027  0.1644  0.1462
   78SLPC  H13C 7071   1.859   4.403   6.142 -0.5634  0.6776  1.7315
   78SLPC   C14 7072   1.969   4.084   6.192  0.0831 -0.2704 -0.3618
   78SLPC  H14A 7073   1.980   4.000   6.125 -2.8741 -0.0315 -1.3057
   78SLPC  H14B 7074   2.064   4.132   6.210  1.0356 -2.5567  1.0842
   78SLPC  H14C 7075   1.936   4.045   6.286  2.3205 -0.0750  0.5621
   78SLPC   C15 7076   1.914   4.198   5.995  0.6013 -0.1691  0.5200
   78SLPC  H15A 7077   1.991   4.267   5.965 -0.6323  0.0256 -2.6963
   78SLPC  H15B 7078   1.946   4.104   5.951  1.6024 -0.1042  1.0840
   78SLPC  H15C 7079   1.829   4.237   5.941  2.3875  1.2436 -1.4379
   78SLPC   C12 7080   1.741   4.142   6.159 -0.1991 -0.4351 -0.0690
   78SLPC  H12A 7081   1.741   4.038   6.129  0.5058 -0.5709  0.3875
   78SLPC  H12B 7082   1.671   4.194   6.095 -0.1805 -0.5049 -0.1466
   78SLPC   C11 7083   1.686   4.148   6.307 -0.6823 -0.1558 -0.2626
   78SLPC  H11A 7084   1.580   4.116   6.315 -1.4697  2.4580  0.9088
   78SLPC  H11B 7085   1.698   4.253   6.342  4.1648 -0.8919  0.9749
   78SLPC     P 7086   1.830   4.093   6.529 -0.3467 -0.1786  0.2945
   78SLPC   O13 7087   1.806   3.976   6.611  0.5245  0.4686 -0.6995
   78SLPC   O14 7088   1.969   4.134   6.504  0.9185 -0.2415  0.2366
   78SLPC   O12 7089   1.767   4.056   6.389 -0.8122 -0.3691  0.8176
   78SLPC   O11 7090   1.747   4.215   6.592  0.3426  0.0199 -0.5528
   78SLPC    C1 7091   1.612   4.200   6.631  0.1515  0.1705 -0.7132
   78SLPC    HA 7092   1.551   4.281   6.584 -1.2156 -0.0059  0.6840
   78SLPC    HB 7093   1.569   4.101   6.607  0.4033 -0.9220  2.8210
   78SLPC    C2 7094   1.596   4.218   6.789  0.8630  0.1369  0.0922
   78SLPC    HS 7095   1.497   4.261   6.815  1.7659  3.0598 -0.9121
   78SLPC   O21 7096   1.707   4.294   6.835  0.9750 -0.0258 -0.2909
   78SLPC   C21 7097   1.699   4.421   6.795  0.2177  0.0848 -0.0038
   78SLPC   O22 7098   1.604   4.471   6.743  0.0328  0.3600  0.2891
   78SLPC   C22 7099   1.816   4.500   6.855  1.0125  0.7713 -0.5906
   78SLPC   H2R 7100   1.903   4.441   6.820  0.4230 -0.8869  0.5759
   78SLPC   H2S 7101   1.812   4.603   6.815  1.8309  2.5525  3.3697
   78SLPC    C3 7102   1.601   4.074   6.843 -0.5755  0.1861  0.1148
   78SLPC    HX 7103   1.706   4.043   6.824 -0.7242 -0.4288  0.2993
   78SLPC    HY 7104   1.522   4.011   6.795 -0.7331  0.6160 -0.1975
   78SLPC   O31 7105   1.569   4.080   6.986 -0.1833 -0.4585  0.3379
   78SLPC   C31 7106   1.654   4.085   7.083 -0.0997  0.0791  0.5873
   78SLPC   O32 7107   1.774   4.107   7.073 -0.7031 -0.1423  0.0965
   78SLPC   C32 7108   1.575   4.050   7.213 -1.2070 -0.3212  0.1939
   78SLPC   H2X 7109   1.524   3.954   7.190 -1.8532  0.3328 -1.2515
   78SLPC   H2Y 7110   1.494   4.125   7.227 -2.0499 -1.3689  1.0880
   78SLPC   C23 7111   1.815   4.494   7.015 -0.4221  0.0721 -0.9618
   78SLPC   H3R 7112   1.912   4.534   7.052 -1.1850 -0.8358  2.4159
   78SLPC   H3S 7113   1.804   4.387   7.043 -0.7058  0.2083 -0.5335
   78SLPC   C24 7114   1.692   4.558   7.084  0.2094  0.8087 -0.0358
   78SLPC   H4R 7115   1.614   4.480   7.069  0.3045  0.2800  2.0036
   78SLPC   H4S 7116   1.665   4.644   7.019 -0.0138 -1.1060 -2.6451
   78SLPC   C25 7117   1.709   4.581   7.233 -0.5671 -0.7320  0.0257
   78SLPC   H5R 7118   1.625   4.642   7.272  1.9435  2.2328  1.2264
   78SLPC   H5S 7119   1.798   4.645   7.249 -0.9517  0.2296 -1.5136
   78SLPC   C26 7120   1.704   4.461   7.324 -0.5133  0.1846 -0.7844
   78SLPC   H6R 7121   1.789   4.393   7.302 -0.9625 -0.3379 -0.9289
   78SLPC   H6S 7122   1.607   4.408   7.314 -0.5395 -0.0954  0.7272
   78SLPC   C27 7123   1.723   4.505   7.470 -0.5552  0.5347 -0.1616
   78SLPC   H7R 7124   1.824   4.553   7.475  0.0512 -0.8367  1.6206
   78SLPC   H7S 7125   1.741   4.415   7.531  0.5264 -0.0460 -1.2916
   78SLPC   C28 7126   1.620   4.594   7.543  0.2303 -0.2917  0.3376
   78SLPC   H8R 7127   1.620   4.689   7.485  1.5967  0.7381  1.9180
   78SLPC   H8S 7128   1.644   4.609   7.651 -1.2717  0.7560  0.5530
   78SLPC   C29 7129   1.481   4.542   7.553  0.1354  0.0015 -0.8989
   78SLPC   H9R 7130   1.427   4.545   7.457  1.5059  0.1826 -1.6947
   78SLPC  C210 7131   1.415   4.519   7.671  0.1253 -0.4413  0.3363
   78SLPC  H10R 7132   1.306   4.507   7.667  0.2744 -1.5769 -1.9536
   78SLPC  C211 7133   1.453   4.550   7.815  0.2209  0.7570 -0.2598
   78SLPC  H11R 7134   1.358   4.512   7.859  0.5772 -0.1700 -0.2793
   78SLPC  H11S 7135   1.457   4.661   7.819 -0.3885  0.7861 -0.3183
   78SLPC  C212 7136   1.578   4.489   7.871 -0.1412  0.3308 -0.0683
   78SLPC  H12R 7137   1.659   4.458   7.803  0.4441  1.1421  0.2456
   78SLPC  C213 7138   1.599   4.484   8.006  0.2988 -0.0686 -0.2562
   78SLPC  H13R 7139   1.694   4.455   8.054 -0.1097  1.1614  1.3973
   78SLPC  C214 7140   1.513   4.536   8.114 -0.9157  0.1433  0.1360
   78SLPC  H14R 7141   1.419   4.580   8.075  0.0541  1.2468 -0.9899
   78SLPC  H14S 7142   1.559   4.620   8.170 -2.2772  0.9337  0.1094
   78SLPC  C215 7143   1.451   4.421   8.214 -0.4031  0.5967  0.4901
   78SLPC  H15R 7144   1.536   4.372   8.266  0.5430  1.8819  0.2127
   78SLPC  H15S 7145   1.390   4.365   8.141 -1.9848  2.4483  0.3074
   78SLPC  C216 7146   1.356   4.477   8.317 -0.2678 -0.3363 -1.0968
   78SLPC  H16R 7147   1.307   4.570   8.281 -1.6678 -1.1691 -1.3975
   78SLPC  H16S 7148   1.422   4.489   8.405  1.9816 -2.4306 -2.3655
   78SLPC  C217 7149   1.243   4.369   8.347 -0.0903 -0.3611 -0.2275
   78SLPC  H17R 7150   1.293   4.296   8.414 -0.3193 -1.6017 -1.3778
   78SLPC  H17S 7151   1.206   4.329   8.251  0.6818 -2.9282  0.4567
   78SLPC  C218 7152   1.135   4.431   8.431  0.5742 -0.1934 -0.3482
   78SLPC  H18R 7153   1.063   4.365   8.483 -2.5689  1.3144 -2.4886
   78SLPC  H18S 7154   1.072   4.502   8.374 -1.2611 -1.6532 -0.2338
   78SLPC  H18T 7155   1.196   4.482   8.509 -0.6862 -0.5559  0.9309
   78SLPC   C33 7156   1.659   4.033   7.338  0.1876 -0.8410  0.3081
   78SLPC   H3X 7157   1.725   4.121   7.354 -0.8388  0.2161 -1.0813
   78SLPC   H3Y 7158   1.722   3.942   7.338  0.7880 -0.4670 -1.6522
   78SLPC   C34 7159   1.575   4.024   7.467 -0.0805 -0.2201 -0.9042
   78SLPC   H4X 7160   1.493   3.950   7.459 -0.6936 -0.3553  3.7545
   78SLPC   H4Y 7161   1.526   4.122   7.486 -1.7377 -1.0343 -0.7779
   78SLPC   C35 7162   1.658   3.994   7.592 -0.4437 -0.5309  0.1539
   78SLPC   H5X 7163   1.749   4.057   7.587 -1.8421  1.7469  1.5753
   78SLPC   H5Y 7164   1.706   3.894   7.588  3.0194  0.8697  1.7791
   78SLPC   C36 7165   1.578   4.009   7.720 -0.0157  0.5595 -0.6930
   78SLPC   H6X 7166   1.497   3.934   7.714 -0.7910  1.4581 -1.9838
   78SLPC   H6Y 7167   1.521   4.104   7.709  0.3985  1.0327  0.9626
   78SLPC   C37 7168   1.657   4.011   7.851  0.0263 -0.2585 -0.2741
   78SLPC   H7X 7169   1.713   4.107   7.853 -0.3378 -0.0580  1.0640
   78SLPC   H7Y 7170   1.727   3.926   7.859 -1.2429 -1.1907  1.6936
   78SLPC   C38 7171   1.561   4.022   7.976 -0.7364  0.8071 -0.3427
   78SLPC   H8X 7172   1.469   3.969   7.943 -1.0030  1.0843 -0.0548
   78SLPC   H8Y 7173   1.537   4.130   7.982 -2.6638  0.5841 -2.4986
   78SLPC   C39 7174   1.611   3.965   8.110  0.3370 -0.0056  0.8522
   78SLPC   H9X 7175   1.651   3.863   8.092 -1.9594 -1.2398  2.1834
   78SLPC   H9Y 7176   1.524   3.958   8.179 -1.4032 -1.5875 -1.3244
   78SLPC  C310 7177   1.722   4.045   8.170  0.9946 -1.1387  0.2417
   78SLPC  H10X 7178   1.712   4.156   8.164  0.6888 -1.1436  0.5615
   78SLPC  H10Y 7179   1.813   4.030   8.110  0.1042 -0.2535 -1.4059
   78SLPC  C311 7180   1.743   4.015   8.321  0.9000 -0.0511  1.2190
   78SLPC  H11X 7181   1.835   4.065   8.358  1.5732  0.9574 -1.5796
   78SLPC  H11Y 7182   1.762   3.906   8.333 -0.7062 -0.3738  1.1071
   78SLPC  C312 7183   1.627   4.069   8.404 -0.0225  0.7556 -0.3346
   78SLPC  H12X 7184   1.526   4.036   8.371 -0.6235 -0.6013  2.5526
   78SLPC  H12Y 7185   1.618   4.179   8.393  0.4319  0.7268 -1.0978
   78SLPC  C313 7186   1.630   4.035   8.554 -0.1493  0.3056 -0.4548
   78SLPC  H13X 7187   1.721   4.076   8.603  1.8842 -3.5631 -0.5955
   78SLPC  H13Y 7188   1.661   3.928   8.565 -0.3954  0.3972  1.5911
   78SLPC  C314 7189   1.497   4.047   8.625  0.2796  0.2355 -0.4526
   78SLPC  H14X 7190   1.517   3.995   8.721  0.6796  2.1585  0.5402
   78SLPC  H14Y 7191   1.405   4.003   8.581 -1.3501  1.0359  1.9924
   78SLPC  C315 7192   1.456   4.190   8.665 -0.7665 -0.0443 -0.0945
   78SLPC  H15X 7193   1.428   4.239   8.569  0.4472 -0.3894 -0.6469
   78SLPC  H15Y 7194   1.549   4.237   8.702  0.6640 -1.7853 -1.2858
   78SLPC  C316 7195   1.346   4.189   8.770  0.4611  0.5051 -0.2604
   78SLPC  H16X 7196   1.372   4.159   8.873 -2.6772 -2.0291 -0.0350
   78SLPC  H16Y 7197   1.268   4.115   8.743 -2.1167  3.0288 -0.2551
   78SLPC  C317 7198   1.283   4.327   8.794  0.1533 -0.4402  0.2374
   78SLPC  H17X 7199   1.192   4.320   8.858  0.5718  0.2860  0.9307
   78SLPC  H17Y 7200   1.244   4.371   8.700  1.5625 -0.4028 -0.3558
   78SLPC  C318 7201   1.385   4.433   8.848  0.2294  0.1244  0.5681
   78SLPC  H18X 7202   1.346   4.535   8.871  3.9442  2.5613 -2.6457
   78SLPC  H18Y 7203   1.460   4.452   8.768  0.2852 -0.8272  0.3884
   78SLPC  H18Z 7204   1.416   4.387   8.944 -1.6166 -0.2113  1.0403
   79SLPC     N 7205   2.557   4.771   6.574 -0.0153  0.1646  0.0739
   79SLPC   C13 7206   2.664   4.798   6.470  0.2236 -0.3545 -0.1363
   79SLPC  H13A 7207   2.685   4.904   6.475 -0.9892 -0.1165  0.2647
   79SLPC  H13B 7208   2.765   4.760   6.480  1.0420  1.4582 -0.9859
   79SLPC  H13C 7209   2.620   4.779   6.373  1.0177 -1.6084 -0.2795
   79SLPC   C14 7210   2.592   4.839   6.703 -0.0081 -0.2337 -0.1406
   79SLPC  H14A 7211   2.537   4.933   6.707 -2.0308 -1.3188 -0.9175
   79SLPC  H14B 7212   2.546   4.784   6.783  0.7745 -1.0177 -0.2133
   79SLPC  H14C 7213   2.697   4.835   6.728  0.3305  0.6301 -1.3131
   79SLPC   C15 7214   2.541   4.626   6.599  0.5482  0.3991  0.1162
   79SLPC  H15A 7215   2.632   4.573   6.625  0.6644  2.4931  5.0999
   79SLPC  H15B 7216   2.474   4.614   6.683  0.2496 -0.3970 -0.2202
   79SLPC  H15C 7217   2.500   4.571   6.515  1.0038 -0.0602  0.1909
   79SLPC   C12 7218   2.421   4.826   6.530 -0.6627 -0.2835 -0.8677
   79SLPC  H12A 7219   2.440   4.923   6.488  1.4182 -0.5310 -0.6010
   79SLPC  H12B 7220   2.350   4.836   6.611 -2.8451  0.8398 -2.8062
   79SLPC   C11 7221   2.337   4.750   6.427 -0.1296 -0.7141 -0.1849
   79SLPC  H11A 7222   2.400   4.704   6.347 -2.1332 -2.0908 -1.0574
   79SLPC  H11B 7223   2.266   4.818   6.375  3.4060  1.3047 -2.7921
   79SLPC     P 7224   2.159   4.647   6.583  0.5263  0.5495  0.1206
   79SLPC   O13 7225   2.097   4.515   6.608  0.3876 -0.4588 -0.1871
   79SLPC   O14 7226   2.207   4.715   6.705  0.1475  0.3042 -0.3664
   79SLPC   O12 7227   2.275   4.634   6.479  0.2019  0.1999  0.2692
   79SLPC   O11 7228   2.058   4.731   6.506  0.4543 -0.2705  0.6043
   79SLPC    C1 7229   2.037   4.871   6.528  0.3243 -0.0439  0.2394
   79SLPC    HA 7230   2.121   4.922   6.581 -0.2112  0.9106  0.2063
   79SLPC    HB 7231   2.031   4.918   6.428  0.2757 -2.1435 -0.7801
   79SLPC    C2 7232   1.911   4.896   6.619  0.1405  0.4772 -0.8155
   79SLPC    HS 7233   1.892   5.005   6.627  1.8800  0.9099 -1.9191
   79SLPC   O21 7234   1.939   4.828   6.751 -0.2841 -0.3680  0.6673
   79SLPC   C21 7235   2.007   4.892   6.838  0.0693 -0.1643 -0.1585
   79SLPC   O22 7236   2.064   5.001   6.829 -0.1456 -0.2727  0.0684
   79SLPC   C22 7237   1.990   4.816   6.971 -0.5509  0.0698 -0.1287
   79SLPC   H2R 7238   1.882   4.815   6.997 -0.8528  3.3777 -0.8913
   79SLPC   H2S 7239   2.044   4.720   6.955  0.0102  0.2418  0.6796
   79SLPC    C3 7240   1.791   4.828   6.558  0.2112  0.9045 -0.2155
   79SLPC    HX 7241   1.815   4.720   6.550 -1.8791  0.4243 -0.6405
   79SLPC    HY 7242   1.780   4.877   6.459 -1.4349  1.0465  0.0066
   79SLPC   O31 7243   1.671   4.856   6.640 -0.0849  0.4928  0.3681
   79SLPC   C31 7244   1.562   4.782   6.601 -0.5955  0.6878 -0.3830
   79SLPC   O32 7245   1.554   4.694   6.517 -0.0620 -0.8260 -0.6514
   79SLPC   C32 7246   1.444   4.811   6.702 -0.0482  0.4200 -0.0192
   79SLPC   H2X 7247   1.350   4.771   6.659  0.7615 -0.5227 -0.9608
   79SLPC   H2Y 7248   1.418   4.919   6.692 -1.6334 -0.1377 -3.0832
   79SLPC   C23 7249   2.060   4.879   7.094 -0.8507  0.2742  0.6561
   79SLPC   H3R 7250   1.992   4.963   7.120  0.2229  0.9212  1.4568
   79SLPC   H3S 7251   2.156   4.926   7.065 -0.1576 -0.5108  1.6525
   79SLPC   C24 7252   2.069   4.782   7.216  0.1089  0.9554 -0.2110
   79SLPC   H4R 7253   2.149   4.716   7.179 -0.9113 -0.5706  0.2224
   79SLPC   H4S 7254   1.984   4.710   7.216 -0.0119  1.0591 -2.1419
   79SLPC   C25 7255   2.093   4.850   7.349  0.1558  0.5634  0.4508
   79SLPC   H5R 7256   2.024   4.936   7.363 -0.7949  0.2716 -1.9412
   79SLPC   H5S 7257   2.199   4.884   7.340  0.4010 -0.4105 -0.5213
   79SLPC   C26 7258   2.062   4.749   7.462  0.4384  0.3641  0.5004
   79SLPC   H6R 7259   2.114   4.654   7.436 -0.1700 -0.3710  1.9044
   79SLPC   H6S 7260   1.955   4.721   7.471  0.6420  0.0441  2.1553
   79SLPC   C27 7261   2.107   4.805   7.595 -0.5456  0.8345  0.1350
   79SLPC   H7R 7262   2.082   4.911   7.615 -0.5017  0.3656  3.2603
   79SLPC   H7S 7263   2.218   4.807   7.592 -0.4836  0.5582  1.6089
   79SLPC   C28 7264   2.063   4.723   7.722 -0.3268 -0.0111  0.6247
   79SLPC   H8R 7265   2.145   4.732   7.796 -1.0046  0.3180  1.3430
   79SLPC   H8S 7266   2.081   4.618   7.690  0.1906  0.2880 -0.1021
   79SLPC   C29 7267   1.923   4.744   7.778 -0.5423  0.2744  0.1703
   79SLPC   H9R 7268   1.848   4.733   7.699 -0.1723 -1.2017 -0.0017
   79SLPC  C210 7269   1.893   4.759   7.910 -0.1056 -0.1779  0.1218
   79SLPC  H10R 7270   1.786   4.762   7.934 -1.1814 -1.6670 -3.7690
   79SLPC  C211 7271   1.980   4.777   8.027  0.7296  0.4342  0.1346
   79SLPC  H11R 7272   1.946   4.865   8.086  1.6853  1.1876 -0.4196
   79SLPC  H11S 7273   2.080   4.802   7.989  0.0115  1.0429 -1.4155
   79SLPC  C212 7274   1.986   4.648   8.108  0.1925  0.4548 -0.2478
   79SLPC  H12R 7275   2.066   4.580   8.076 -0.4504  0.0618 -1.0822
   79SLPC  C213 7276   1.919   4.619   8.220 -0.7534 -0.1883 -0.3283
   79SLPC  H13R 7277   1.935   4.525   8.275 -0.2670  0.6565  1.0101
   79SLPC  C214 7278   1.823   4.717   8.279 -0.9855 -0.1277 -0.1168
   79SLPC  H14R 7279   1.747   4.740   8.200  1.0372  0.1272 -2.0887
   79SLPC  H14S 7280   1.876   4.814   8.287 -1.4760  0.1519 -0.1866
   79SLPC  C215 7281   1.764   4.680   8.413  0.7968  0.6220 -1.1189
   79SLPC  H15R 7282   1.836   4.692   8.497 -1.3002  2.4606  0.5253
   79SLPC  H15S 7283   1.719   4.578   8.414 -0.0885  1.0080 -1.5515
   79SLPC  C216 7284   1.673   4.796   8.442  0.3617  0.1389  0.3464
   79SLPC  H16R 7285   1.593   4.808   8.366  1.2734  1.1844 -0.4743
   79SLPC  H16S 7286   1.723   4.895   8.441 -2.6895  1.8453  1.5790
   79SLPC  C217 7287   1.607   4.788   8.579 -0.2105  0.3661  0.7382
   79SLPC  H17R 7288   1.552   4.883   8.597  0.8401  1.2142 -0.3412
   79SLPC  H17S 7289   1.677   4.763   8.662 -0.5772  0.5216  1.1005
   79SLPC  C218 7290   1.508   4.668   8.587 -0.3481  0.7735  0.2032
   79SLPC  H18R 7291   1.563   4.576   8.560 -1.1748  0.0227  0.9999
   79SLPC  H18S 7292   1.430   4.680   8.509 -0.5846 -2.7867 -0.2326
   79SLPC  H18T 7293   1.459   4.667   8.687 -0.1224  2.4566  0.3651
   79SLPC   C33 7294   1.467   4.768   6.847 -0.0722  0.2820  0.1018
   79SLPC   H3X 7295   1.537   4.837   6.899 -2.4025  2.3118  0.7721
   79SLPC   H3Y 7296   1.489   4.660   6.856 -0.4202  0.0242 -1.7426
   79SLPC   C34 7297   1.334   4.782   6.924 -0.4392 -0.9925 -0.2533
   79SLPC   H4X 7298   1.257   4.716   6.879 -1.0946 -0.7393  0.4773
   79SLPC   H4Y 7299   1.300   4.887   6.923  1.5972 -0.2917 -0.8193
   79SLPC   C35 7300   1.346   4.744   7.076 -0.8038 -0.4470 -0.0222
   79SLPC   H5X 7301   1.449   4.767   7.112 -1.1120 -1.6180  1.7344
   79SLPC   H5Y 7302   1.340   4.633   7.078 -1.2845 -0.5712 -3.5364
   79SLPC   C36 7303   1.242   4.803   7.163  0.1570  0.0113 -0.7347
   79SLPC   H6X 7304   1.143   4.759   7.138  1.2062 -1.6293 -2.2078
   79SLPC   H6Y 7305   1.233   4.908   7.126 -1.1670 -0.2715 -1.2589
   79SLPC   C37 7306   1.274   4.791   7.311  0.2012  0.3504  0.3219
   79SLPC   H7X 7307   1.366   4.849   7.332 -0.1089  0.9139  0.1375
   79SLPC   H7Y 7308   1.286   4.683   7.334  0.1814  0.6595  1.8880
   79SLPC   C38 7309   1.165   4.857   7.392 -0.4455  1.1485 -0.2929
   79SLPC   H8X 7310   1.070   4.800   7.383 -0.6057  1.4821 -0.7050
   79SLPC   H8Y 7311   1.136   4.960   7.363 -3.3175  0.1074 -1.4519
   79SLPC   C39 7312   1.192   4.848   7.538 -0.8267 -1.0484 -0.3300
   79SLPC   H9X 7313   1.260   4.935   7.555 -1.7935 -0.5042  0.8705
   79SLPC   H9Y 7314   1.255   4.760   7.564  0.2673 -0.1590  0.1324
   79SLPC  C310 7315   1.074   4.878   7.626 -0.4902  0.5993  0.1405
   79SLPC  H10X 7316   1.009   4.787   7.629  1.5493 -0.9585 -0.2191
   79SLPC  H10Y 7317   1.014   4.962   7.586  0.8323  1.3749 -0.2807
   79SLPC  C311 7318   1.108   4.919   7.762 -0.4403  0.1650  0.4540
   79SLPC  H11X 7319   1.185   5.000   7.765 -0.5309  0.2311  2.9494
   79SLPC  H11Y 7320   1.153   4.837   7.823  0.6275  0.5678  0.2429
   79SLPC  C312 7321   0.982   4.967   7.831 -0.4204 -0.0540  0.2894
   79SLPC  H12X 7322   0.894   4.899   7.823 -0.5924  0.2607 -0.5539
   79SLPC  H12Y 7323   0.955   5.053   7.766  1.6362 -0.9559 -1.9416
   79SLPC  C313 7324   0.990   5.002   7.978  0.1479  0.0790  0.3065
   79SLPC  H13X 7325   0.920   5.085   8.004 -1.2111 -0.8854 -0.1633
   79SLPC  H13Y 7326   1.096   5.028   7.998  1.4671 -2.8498 -2.1120
   79SLPC  C314 7327   0.951   4.885   8.072  0.4310  0.4259 -1.0686
   79SLPC  H14X 7328   1.023   4.803   8.053 -0.1065  0.0807 -1.6555
   79SLPC  H14Y 7329   0.853   4.841   8.042  1.2546 -1.8965 -0.5386
   79SLPC  C315 7330   0.944   4.930   8.218  0.4007  0.6108  0.3238
   79SLPC  H15X 7331   0.859   4.996   8.245  1.7899  1.5442  2.7063
   79SLPC  H15Y 7332   1.043   4.977   8.238  2.1021 -1.5322 -2.3612
   79SLPC  C316 7333   0.926   4.810   8.316 -0.3062 -0.0833 -0.0306
   79SLPC  H16X 7334   1.013   4.745   8.295 -0.8328 -0.1454 -2.2093
   79SLPC  H16Y 7335   0.834   4.750   8.306  0.0045 -0.4773 -0.5491
   79SLPC  C317 7336   0.938   4.846   8.463  0.4487 -0.0146 -1.0649
   79SLPC  H17X 7337   0.943   4.755   8.527  0.3422  0.6381 -0.1016
   79SLPC  H17Y 7338   0.852   4.910   8.493 -0.1641 -1.2727 -0.0082
   79SLPC  C318 7339   1.067   4.921   8.504  0.2004  0.1063  0.2150
   79SLPC  H18X 7340   1.145   4.919   8.425 -0.4290  0.9249 -0.4425
   79SLPC  H18Y 7341   1.112   4.891   8.602 -0.1307  2.1360  1.0317
   79SLPC  H18Z 7342   1.046   5.029   8.519 -0.5419 -0.1643  1.2847
   80SLPC     N 7343   6.356   3.861   6.129 -0.3103 -0.2494 -0.3414
   80SLPC   C13 7344   6.447   3.857   6.012 -0.0289 -0.2574 -0.4304
   80SLPC  H13A 7345   6.485   3.757   5.995 -1.0362 -0.9220  0.9655
   80SLPC  H13B 7346   6.393   3.891   5.925 -1.1202 -1.1573 -0.1330
   80SLPC  H13C 7347   6.534   3.917   6.031  0.0439 -1.0443  2.0919
   80SLPC   C14 7348   6.256   3.749   6.099 -0.3633  0.2400 -0.7157
   80SLPC  H14A 7349   6.198   3.764   6.009 -0.5608  1.9428 -0.3369
   80SLPC  H14B 7350   6.303   3.653   6.090 -0.4436 -0.0716  1.5736
   80SLPC  H14C 7351   6.193   3.733   6.185  0.6276  4.1586  0.9640
   80SLPC   C15 7352   6.296   3.992   6.157  0.5027 -0.1830  0.2343
   80SLPC  H15A 7353   6.376   4.066   6.160 -0.1819  0.6180 -0.6304
   80SLPC  H15B 7354   6.243   4.035   6.073 -0.8426  0.9473  1.6026
   80SLPC  H15C 7355   6.244   4.007   6.250  0.3736 -0.0867  0.1466
   80SLPC   C12 7356   6.440   3.823   6.255  0.4520 -0.4658 -0.3332
   80SLPC  H12A 7357   6.482   3.724   6.255 -0.5411 -0.9117  0.7482
   80SLPC  H12B 7358   6.378   3.828   6.344  1.8843 -0.0438  0.6692
   80SLPC   C11 7359   6.544   3.926   6.294 -0.2915 -0.4948  0.0970
   80SLPC  H11A 7360   6.597   3.962   6.203 -0.4395 -1.6683 -0.4791
   80SLPC  H11B 7361   6.631   3.869   6.333  0.5569 -1.0956 -2.4496
   80SLPC     P 7362   6.568   4.176   6.356 -0.0483  0.1543 -0.5789
   80SLPC   O13 7363   6.705   4.176   6.309  0.0646 -0.6103 -0.2412
   80SLPC   O14 7364   6.479   4.268   6.290  0.3747  0.2565 -0.2158
   80SLPC   O12 7365   6.509   4.032   6.374  0.4048 -0.2137 -0.1416
   80SLPC   O11 7366   6.587   4.234   6.506  0.0983 -0.3943  0.0331
   80SLPC    C1 7367   6.645   4.148   6.607  0.2341  0.1803 -0.3788
   80SLPC    HA 7368   6.612   4.043   6.601  0.0091  0.2903 -1.1609
   80SLPC    HB 7369   6.755   4.144   6.594  0.4149 -0.8333  1.2531
   80SLPC    C2 7370   6.600   4.189   6.749 -0.3461 -0.5331 -0.0239
   80SLPC    HS 7371   6.490   4.198   6.736 -0.1106  0.0407 -2.0240
   80SLPC   O21 7372   6.672   4.317   6.783  0.4692  0.6307 -0.5308
   80SLPC   C21 7373   6.575   4.408   6.816  0.4080 -0.4080 -0.6738
   80SLPC   O22 7374   6.455   4.384   6.832 -0.8185 -0.0514 -0.2259
   80SLPC   C22 7375   6.636   4.546   6.832 -0.2679  0.6469  0.2849
   80SLPC   H2R 7376   6.747   4.546   6.824 -0.2829  0.5235  0.0685
   80SLPC   H2S 7377   6.594   4.605   6.749 -1.9341  0.2359  0.7948
   80SLPC    C3 7378   6.630   4.080   6.857 -0.1217 -0.2065 -0.2562
   80SLPC    HX 7379   6.738   4.055   6.858 -0.2008 -0.6204 -1.2420
   80SLPC    HY 7380   6.588   3.979   6.836 -1.7390 -0.0764  1.9733
   80SLPC   O31 7381   6.596   4.131   6.989  0.0191 -0.6895  0.2849
   80SLPC   C31 7382   6.463   4.124   7.012 -0.5288 -0.1342 -0.8284
   80SLPC   O32 7383   6.377   4.082   6.942  0.5978 -0.3331 -0.2960
   80SLPC   C32 7384   6.441   4.176   7.156  0.3096  0.0861  0.9026
   80SLPC   H2X 7385   6.343   4.228   7.158  0.4797  0.5091  4.3122
   80SLPC   H2Y 7386   6.521   4.246   7.190 -1.8489  2.1402  2.0950
   80SLPC   C23 7387   6.562   4.611   6.954 -0.3745  0.1697 -0.6659
   80SLPC   H3R 7388   6.452   4.593   6.950 -0.1594 -1.8279  0.7630
   80SLPC   H3S 7389   6.588   4.719   6.958 -1.3390  0.4742 -1.9448
   80SLPC   C24 7390   6.603   4.557   7.095 -0.5999 -0.4876 -0.0167
   80SLPC   H4R 7391   6.714   4.554   7.096 -0.4761  1.8252  1.3021
   80SLPC   H4S 7392   6.578   4.449   7.095 -1.5516 -0.2817 -0.5623
   80SLPC   C25 7393   6.542   4.633   7.216 -0.3524 -0.6298  0.5064
   80SLPC   H5R 7394   6.431   4.637   7.206 -0.5040  3.5469  1.7727
   80SLPC   H5S 7395   6.572   4.740   7.211 -1.3168 -0.3404  0.6028
   80SLPC   C26 7396   6.583   4.566   7.348 -0.0153  0.1428  0.5130
   80SLPC   H6R 7397   6.694   4.564   7.349 -0.0069 -2.6075  0.8507
   80SLPC   H6S 7398   6.546   4.461   7.345  1.5697 -0.4352 -0.0194
   80SLPC   C27 7399   6.565   4.651   7.468  0.5377 -0.3040  0.5643
   80SLPC   H7R 7400   6.459   4.682   7.479  0.9643  1.4388 -0.0067
   80SLPC   H7S 7401   6.610   4.751   7.451 -1.2696  0.3312 -0.8347
   80SLPC   C28 7402   6.623   4.576   7.584 -0.0164 -0.9963  0.4540
   80SLPC   H8R 7403   6.651   4.657   7.655 -0.1642 -0.6977  0.1747
   80SLPC   H8S 7404   6.715   4.525   7.548 -0.2539 -0.4438 -1.0023
   80SLPC   C29 7405   6.522   4.480   7.640  0.4957  1.1652 -0.5689
   80SLPC   H9R 7406   6.456   4.432   7.567  1.1405 -2.2615  0.8887
   80SLPC  C210 7407   6.490   4.445   7.771 -0.0633 -0.6691  0.7286
   80SLPC  H10R 7408   6.401   4.382   7.787 -0.5635  0.0214  0.7161
   80SLPC  C211 7409   6.559   4.512   7.887 -0.7653  0.3427  0.2173
   80SLPC  H11R 7410   6.536   4.443   7.971 -1.5604  0.2866 -0.0457
   80SLPC  H11S 7411   6.503   4.605   7.910 -2.7340 -0.7621  0.1302
   80SLPC  C212 7412   6.709   4.526   7.889 -0.5634 -0.7583 -0.3265
   80SLPC  H12R 7413   6.746   4.622   7.850  1.2238 -0.2888  2.2838
   80SLPC  C213 7414   6.795   4.445   7.947  0.2751  0.3529 -0.4086
   80SLPC  H13R 7415   6.903   4.465   7.949  0.4531 -0.6019  0.4903
   80SLPC  C214 7416   6.762   4.310   8.003 -0.4407  0.0118 -0.0329
   80SLPC  H14R 7417   6.845   4.239   7.982 -0.3719 -0.3397  1.3402
   80SLPC  H14S 7418   6.683   4.262   7.942 -0.2155 -0.4773  0.0559
   80SLPC  C215 7419   6.725   4.313   8.148  0.1085 -0.0948 -1.0902
   80SLPC  H15R 7420   6.690   4.211   8.176  0.7753 -0.3247 -1.0770
   80SLPC  H15S 7421   6.630   4.367   8.166 -0.2087 -0.9152 -0.2260
   80SLPC  C216 7422   6.838   4.356   8.236 -0.1008 -0.0323  0.5958
   80SLPC  H16R 7423   6.848   4.465   8.220  2.9333 -0.3151 -0.0746
   80SLPC  H16S 7424   6.928   4.307   8.192 -0.7445  0.0324 -0.8614
   80SLPC  C217 7425   6.811   4.336   8.385  0.1642 -0.3417 -0.2371
   80SLPC  H17R 7426   6.840   4.232   8.408  1.2998 -0.7190 -2.9899
   80SLPC  H17S 7427   6.705   4.354   8.411  0.8068 -0.2885  2.6433
   80SLPC  C218 7428   6.893   4.434   8.468  0.0338  0.5283  1.0274
   80SLPC  H18R 7429   6.864   4.535   8.432  1.3360  0.4988 -0.1832
   80SLPC  H18S 7430   7.003   4.435   8.463  0.2296 -0.3486  3.5881
   80SLPC  H18T 7431   6.860   4.431   8.575 -0.4858  0.9833  0.8805
   80SLPC   C33 7432   6.430   4.067   7.269  0.0570 -0.7337 -0.4005
   80SLPC   H3X 7433   6.522   4.005   7.280  0.3899  0.0808  2.1243
   80SLPC   H3Y 7434   6.336   4.015   7.243 -0.4551  0.3293 -0.7310
   80SLPC   C34 7435   6.410   4.149   7.396  0.4807  0.1028  0.2504
   80SLPC   H4X 7436   6.320   4.212   7.377  0.8918  0.1355 -1.8859
   80SLPC   H4Y 7437   6.497   4.219   7.402 -1.7908  3.1987 -0.1116
   80SLPC   C35 7438   6.399   4.065   7.522  0.1577  0.7170  0.0496
   80SLPC   H5X 7439   6.481   3.991   7.533 -1.1703 -0.7520  0.3080
   80SLPC   H5Y 7440   6.307   4.003   7.524  1.0068 -0.5446  0.6046
   80SLPC   C36 7441   6.401   4.138   7.661 -0.1412  0.0007 -0.5160
   80SLPC   H6X 7442   6.319   4.212   7.673 -0.0364  0.2310 -1.2005
   80SLPC   H6Y 7443   6.494   4.196   7.677 -0.8621  0.7447  1.2191
   80SLPC   C37 7444   6.380   4.029   7.772  0.2662 -0.3982 -0.2481
   80SLPC   H7X 7445   6.463   3.955   7.777 -0.6998 -1.4390  1.3457
   80SLPC   H7Y 7446   6.289   3.968   7.751  0.5663 -1.1523  0.5754
   80SLPC   C38 7447   6.371   4.090   7.916  0.6324 -0.2790  0.7569
   80SLPC   H8X 7448   6.306   4.180   7.925  2.6586  1.1799  1.5958
   80SLPC   H8Y 7449   6.466   4.139   7.945  1.0904 -1.1778  0.8169
   80SLPC   C39 7450   6.330   3.980   8.016  0.2087  0.0795 -0.2665
   80SLPC   H9X 7451   6.407   3.900   8.021  0.4526  0.1230 -2.3210
   80SLPC   H9Y 7452   6.231   3.939   7.986 -0.5909 -0.2129  2.5039
   80SLPC  C310 7453   6.313   4.020   8.164 -0.0504 -0.1933  0.4009
   80SLPC  H10X 7454   6.248   4.111   8.169 -1.3110 -0.6389 -3.7253
   80SLPC  H10Y 7455   6.408   4.055   8.210  0.8101 -0.6902 -0.9369
   80SLPC  C311 7456   6.278   3.902   8.251  0.2645  0.3080  0.3696
   80SLPC  H11X 7457   6.348   3.816   8.246  1.2181  1.1291 -1.4859
   80SLPC  H11Y 7458   6.180   3.865   8.215 -0.2767  1.2011  0.8866
   80SLPC  C312 7459   6.257   3.944   8.397  0.5039 -0.2966  0.3091
   80SLPC  H12X 7460   6.166   4.008   8.404  0.3670  0.0755 -3.1225
   80SLPC  H12Y 7461   6.345   4.004   8.426  0.8495 -0.2436 -0.8185
   80SLPC  C313 7462   6.241   3.835   8.505 -0.1929 -0.0383 -0.1937
   80SLPC  H13X 7463   6.149   3.785   8.465 -0.3622  0.0858  0.0389
   80SLPC  H13Y 7464   6.216   3.878   8.604 -0.2798 -1.0623  0.2371
   80SLPC  C314 7465   6.358   3.733   8.516  0.5387 -0.1247  0.1015
   80SLPC  H14X 7466   6.445   3.780   8.567  0.8637  0.4197 -0.9238
   80SLPC  H14Y 7467   6.402   3.694   8.421 -3.3860 -3.1859 -0.7121
   80SLPC  C315 7468   6.324   3.609   8.605 -0.3614  0.4321  0.3627
   80SLPC  H15X 7469   6.235   3.552   8.569 -0.7400  1.1054  0.2291
   80SLPC  H15Y 7470   6.285   3.652   8.700  0.2862  0.0926  0.7884
   80SLPC  C316 7471   6.453   3.527   8.636 -0.2639  0.2834  0.3988
   80SLPC  H16X 7472   6.466   3.507   8.745  3.0265  0.3279  0.1263
   80SLPC  H16Y 7473   6.543   3.591   8.624  1.8766 -2.7691 -1.1290
   80SLPC  C317 7474   6.468   3.403   8.549 -0.0759 -0.2754  0.1247
   80SLPC  H17X 7475   6.503   3.425   8.445  0.9106  0.7433  0.6531
   80SLPC  H17Y 7476   6.369   3.352   8.548  0.3707 -1.2036  1.2616
   80SLPC  C318 7477   6.574   3.299   8.603  0.5014  0.5057  0.1732
   80SLPC  H18X 7478   6.545   3.263   8.704 -0.0835  0.4076 -0.0262
   80SLPC  H18Y 7479   6.677   3.340   8.610  0.2923  0.8035  1.8006
   80SLPC  H18Z 7480   6.590   3.213   8.534  1.4230  0.9486 -0.1851
   81SAPS     N 7481   2.787   3.044  11.367 -0.9402 -0.0523  0.2225
   81SAPS   HN1 7482   2.802   2.985  11.283 -1.3974  0.0799  0.0440
   81SAPS   HN2 7483   2.799   3.147  11.360 -0.8574 -0.1583 -2.0349
   81SAPS   HN3 7484   2.853   3.009  11.439 -0.2662 -0.8668 -0.7625
   81SAPS   C12 7485   2.644   3.031  11.425 -0.2513  0.2280  0.4753
   81SAPS  H12A 7486   2.621   2.937  11.473 -1.8122  0.2762 -0.1171
   81SAPS   C13 7487   2.605   3.142  11.529 -0.2281  0.0078  0.1078
   81SAPS  O13A 7488   2.679   3.242  11.546  0.2812 -0.0963 -0.1541
   81SAPS  O13B 7489   2.495   3.132  11.582  0.0603 -0.1228  0.0547
   81SAPS   C11 7490   2.546   3.056  11.306 -0.5400  0.3536  1.0349
   81SAPS  H11A 7491   2.562   3.157  11.263 -2.6758 -0.2060 -1.2899
   81SAPS  H11B 7492   2.440   3.056  11.342 -0.3984  0.7963  1.4635
   81SAPS     P 7493   2.472   2.940  11.092  0.5490  0.1748  0.4926
   81SAPS   O13 7494   2.518   2.829  10.999  0.6684 -0.0409 -0.6386
   81SAPS   O14 7495   2.335   2.925  11.145  0.2930 -0.9413  0.7707
   81SAPS   O12 7496   2.576   2.950  11.208  0.4512  0.0991 -0.1509
   81SAPS   O11 7497   2.487   3.076  11.014 -0.3768 -0.0770 -0.2692
   81SAPS    C1 7498   2.609   3.104  10.947 -0.5168  0.3143  0.9664
   81SAPS    HA 7499   2.666   3.185  10.998 -1.0966  0.3579  1.5485
   81SAPS    HB 7500   2.686   3.024  10.948  0.0494  0.8479  0.8403
   81SAPS    C2 7501   2.599   3.127  10.788 -0.1286  0.3240  0.0179
   81SAPS    HS 7502   2.704   3.137  10.753 -0.6167 -0.6854 -1.8975
   81SAPS   O21 7503   2.525   3.243  10.759 -0.0180 -0.5555  0.2153
   81SAPS   C21 7504   2.585   3.353  10.793  0.0310  0.1713 -0.0920
   81SAPS   O22 7505   2.706   3.364  10.820 -0.7290  0.0098  0.0192
   81SAPS   C22 7506   2.475   3.460  10.787 -0.4399 -0.0782  0.1301
   81SAPS   H2R 7507   2.379   3.406  10.777  0.1900 -1.2572  0.1324
   81SAPS   H2S 7508   2.472   3.525  10.877  1.5472  0.7983 -0.3763
   81SAPS    C3 7509   2.545   2.999  10.730  0.8451  0.3322 -0.3231
   81SAPS    HX 7510   2.446   2.974  10.773  0.3426 -3.3005 -3.0710
   81SAPS    HY 7511   2.617   2.919  10.759 -0.0726 -0.3605  0.1147
   81SAPS   O31 7512   2.541   3.009  10.586  0.2186  0.2261 -0.5755
   81SAPS   C31 7513   2.423   3.029  10.529  0.8781 -0.1160 -0.3016
   81SAPS   O32 7514   2.311   3.049  10.588 -0.1865  0.6514  0.3372
   81SAPS   C32 7515   2.453   3.045  10.384  0.1871  0.2659 -0.2973
   81SAPS   H2X 7516   2.560   3.022  10.368 -0.2025 -1.1377 -1.0195
   81SAPS   H2Y 7517   2.447   3.153  10.359 -0.4333 -0.2857 -2.7998
   81SAPS   C23 7518   2.488   3.549  10.666  0.2126  0.0176 -0.3696
   81SAPS   H3R 7519   2.494   3.476  10.582  0.6781 -0.4881  0.1014
   81SAPS   H3S 7520   2.586   3.601  10.665 -0.4886  1.4139  0.2109
   81SAPS   C24 7521   2.380   3.658  10.648 -0.0398  0.1854 -0.9285
   81SAPS   H4R 7522   2.281   3.610  10.642  0.1101 -0.2292 -0.1476
   81SAPS   H4S 7523   2.390   3.692  10.543 -0.9649  0.6033 -0.8886
   81SAPS   C25 7524   2.376   3.775  10.749 -0.6433  0.8449 -0.3827
   81SAPS   H5R 7525   2.325   3.744  10.842 -0.8269 -2.1051 -1.3529
   81SAPS   C26 7526   2.421   3.895  10.725 -0.8899  0.1046 -0.5858
   81SAPS   H6R 7527   2.419   3.969  10.806 -0.9242 -0.1133 -0.3856
   81SAPS   C27 7528   2.487   3.939  10.594  0.2066 -0.3649  0.6415
   81SAPS   H7R 7529   2.411   3.932  10.514 -0.6281  1.3494  1.2272
   81SAPS   H7S 7530   2.567   3.869  10.561  0.2012  0.6304 -1.6861
   81SAPS   C28 7531   2.540   4.075  10.598 -0.4768 -0.3041  0.2346
   81SAPS   H8R 7532   2.537   4.129  10.694  1.6255  1.6606 -0.6955
   81SAPS   C29 7533   2.596   4.139  10.496 -0.1902 -0.3040  0.9240
   81SAPS   H9R 7534   2.627   4.244  10.504 -2.1805  0.2430  2.0774
   81SAPS  C210 7535   2.614   4.093  10.354 -0.1754  0.5045 -0.1623
   81SAPS  H10R 7536   2.547   4.151  10.287  0.2637  0.5919 -0.5364
   81SAPS  H10S 7537   2.570   3.993  10.336 -2.4732  1.4879 -0.4307
   81SAPS  C211 7538   2.758   4.104  10.314  0.0187  0.3554  0.0110
   81SAPS  H11R 7539   2.829   4.103  10.398 -2.0532 -2.5966  1.9186
   81SAPS  C212 7540   2.799   4.112  10.184 -0.0079 -0.4941 -0.1356
   81SAPS  H12R 7541   2.901   4.144  10.158 -0.8531  0.4324 -2.6369
   81SAPS  C213 7542   2.707   4.117  10.065  0.2569 -0.3795 -0.0564
   81SAPS  H13R 7543   2.608   4.072  10.090  0.5540 -0.7361  0.5034
   81SAPS  H13S 7544   2.748   4.054   9.984 -0.7085 -0.3798 -0.5591
   81SAPS  C214 7545   2.693   4.261  10.020 -0.0738 -0.7215 -0.2493
   81SAPS  H14R 7546   2.625   4.326  10.078  2.0600  2.4826 -1.0291
   81SAPS  C215 7547   2.734   4.312   9.902  0.8249 -0.1122 -0.1224
   81SAPS  H15R 7548   2.734   4.422   9.893 -0.5846  0.0445  1.3992
   81SAPS  C216 7549   2.819   4.253   9.800 -0.4742  0.0035 -0.3166
   81SAPS  H16R 7550   2.747   4.222   9.722 -1.9598  2.3410  0.0252
   81SAPS  H16S 7551   2.884   4.169   9.831  0.8924  0.8108 -0.9122
   81SAPS  C217 7552   2.920   4.349   9.733  0.8875  0.2250 -0.6966
   81SAPS  H17R 7553   2.988   4.379   9.815  0.3227 -1.6389  0.5115
   81SAPS  H17S 7554   2.875   4.445   9.700  0.6016 -0.1770 -1.4927
   81SAPS  C218 7555   2.993   4.278   9.612  0.4886  0.3101  0.3582
   81SAPS  H18R 7556   2.909   4.252   9.544  0.1963  1.0238  0.4409
   81SAPS  H18S 7557   3.042   4.189   9.658  0.2014 -0.1584 -0.2295
   81SAPS  C219 7558   3.076   4.377   9.527 -0.1886 -0.1311 -0.6282
   81SAPS  H19R 7559   3.141   4.317   9.460  0.8118  1.6351 -1.3057
   81SAPS  H19S 7560   3.148   4.422   9.599 -1.1776 -0.7841  0.8087
   81SAPS  C220 7561   3.007   4.476   9.437 -1.0280 -0.7621 -0.1702
   81SAPS  H20R 7562   3.080   4.555   9.413 -0.4025 -0.6015  2.0251
   81SAPS  H20S 7563   2.923   4.524   9.492 -2.3862 -1.6838 -1.3854
   81SAPS  H20T 7564   2.978   4.419   9.347  1.2033  0.2724 -1.6278
   81SAPS   C33 7565   2.370   2.952  10.292 -0.1457  0.2417 -0.0429
   81SAPS   H3X 7566   2.263   2.980  10.283 -0.2680 -0.4857 -0.9670
   81SAPS   H3Y 7567   2.374   2.848  10.330  1.8023 -0.2369 -1.4186
   81SAPS   C34 7568   2.432   2.958  10.152 -0.5262  0.0417 -0.7118
   81SAPS   H4X 7569   2.534   2.913  10.161  0.5903  2.4538 -0.5835
   81SAPS   H4Y 7570   2.436   3.066  10.127 -0.9959  0.4045  0.6779
   81SAPS   C35 7571   2.356   2.897  10.037  0.1185  0.4199  0.3184
   81SAPS   H5X 7572   2.259   2.951  10.034  0.6270  1.4025  1.0347
   81SAPS   H5Y 7573   2.338   2.791  10.066  0.8783 -0.0918 -1.0067
   81SAPS   C36 7574   2.452   2.903   9.909 -0.1385  0.1769  0.4875
   81SAPS   H6X 7575   2.552   2.858   9.931  0.1006 -0.0622 -0.9741
   81SAPS   H6Y 7576   2.482   3.009   9.891 -0.5845  0.0600 -1.0651
   81SAPS   C37 7577   2.373   2.845   9.793 -0.5617  0.0608  0.4027
   81SAPS   H7X 7578   2.281   2.901   9.770 -0.5319  0.1757  0.5666
   81SAPS   H7Y 7579   2.345   2.741   9.819  0.8957  0.0172  1.9841
   81SAPS   C38 7580   2.464   2.854   9.672  0.4006 -0.1701 -0.1395
   81SAPS   H8X 7581   2.565   2.810   9.691 -0.0518 -1.5810 -0.8704
   81SAPS   H8Y 7582   2.455   2.963   9.654 -0.4869 -0.1747  0.2155
   81SAPS   C39 7583   2.420   2.772   9.555  0.6011  0.2665 -0.1788
   81SAPS   H9X 7584   2.312   2.747   9.554 -0.0024  2.5476  1.1342
   81SAPS   H9Y 7585   2.468   2.672   9.558 -1.4650 -0.7880 -0.4361
   81SAPS  C310 7586   2.438   2.831   9.418 -0.7623  0.5367 -0.1125
   81SAPS  H10X 7587   2.377   2.919   9.389 -1.1320  0.0679 -0.8022
   81SAPS  H10Y 7588   2.403   2.743   9.360 -1.7643  0.0847  1.1519
   81SAPS  C311 7589   2.584   2.855   9.396  0.5450  0.5170 -0.2622
   81SAPS  H11X 7590   2.632   2.757   9.415 -0.3855 -0.0538 -0.7849
   81SAPS  H11Y 7591   2.625   2.924   9.472  1.1391 -0.4969  0.3675
   81SAPS  C312 7592   2.617   2.913   9.257 -0.0660 -0.2443 -0.0212
   81SAPS  H12X 7593   2.727   2.928   9.248 -0.0050 -0.3827  0.4651
   81SAPS  H12Y 7594   2.571   3.013   9.248  1.9674  0.6148 -2.0288
   81SAPS  C313 7595   2.572   2.830   9.137  0.0787 -0.2516 -0.8327
   81SAPS  H13X 7596   2.472   2.783   9.150 -0.1604  0.6366  0.8226
   81SAPS  H13Y 7597   2.646   2.749   9.122  2.1242  1.1993  0.8148
   81SAPS  C314 7598   2.567   2.904   9.006  0.5600 -1.1471 -0.5303
   81SAPS  H14X 7599   2.653   2.974   8.999 -0.8821  0.5390 -2.9364
   81SAPS  H14Y 7600   2.479   2.971   9.008  0.1584 -1.6300 -1.3353
   81SAPS  C315 7601   2.578   2.815   8.885 -0.5374 -0.0818 -0.9704
   81SAPS  H15X 7602   2.497   2.739   8.882 -0.7737 -0.1751  2.7900
   81SAPS  H15Y 7603   2.675   2.760   8.889 -1.3203 -1.4877  2.4536
   81SAPS  C316 7604   2.567   2.885   8.745  0.3619  0.3857 -0.8536
   81SAPS  H16X 7605   2.666   2.929   8.718  0.0992  1.5400  0.0178
   81SAPS  H16Y 7606   2.474   2.944   8.742 -0.2045 -0.4778 -0.5829
   81SAPS  C317 7607   2.550   2.787   8.621 -0.3094  0.4891  0.5098
   81SAPS  H17X 7608   2.455   2.740   8.653 -0.4878  0.8366  0.4841
   81SAPS  H17Y 7609   2.636   2.716   8.617 -0.7659 -0.0267 -2.5915
   81SAPS  C318 7610   2.550   2.847   8.480  0.5468 -0.4601 -0.5674
   81SAPS  H18X 7611   2.464   2.909   8.449  0.9859 -0.7239 -2.4190
   81SAPS  H18Y 7612   2.554   2.767   8.403  0.6659 -0.4818 -0.5383
   81SAPS  H18Z 7613   2.642   2.908   8.467  0.1948  0.3934  0.7652
   82SAPS     N 7614   1.531   3.213  11.174 -0.3459 -0.5358  0.7890
   82SAPS   HN1 7615   1.576   3.213  11.267 -1.3252 -0.7310  1.2739
   82SAPS   HN2 7616   1.600   3.178  11.104  2.1395 -2.4127  3.9413
   82SAPS   HN3 7617   1.510   3.309  11.139 -0.8662 -0.3279  1.6620
   82SAPS   C12 7618   1.414   3.135  11.184 -0.5216  0.2866  0.1009
   82SAPS  H12A 7619   1.391   3.105  11.082 -0.1800 -2.3726  0.7385
   82SAPS   C13 7620   1.416   3.003  11.262  0.9562  0.5653  0.0750
   82SAPS  O13A 7621   1.515   2.976  11.332  0.6731  0.4663 -0.3346
   82SAPS  O13B 7622   1.311   2.930  11.258 -0.4575  0.1142  0.0247
   82SAPS   C11 7623   1.303   3.229  11.246 -0.3976 -0.3993 -0.0130
   82SAPS  H11A 7624   1.356   3.270  11.334  1.3066 -0.8441 -0.8042
   82SAPS  H11B 7625   1.217   3.167  11.281 -0.9710  0.0610 -0.5737
   82SAPS     P 7626   1.152   3.357  11.061 -0.0166 -0.2495  0.0215
   82SAPS   O13 7627   1.042   3.283  11.125 -0.4474 -0.2189 -0.6060
   82SAPS   O14 7628   1.136   3.503  11.049 -1.0532 -0.5049  0.0398
   82SAPS   O12 7629   1.278   3.333  11.151  0.1773 -0.1505 -0.0351
   82SAPS   O11 7630   1.194   3.280  10.925  0.5940  0.1738  0.2141
   82SAPS    C1 7631   1.322   3.283  10.871 -1.2587 -0.2526  0.5993
   82SAPS    HA 7632   1.405   3.315  10.937 -1.0674 -2.8959  1.7524
   82SAPS    HB 7633   1.351   3.181  10.838  0.4219  1.0210 -2.3587
   82SAPS    C2 7634   1.338   3.359  10.741  0.2286 -0.3768 -0.1887
   82SAPS    HS 7635   1.320   3.466  10.764 -1.4867 -0.9427  1.4385
   82SAPS   O21 7636   1.238   3.306  10.651 -0.1708  0.6595 -0.1942
   82SAPS   C21 7637   1.181   3.389  10.566  0.2039  0.6597  0.0783
   82SAPS   O22 7638   1.196   3.510  10.561 -0.1104 -0.6596 -0.1754
   82SAPS   C22 7639   1.086   3.309  10.476  0.5655 -0.6841 -0.0238
   82SAPS   H2R 7640   1.142   3.231  10.419 -0.1921 -0.1593 -1.5497
   82SAPS   H2S 7641   1.008   3.260  10.538  0.7503 -0.8527  0.0788
   82SAPS    C3 7642   1.474   3.348  10.677 -0.6082 -0.5822  0.2604
   82SAPS    HX 7643   1.486   3.241  10.650 -2.7292 -0.1853 -2.7276
   82SAPS    HY 7644   1.557   3.380  10.744 -0.1885  0.3518 -0.6732
   82SAPS   O31 7645   1.484   3.413  10.551 -0.0543  0.0276  0.2124
   82SAPS   C31 7646   1.519   3.542  10.545 -0.9237  0.3930  0.1871
   82SAPS   O32 7647   1.547   3.613  10.643  0.1203  0.2130  0.2267
   82SAPS   C32 7648   1.525   3.582  10.397 -0.6321 -0.6015 -0.1761
   82SAPS   H2X 7649   1.470   3.679  10.393  0.7390  0.3335  1.6804
   82SAPS   H2Y 7650   1.489   3.507  10.324  1.9838 -0.8277 -1.3446
   82SAPS   C23 7651   1.003   3.407  10.380  0.8659  0.2890 -0.2816
   82SAPS   H3R 7652   0.959   3.479  10.451 -0.1065 -1.0593  0.5200
   82SAPS   H3S 7653   0.919   3.351  10.334  0.8143  0.9305 -0.9972
   82SAPS   C24 7654   1.081   3.475  10.263  0.4853  0.5505  0.2100
   82SAPS   H4R 7655   1.125   3.394  10.201 -4.3647 -1.4538 -1.0439
   82SAPS   H4S 7656   1.165   3.531  10.311  0.9274  1.2649 -1.3534
   82SAPS   C25 7657   0.995   3.571  10.189  0.0942 -0.8325 -0.4450
   82SAPS   H5R 7658   0.985   3.669  10.237  1.7849 -1.4083  1.2046
   82SAPS   C26 7659   0.942   3.555  10.067 -0.2860  0.0361 -0.5452
   82SAPS   H6R 7660   0.874   3.629  10.023  2.1168  2.6425 -0.2129
   82SAPS   C27 7661   0.963   3.429   9.982  0.5193 -0.0618 -0.4189
   82SAPS   H7R 7662   0.943   3.335  10.037  1.2556  0.7589  1.3351
   82SAPS   H7S 7663   1.068   3.423   9.946  0.0385  1.7723 -2.3119
   82SAPS   C28 7664   0.864   3.427   9.864  0.4131 -0.1336  0.0146
   82SAPS   H8R 7665   0.760   3.463   9.872  0.3243 -0.5839  1.0306
   82SAPS   C29 7666   0.901   3.394   9.743 -0.3550  0.2130 -0.2819
   82SAPS   H9R 7667   0.822   3.384   9.667 -0.3880 -0.7339 -0.1362
   82SAPS  C210 7668   1.037   3.351   9.701 -0.2611  0.2809 -0.6515
   82SAPS  H10R 7669   1.078   3.274   9.770 -1.6040 -0.4634 -0.6431
   82SAPS  H10S 7670   1.109   3.435   9.709  0.3362  0.0486 -3.0600
   82SAPS  C211 7671   1.056   3.311   9.561 -0.6388 -0.4652 -0.1892
   82SAPS  H11R 7672   1.049   3.202   9.554 -2.4399 -0.4823  1.2932
   82SAPS  C212 7673   1.096   3.388   9.457  0.0069  0.5477 -0.1699
   82SAPS  H12R 7674   1.080   3.335   9.362  0.0470 -0.5683  0.4362
   82SAPS  C213 7675   1.130   3.536   9.453 -0.1017  0.0459  0.0281
   82SAPS  H13R 7676   1.239   3.546   9.437  0.3286 -0.3051  2.3808
   82SAPS  H13S 7677   1.130   3.576   9.557 -1.1009 -2.7064  1.1875
   82SAPS  C214 7678   1.045   3.617   9.355 -0.1447 -0.0868 -0.1582
   82SAPS  H14R 7679   0.949   3.644   9.402  1.0905  0.0923  2.3880
   82SAPS  C215 7680   1.076   3.654   9.229 -0.2854 -0.1314 -0.5946
   82SAPS  H15R 7681   1.000   3.710   9.172  0.4619  0.5781 -0.9116
   82SAPS  C216 7682   1.202   3.621   9.151 -0.0503 -0.0936  0.6501
   82SAPS  H16R 7683   1.166   3.540   9.084  1.9995 -0.8025  0.3302
   82SAPS  H16S 7684   1.286   3.579   9.209  1.8574  2.2795 -0.2122
   82SAPS  C217 7685   1.266   3.742   9.075 -0.6206  0.4383  0.3649
   82SAPS  H17R 7686   1.304   3.818   9.147 -0.2866  0.5461  0.0778
   82SAPS  H17S 7687   1.186   3.791   9.015 -2.5353 -1.2163  1.4515
   82SAPS  C218 7688   1.383   3.704   8.988 -0.4875 -0.3636  0.5631
   82SAPS  H18R 7689   1.344   3.635   8.910 -1.4676  1.5488 -0.7108
   82SAPS  H18S 7690   1.456   3.653   9.054 -2.3001 -3.2296  0.5412
   82SAPS  C219 7691   1.448   3.821   8.913 -0.3045  0.0979 -0.0110
   82SAPS  H19R 7692   1.360   3.875   8.872 -0.5450  0.0751  0.4617
   82SAPS  H19S 7693   1.501   3.773   8.828  0.0841 -1.6972  1.1998
   82SAPS  C220 7694   1.545   3.906   8.991 -0.1690  0.0963  0.3725
   82SAPS  H20R 7695   1.627   3.942   8.926  0.1621  0.4680  0.9867
   82SAPS  H20S 7696   1.595   3.858   9.078  0.5545  2.2813  1.2323
   82SAPS  H20T 7697   1.486   3.992   9.030  1.1508  1.1719  0.0967
   82SAPS   C33 7698   1.666   3.619  10.351 -0.3688 -0.2443  0.3876
   82SAPS   H3X 7699   1.731   3.530  10.366 -0.0868 -0.0930  0.0918
   82SAPS   H3Y 7700   1.713   3.699  10.413  0.8781 -0.5447 -0.1313
   82SAPS   C34 7701   1.663   3.671  10.204  0.3496  0.1613  0.8212
   82SAPS   H4X 7702   1.584   3.742  10.172  0.3993 -1.0332 -2.3710
   82SAPS   H4Y 7703   1.633   3.586  10.138 -0.1236 -0.0522  1.2968
   82SAPS   C35 7704   1.801   3.724  10.163  0.1135  0.6512  0.3246
   82SAPS   H5X 7705   1.872   3.647  10.200 -2.7970 -1.8101  1.2464
   82SAPS   H5Y 7706   1.829   3.816  10.218 -2.5386  1.4080  0.5828
   82SAPS   C36 7707   1.849   3.720  10.010 -0.3830 -0.6415 -0.0798
   82SAPS   H6X 7708   1.842   3.620   9.962 -1.8865  0.1537 -1.6188
   82SAPS   H6Y 7709   1.951   3.762  10.022 -0.4896 -0.8657  1.8923
   82SAPS   C37 7710   1.769   3.820   9.919 -0.5824  0.4534 -0.2216
   82SAPS   H7X 7711   1.805   3.924   9.940 -0.0634  0.0323  1.1205
   82SAPS   H7Y 7712   1.662   3.824   9.947 -0.9111  0.8075 -1.4948
   82SAPS   C38 7713   1.767   3.784   9.768 -0.7208 -0.0759 -0.5598
   82SAPS   H8X 7714   1.686   3.836   9.712 -0.1568  2.1664  0.5722
   82SAPS   H8Y 7715   1.755   3.674   9.760 -0.1522 -0.0441 -2.2928
   82SAPS   C39 7716   1.904   3.818   9.708 -0.2973 -0.4550 -0.1648
   82SAPS   H9X 7717   1.969   3.752   9.768  1.2899 -0.4435 -1.8128
   82SAPS   H9Y 7718   1.928   3.926   9.719 -0.9556 -0.3063 -0.1203
   82SAPS  C310 7719   1.914   3.769   9.566 -0.7580 -0.0234  0.0662
   82SAPS  H10X 7720   1.841   3.830   9.509 -0.9200 -0.1214  0.1709
   82SAPS  H10Y 7721   1.876   3.665   9.572  1.0069 -0.6464  1.5218
   82SAPS  C311 7722   2.053   3.758   9.510 -0.3875 -0.5748 -0.1386
   82SAPS  H11X 7723   2.111   3.708   9.591 -0.4527 -0.0595  0.2339
   82SAPS  H11Y 7724   2.101   3.856   9.492  2.5001 -1.6317  1.0443
   82SAPS  C312 7725   2.070   3.690   9.382 -0.4760 -0.2060  1.0216
   82SAPS  H12X 7726   2.012   3.738   9.300  0.0879  2.1742  1.9546
   82SAPS  H12Y 7727   2.018   3.591   9.384 -2.6757  0.8137 -0.9231
   82SAPS  C313 7728   2.223   3.697   9.339 -0.4900  0.2539 -0.5540
   82SAPS  H13X 7729   2.284   3.632   9.405 -0.1600  0.0339 -1.0659
   82SAPS  H13Y 7730   2.261   3.801   9.350 -0.8331  0.2456  0.9262
   82SAPS  C314 7731   2.238   3.646   9.192 -0.3171 -0.5824  0.2341
   82SAPS  H14X 7732   2.186   3.716   9.124  2.0229 -0.4666 -1.5481
   82SAPS  H14Y 7733   2.187   3.548   9.190 -2.0485  0.2576  0.9797
   82SAPS  C315 7734   2.388   3.633   9.146 -0.2107  0.0186 -0.1368
   82SAPS  H15X 7735   2.387   3.561   9.061 -0.8953  1.3661 -1.3269
   82SAPS  H15Y 7736   2.440   3.588   9.233 -2.6312 -0.4481  1.1519
   82SAPS  C316 7737   2.463   3.760   9.100  0.2908  0.5820 -0.4365
   82SAPS  H16X 7738   2.472   3.830   9.186 -4.5705 -0.8630  1.6002
   82SAPS  H16Y 7739   2.395   3.820   9.035  0.6625 -0.2855 -1.6581
   82SAPS  C317 7740   2.589   3.722   9.030  0.3185  0.3041 -0.6185
   82SAPS  H17X 7741   2.561   3.633   8.969 -0.1965  1.1355 -1.6269
   82SAPS  H17Y 7742   2.666   3.682   9.099 -1.7558 -1.3029  0.8955
   82SAPS  C318 7743   2.630   3.836   8.943  0.2068  0.0215 -0.9907
   82SAPS  H18X 7744   2.549   3.865   8.872 -0.2215  1.0531 -0.1147
   82SAPS  H18Y 7745   2.713   3.816   8.872 -0.5096  2.8669 -2.7968
   82SAPS  H18Z 7746   2.650   3.932   8.996  0.3748  0.6409 -2.1493
   83SAPS     N 7747   3.023   4.554  11.418  0.6717 -0.5310  0.0544
   83SAPS   HN1 7748   3.115   4.596  11.395 -0.5491  1.2147 -2.0091
   83SAPS   HN2 7749   3.054   4.472  11.474  2.4869  0.5107  0.6640
   83SAPS   HN3 7750   2.994   4.512  11.327 -1.4436  0.7485  0.0728
   83SAPS   C12 7751   2.937   4.653  11.486 -0.2364  0.0247  0.2547
   83SAPS  H12A 7752   2.835   4.616  11.495 -0.4033  0.4950  0.3325
   83SAPS   C13 7753   2.987   4.701  11.627  0.3590  0.5801 -0.6092
   83SAPS  O13A 7754   3.082   4.639  11.680  0.1132  0.2298  0.2613
   83SAPS  O13B 7755   2.914   4.786  11.684  0.1577  0.5205  0.0888
   83SAPS   C11 7756   2.931   4.783  11.401  0.1298 -0.2496  0.4371
   83SAPS  H11A 7757   3.036   4.816  11.383 -0.3010  0.9631  0.0774
   83SAPS  H11B 7758   2.879   4.859  11.463  1.0478 -0.6074  1.6932
   83SAPS     P 7759   2.855   4.884  11.168 -0.4146 -0.0517 -0.0596
   83SAPS   O13 7760   2.804   5.007  11.244 -0.3687  0.0098  0.2742
   83SAPS   O14 7761   2.987   4.898  11.105 -0.4141 -0.1297 -0.1053
   83SAPS   O12 7762   2.864   4.768  11.277  0.0874 -0.1537 -0.0880
   83SAPS   O11 7763   2.744   4.829  11.064 -0.5477 -0.8091 -0.1376
   83SAPS    C1 7764   2.765   4.704  10.993  0.1524  0.4492 -0.6371
   83SAPS    HA 7765   2.836   4.644  11.053  1.7342  0.8833 -2.0264
   83SAPS    HB 7766   2.665   4.656  10.988  0.8303 -1.2953  1.2883
   83SAPS    C2 7767   2.833   4.734  10.866 -1.1488 -0.6037 -0.3713
   83SAPS    HS 7768   2.930   4.775  10.902 -0.6528 -2.8293  1.0342
   83SAPS   O21 7769   2.757   4.832  10.798 -0.8249  0.5817 -0.4497
   83SAPS   C21 7770   2.825   4.937  10.758  0.3811  0.4058 -0.3563
   83SAPS   O22 7771   2.933   4.973  10.796  0.2664 -0.3266  0.1276
   83SAPS   C22 7772   2.753   5.006  10.639  0.1417  0.1619  0.0257
   83SAPS   H2R 7773   2.764   4.933  10.556 -0.2835 -0.4480  0.4988
   83SAPS   H2S 7774   2.649   5.030  10.668  1.1073  0.1907  3.9473
   83SAPS    C3 7775   2.852   4.601  10.782  0.0463 -0.1005 -0.1805
   83SAPS    HX 7776   2.759   4.543  10.797  0.4144 -0.2364  1.7639
   83SAPS    HY 7777   2.939   4.547  10.824  0.6892 -0.9377 -2.4538
   83SAPS   O31 7778   2.894   4.626  10.652  0.8133  0.1293  0.5830
   83SAPS   C31 7779   2.883   4.529  10.559 -0.0939  0.0525 -0.4898
   83SAPS   O32 7780   2.842   4.420  10.585 -0.2605  0.9524 -0.2847
   83SAPS   C32 7781   2.946   4.571  10.432  0.2642  0.7529 -0.6272
   83SAPS   H2X 7782   3.053   4.543  10.441 -0.2556 -1.2095  0.0213
   83SAPS   H2Y 7783   2.937   4.681  10.438 -1.1212  0.5948  0.7955
   83SAPS   C23 7784   2.824   5.130  10.584  0.0615  0.7568 -0.1148
   83SAPS   H3R 7785   2.925   5.107  10.545 -0.0982  1.9312 -1.3330
   83SAPS   H3S 7786   2.844   5.205  10.663  1.1772  1.0711 -0.6731
   83SAPS   C24 7787   2.745   5.194  10.466 -0.7218  0.4665  0.5009
   83SAPS   H4R 7788   2.815   5.276  10.437  0.5629 -0.0064  2.1297
   83SAPS   H4S 7789   2.649   5.229  10.510  0.2352  1.7796  1.6320
   83SAPS   C25 7790   2.726   5.096  10.353 -0.5037  0.3440  0.5293
   83SAPS   H5R 7791   2.640   5.034  10.381 -0.3363  0.1654  0.6492
   83SAPS   C26 7792   2.797   5.080  10.244 -0.0416  0.5332  0.6208
   83SAPS   H6R 7793   2.772   5.010  10.163  1.8274  2.1471 -1.4544
   83SAPS   C27 7794   2.910   5.169  10.195  0.6583  0.0260  0.5537
   83SAPS   H7R 7795   2.875   5.268  10.229  0.2176 -0.4054  1.4028
   83SAPS   H7S 7796   2.906   5.170  10.084 -0.2013  1.6016  0.5748
   83SAPS   C28 7797   3.038   5.141  10.257  0.0697 -0.0651 -0.6072
   83SAPS   H8R 7798   3.052   5.043  10.305  0.0339  0.1251 -0.1989
   83SAPS   C29 7799   3.136   5.235  10.273  0.0117 -0.4216 -0.1009
   83SAPS   H9R 7800   3.234   5.208  10.315 -0.8863 -1.8369  1.1622
   83SAPS  C210 7801   3.133   5.380  10.216 -0.7172  0.6805 -0.1817
   83SAPS  H10R 7802   3.031   5.423  10.216 -1.8977 -1.8905 -1.1502
   83SAPS  H10S 7803   3.156   5.381  10.107 -0.1162  2.3435 -0.0678
   83SAPS  C211 7804   3.223   5.467  10.300  0.0380 -0.6171  0.5052
   83SAPS  H11R 7805   3.225   5.447  10.408  2.1807 -5.0383 -0.1135
   83SAPS  C212 7806   3.295   5.577  10.256  0.8251  0.4763 -0.5666
   83SAPS  H12R 7807   3.352   5.636  10.329 -0.3494 -1.0429  1.6780
   83SAPS  C213 7808   3.276   5.617  10.112  0.0326  0.8926 -0.2198
   83SAPS  H13R 7809   3.170   5.629  10.078  0.0051  1.0262 -0.0850
   83SAPS  H13S 7810   3.308   5.539  10.039 -0.3603 -0.7714  1.3347
   83SAPS  C214 7811   3.366   5.731  10.082 -0.0337  0.3310 -0.0877
   83SAPS  H14R 7812   3.433   5.762  10.164  0.7924  0.9370 -0.9836
   83SAPS  C215 7813   3.361   5.813   9.980 -0.2254  0.0226 -0.6310
   83SAPS  H15R 7814   3.438   5.890   9.964 -0.6969  0.8960  1.0286
   83SAPS  C216 7815   3.263   5.801   9.867 -0.4475  0.5915 -0.0436
   83SAPS  H16R 7816   3.250   5.907   9.834  0.4345 -0.0043 -2.5016
   83SAPS  H16S 7817   3.166   5.761   9.903 -1.2901  0.1392 -2.5728
   83SAPS  C217 7818   3.298   5.717   9.741 -0.0351 -0.1790 -1.0901
   83SAPS  H17R 7819   3.339   5.622   9.780  0.7973  1.4688  2.4565
   83SAPS  H17S 7820   3.384   5.766   9.692  0.1222 -1.2818 -1.9601
   83SAPS  C218 7821   3.178   5.691   9.656 -0.5559 -0.0373 -0.6248
   83SAPS  H18R 7822   3.133   5.789   9.630 -1.3972 -0.3237 -0.2722
   83SAPS  H18S 7823   3.098   5.640   9.713 -0.3006  2.5582  2.3663
   83SAPS  C219 7824   3.211   5.619   9.519 -0.3931 -0.2046 -0.1827
   83SAPS  H19R 7825   3.303   5.671   9.484  2.2673 -2.5626  2.6768
   83SAPS  H19S 7826   3.126   5.640   9.452 -0.0804 -1.4893 -1.0133
   83SAPS  C220 7827   3.232   5.465   9.511 -0.3622  0.0845 -0.0568
   83SAPS  H20R 7828   3.241   5.435   9.405 -1.6495 -0.4324 -0.0279
   83SAPS  H20S 7829   3.143   5.411   9.550  0.6966 -1.0911  0.8357
   83SAPS  H20T 7830   3.321   5.434   9.570 -1.1241 -2.2505 -0.0387
   83SAPS   C33 7831   2.867   4.510  10.317  0.0343 -0.6344  0.2883
   83SAPS   H3X 7832   2.781   4.574  10.289  0.2368 -0.2512  0.5453
   83SAPS   H3Y 7833   2.847   4.400  10.321  0.6267 -0.7039  3.1283
   83SAPS   C34 7834   2.951   4.515  10.184 -0.1059  0.6332  0.6714
   83SAPS   H4X 7835   2.891   4.460  10.108  1.9019  1.3125 -1.5380
   83SAPS   H4Y 7836   3.039   4.448  10.196  0.1934  1.0272  0.7214
   83SAPS   C35 7837   3.006   4.645  10.148 -0.7959 -0.6149  0.1199
   83SAPS   H5X 7838   3.100   4.663  10.204 -1.4625  1.4038  0.6689
   83SAPS   H5Y 7839   2.938   4.728  10.175 -1.6135 -0.1065 -3.0246
   83SAPS   C36 7840   3.020   4.661   9.998  0.4345 -0.6330  0.2172
   83SAPS   H6X 7841   2.922   4.691   9.955  0.5924 -1.7634 -0.9970
   83SAPS   H6Y 7842   3.057   4.571   9.945  0.3505 -0.7465  0.3485
   83SAPS   C37 7843   3.121   4.762   9.950 -0.4233 -0.6898 -0.5543
   83SAPS   H7X 7844   3.221   4.734   9.988 -0.6614  0.0387  0.6868
   83SAPS   H7Y 7845   3.100   4.866   9.984  0.0766 -0.8135  0.1550
   83SAPS   C38 7846   3.153   4.760   9.799 -0.5623 -0.2961 -0.4148
   83SAPS   H8X 7847   3.191   4.663   9.760  0.9724  0.3681 -0.6581
   83SAPS   H8Y 7848   3.238   4.830   9.780  1.1797 -1.2082  3.0599
   83SAPS   C39 7849   3.036   4.803   9.713  0.6079  1.6549 -0.2165
   83SAPS   H9X 7850   2.972   4.713   9.727  0.4520  1.8705  0.4656
   83SAPS   H9Y 7851   3.057   4.817   9.604 -1.7226  1.3008 -0.7750
   83SAPS  C310 7852   2.965   4.926   9.779 -0.4928  0.4255 -0.1320
   83SAPS  H10X 7853   3.036   5.001   9.819  0.1758 -0.0325 -0.4392
   83SAPS  H10Y 7854   2.918   4.885   9.871  0.0876 -0.8967 -0.4014
   83SAPS  C311 7855   2.854   4.988   9.690 -0.6277  0.3253 -0.6043
   83SAPS  H11X 7856   2.804   5.062   9.757  0.1173  0.3525 -0.0699
   83SAPS  H11Y 7857   2.791   4.899   9.669 -1.2249  0.3269  1.0087
   83SAPS  C312 7858   2.915   5.038   9.553  0.4207  0.6854  0.1868
   83SAPS  H12X 7859   3.025   5.022   9.557  0.0730 -1.8098  1.8903
   83SAPS  H12Y 7860   2.890   5.146   9.548 -1.7619  0.1845 -0.8056
   83SAPS  C313 7861   2.865   4.966   9.427 -0.0637 -0.4631 -0.0809
   83SAPS  H13X 7862   2.907   4.863   9.425  0.7000 -0.2292  2.0273
   83SAPS  H13Y 7863   2.911   5.014   9.339 -2.5084  2.9330  0.3091
   83SAPS  C314 7864   2.717   4.947   9.409 -0.2425  0.0932  0.5364
   83SAPS  H14X 7865   2.671   5.044   9.383  0.6962  0.3859 -0.0723
   83SAPS  H14Y 7866   2.666   4.915   9.502 -1.7606 -0.1403 -0.3461
   83SAPS  C315 7867   2.681   4.837   9.304 -0.1568 -0.2819 -0.0428
   83SAPS  H15X 7868   2.577   4.803   9.321 -1.0298  2.1340 -0.0806
   83SAPS  H15Y 7869   2.743   4.750   9.333  0.6997  1.0790  2.5786
   83SAPS  C316 7870   2.708   4.875   9.159  0.7127 -0.5877 -0.1067
   83SAPS  H16X 7871   2.814   4.903   9.139  1.2846 -1.0440  2.0644
   83SAPS  H16Y 7872   2.637   4.956   9.132 -0.1256 -1.3980 -0.3901
   83SAPS  C317 7873   2.675   4.766   9.057 -0.2242 -0.7027 -0.0859
   83SAPS  H17X 7874   2.718   4.673   9.101  2.3599 -0.3383 -1.6593
   83SAPS  H17Y 7875   2.734   4.793   8.967 -2.3712  1.3571 -0.9889
   83SAPS  C318 7876   2.523   4.756   9.007  0.0030 -0.4460  0.0974
   83SAPS  H18X 7877   2.519   4.674   8.932 -0.4325  1.2524 -1.8270
   83SAPS  H18Y 7878   2.500   4.849   8.950  2.6962 -0.1852 -0.6823
   83SAPS  H18Z 7879   2.454   4.738   9.092  1.0088 -0.9734  0.8147
   84SAPS     N 7880   3.260   4.871  11.069  0.2963  0.0846 -0.0709
   84SAPS   HN1 7881   3.157   4.880  11.084  0.1295  0.5860 -1.3668
   84SAPS   HN2 7882   3.295   4.941  11.000  2.3959 -1.8974 -1.1255
   84SAPS   HN3 7883   3.276   4.775  11.033 -0.9927  0.2184 -1.0752
   84SAPS   C12 7884   3.339   4.873  11.190  0.3784  0.1040 -0.2365
   84SAPS  H12A 7885   3.322   4.964  11.246  0.0066  0.2838 -0.6356
   84SAPS   C13 7886   3.310   4.762  11.295 -0.4734 -0.8295 -0.1031
   84SAPS  O13A 7887   3.229   4.676  11.268  0.0354  0.2391  0.0833
   84SAPS  O13B 7888   3.379   4.752  11.398  0.0010  0.2965  0.2012
   84SAPS   C11 7889   3.494   4.861  11.154  0.2615  0.1862  0.3757
   84SAPS  H11A 7890   3.524   4.776  11.090  3.0153  1.5873 -0.3667
   84SAPS  H11B 7891   3.559   4.855  11.244  0.9521 -0.0550 -0.1435
   84SAPS     P 7892   3.649   5.025  11.027  0.3386  0.3648  0.0127
   84SAPS   O13 7893   3.630   5.146  10.938  0.0332  0.6115 -0.2805
   84SAPS   O14 7894   3.756   5.032  11.131  0.6386  0.5853 -0.2704
   84SAPS   O12 7895   3.517   4.986  11.086  0.1198 -0.0642 -0.2439
   84SAPS   O11 7896   3.670   4.897  10.941 -0.1194 -0.6050  0.1439
   84SAPS    C1 7897   3.595   4.880  10.820  0.2258  0.5888  0.2880
   84SAPS    HA 7898   3.562   4.776  10.805  1.4430  0.4373 -1.7656
   84SAPS    HB 7899   3.499   4.935  10.831  0.2334  0.1812  3.5560
   84SAPS    C2 7900   3.660   4.913  10.679  0.0333  0.1549 -0.0240
   84SAPS    HS 7901   3.580   4.891  10.606 -1.5609  1.7161  1.1423
   84SAPS   O21 7902   3.777   4.831  10.659 -0.8060  0.0646 -0.0461
   84SAPS   C21 7903   3.751   4.705  10.613  1.0806  0.0165  0.2619
   84SAPS   O22 7904   3.648   4.646  10.621 -0.0132  0.9717  0.1126
   84SAPS   C22 7905   3.869   4.662  10.532  0.0742 -0.4719 -1.1652
   84SAPS   H2R 7906   3.909   4.754  10.484 -1.4403  0.7257 -0.2338
   84SAPS   H2S 7907   3.955   4.619  10.589 -0.7661 -1.8015 -0.8639
   84SAPS    C3 7908   3.699   5.065  10.640 -0.2794 -0.4994 -0.3477
   84SAPS    HX 7909   3.775   5.091  10.717  0.4263 -1.1582 -0.7964
   84SAPS    HY 7910   3.603   5.118  10.657 -0.6644 -1.3215  0.0986
   84SAPS   O31 7911   3.739   5.069  10.507 -0.1364  0.6459 -0.0034
   84SAPS   C31 7912   3.866   5.070  10.482 -0.2740 -0.1091  0.5848
   84SAPS   O32 7913   3.960   5.061  10.559  0.3736 -0.0242  0.1255
   84SAPS   C32 7914   3.871   5.088  10.336 -0.3520  0.0573 -0.3156
   84SAPS   H2X 7915   3.822   5.184  10.311  1.5957  1.3276  0.4575
   84SAPS   H2Y 7916   3.806   5.012  10.288 -0.2586 -2.3360  2.9525
   84SAPS   C23 7917   3.829   4.554  10.433  0.0559  0.3261 -0.1604
   84SAPS   H3R 7918   3.758   4.476  10.468  2.4382 -1.0600  1.8130
   84SAPS   H3S 7919   3.916   4.489  10.410 -0.1542 -0.5142  1.3130
   84SAPS   C24 7920   3.769   4.612  10.304  0.3695 -0.3910  0.1724
   84SAPS   H4R 7921   3.814   4.710  10.275 -0.7308 -0.8611 -3.8105
   84SAPS   H4S 7922   3.663   4.641  10.319  0.7874  1.0637  0.4682
   84SAPS   C25 7923   3.767   4.515  10.189  0.5882  0.6740 -0.1686
   84SAPS   H5R 7924   3.871   4.486  10.170  0.5869  0.6570 -0.1497
   84SAPS   C26 7925   3.667   4.454  10.120  0.4954 -0.3588 -0.9562
   84SAPS   H6R 7926   3.699   4.377  10.049 -0.3420 -2.3116  0.6808
   84SAPS   C27 7927   3.520   4.480  10.134 -0.5488  0.3408  0.2436
   84SAPS   H7R 7928   3.495   4.577  10.085  1.1046  0.5026 -0.3200
   84SAPS   H7S 7929   3.494   4.493  10.242 -1.4308 -0.3780  0.1290
   84SAPS   C28 7930   3.426   4.370  10.079  0.7477 -0.5222  0.0994
   84SAPS   H8R 7931   3.388   4.300  10.155  0.4620 -1.2695 -0.7145
   84SAPS   C29 7932   3.386   4.363   9.950 -0.5986  0.2047  0.0903
   84SAPS   H9R 7933   3.316   4.279   9.933 -1.5261  1.1165 -0.7250
   84SAPS  C210 7934   3.424   4.449   9.832 -0.5951 -0.0744  0.2769
   84SAPS  H10R 7935   3.427   4.556   9.861 -0.0642 -0.4681  1.8107
   84SAPS  H10S 7936   3.344   4.443   9.756 -0.5403  1.5466  0.0519
   84SAPS  C211 7937   3.558   4.417   9.783  0.3172  0.3354  0.0134
   84SAPS  H11R 7938   3.630   4.374   9.854 -0.2220 -0.4475  0.0882
   84SAPS  C212 7939   3.590   4.439   9.652 -0.4086 -0.6794  0.1211
   84SAPS  H12R 7940   3.693   4.414   9.622 -0.2261 -0.1782  0.3204
   84SAPS  C213 7941   3.499   4.494   9.544 -0.4786 -0.1505  0.3488
   84SAPS  H13R 7942   3.547   4.580   9.492 -0.0375 -1.2866 -1.1828
   84SAPS  H13S 7943   3.404   4.543   9.575 -1.9494 -2.1408 -0.7823
   84SAPS  C214 7944   3.441   4.395   9.442  0.2465 -0.3957 -0.5001
   84SAPS  H14R 7945   3.377   4.318   9.487  1.2300 -0.2874  1.1577
   84SAPS  C215 7946   3.452   4.402   9.313  0.9699  0.4657  0.1158
   84SAPS  H15R 7947   3.411   4.312   9.263  2.2269 -0.4703  0.7089
   84SAPS  C216 7948   3.537   4.505   9.241 -0.0169 -0.1199  0.7147
   84SAPS  H16R 7949   3.643   4.471   9.237  0.2954  0.9249 -1.9012
   84SAPS  H16S 7950   3.549   4.605   9.287  0.0585 -0.2282  0.9353
   84SAPS  C217 7951   3.509   4.524   9.096 -0.1016 -0.2141  0.2881
   84SAPS  H17R 7952   3.485   4.434   9.036 -0.0775 -0.2926  0.3963
   84SAPS  H17S 7953   3.591   4.574   9.040  0.4071  0.1424  1.3337
   84SAPS  C218 7954   3.393   4.629   9.081 -0.7740 -0.3083  0.9221
   84SAPS  H18R 7955   3.413   4.702   9.000 -1.6722 -1.5457 -0.4678
   84SAPS  H18S 7956   3.378   4.691   9.172 -0.8422 -1.5931  1.8094
   84SAPS  C219 7957   3.256   4.566   9.043 -0.1955 -0.6610  0.4359
   84SAPS  H19R 7958   3.182   4.649   9.043  0.3001 -0.1996  1.2114
   84SAPS  H19S 7959   3.235   4.495   9.125 -1.1230 -0.1096  0.6842
   84SAPS  C220 7960   3.248   4.476   8.915  0.5501 -0.0724 -0.8449
   84SAPS  H20R 7961   3.321   4.393   8.916 -1.5162 -1.9807 -0.1975
   84SAPS  H20S 7962   3.288   4.540   8.832  2.9041  0.3932  0.5507
   84SAPS  H20T 7963   3.144   4.440   8.901  0.2607 -0.2353  1.3884
   84SAPS   C33 7964   4.014   5.098  10.280 -0.3214  0.6244 -0.3228
   84SAPS   H3X 7965   4.066   5.002  10.300 -2.9413 -0.8299 -0.0964
   84SAPS   H3Y 7966   4.071   5.178  10.332  0.9438 -0.4706  0.0365
   84SAPS   C34 7967   4.004   5.132  10.128 -0.0484  0.1256 -0.7365
   84SAPS   H4X 7968   4.105   5.147  10.084 -0.1448 -0.6323 -1.2308
   84SAPS   H4Y 7969   3.948   5.228  10.119 -1.2524 -0.6250 -1.4427
   84SAPS   C35 7970   3.921   5.037  10.041  0.0745  0.1807  0.4233
   84SAPS   H5X 7971   3.923   5.075   9.937  0.9790 -0.6438  0.1240
   84SAPS   H5Y 7972   3.817   5.040  10.080  0.0040  0.1057  0.2430
   84SAPS   C36 7973   3.980   4.895  10.038 -0.0922 -0.9660  0.2243
   84SAPS   H6X 7974   3.996   4.856  10.141  0.0003  0.5112  0.7868
   84SAPS   H6Y 7975   4.084   4.909  10.002 -1.1305  1.3147 -2.2344
   84SAPS   C37 7976   3.901   4.797   9.953  0.1900 -0.0709  0.4407
   84SAPS   H7X 7977   3.801   4.839   9.931  0.4966 -0.3612 -1.7073
   84SAPS   H7Y 7978   3.881   4.708  10.016 -2.2091 -1.1642 -1.6822
   84SAPS   C38 7979   3.975   4.755   9.826  0.7589 -0.1555  0.5574
   84SAPS   H8X 7980   4.065   4.694   9.848  0.2827 -0.1699  2.6216
   84SAPS   H8Y 7981   4.013   4.843   9.769 -1.6256  0.2496 -0.5208
   84SAPS   C39 7982   3.886   4.677   9.721  0.2022 -0.5527 -0.0264
   84SAPS   H9X 7983   3.789   4.731   9.724  0.0483 -0.7520 -1.2833
   84SAPS   H9Y 7984   3.863   4.575   9.758 -3.0202  0.1175  0.0690
   84SAPS  C310 7985   3.944   4.697   9.574 -0.4494 -1.1257 -0.4809
   84SAPS  H10X 7986   4.055   4.685   9.581 -0.5517 -2.2483 -0.5036
   84SAPS  H10Y 7987   3.925   4.800   9.538  1.4337 -0.4734  0.2556
   84SAPS  C311 7988   3.870   4.614   9.468  0.0840 -0.5617 -0.6510
   84SAPS  H11X 7989   3.762   4.642   9.466  0.8841  3.0206 -0.6508
   84SAPS  H11Y 7990   3.876   4.506   9.491  0.6934 -0.2780  0.5973
   84SAPS  C312 7991   3.932   4.648   9.331  0.7533  0.2842  0.3597
   84SAPS  H12X 7992   4.036   4.609   9.332  0.2026 -1.8175 -3.6309
   84SAPS  H12Y 7993   3.941   4.758   9.328  4.5256  0.0821 -1.5315
   84SAPS  C313 7994   3.864   4.593   9.198 -0.2680 -0.1375 -0.3344
   84SAPS  H13X 7995   3.771   4.653   9.186  1.7979  3.4625 -0.0051
   84SAPS  H13Y 7996   3.854   4.483   9.210 -1.3733  0.0110  0.2261
   84SAPS  C314 7997   3.944   4.619   9.065 -0.0250  0.2666 -0.0894
   84SAPS  H14X 7998   4.043   4.571   9.080 -0.7102 -0.8995  0.8678
   84SAPS  H14Y 7999   3.968   4.724   9.038  1.3565 -0.3236 -1.3171
   84SAPS  C315 8000   3.882   4.548   8.948 -0.1853 -0.0975  0.3885
   84SAPS  H15X 8001   3.774   4.571   8.952  0.1110  1.2988  1.3046
   84SAPS  H15Y 8002   3.879   4.438   8.963 -0.0089 -0.0087  1.1405
   84SAPS  C316 8003   3.949   4.577   8.817  0.3245 -0.2368 -0.1494
   84SAPS  H16X 8004   3.972   4.686   8.821  0.0448 -0.1598 -0.6055
   84SAPS  H16Y 8005   3.886   4.538   8.735 -0.1849 -3.9080  1.8155
   84SAPS  C317 8006   4.091   4.511   8.800 -0.1713  0.0488 -0.6979
   84SAPS  H17X 8007   4.093   4.406   8.837 -0.4102  0.6045  0.9476
   84SAPS  H17Y 8008   4.164   4.563   8.865 -0.0955  0.1619 -0.8753
   84SAPS  C318 8009   4.137   4.513   8.656 -0.6106 -0.7422  0.6172
   84SAPS  H18X 8010   4.062   4.462   8.592 -0.0327  0.5782 -1.1911
   84SAPS  H18Y 8011   4.231   4.458   8.635 -0.1955 -0.4747  1.7194
   84SAPS  H18Z 8012   4.151   4.619   8.624  1.6781 -0.9478  0.7793
   85SAPS     N 8013   0.395   5.678  11.322  0.4756 -0.1964 -0.1932
   85SAPS   HN1 8014   0.374   5.779  11.334 -3.5725 -0.9685  0.6242
   85SAPS   HN2 8015   0.335   5.638  11.247  0.9488 -0.0027 -0.6753
   85SAPS   HN3 8016   0.364   5.627  11.407  0.8139  1.7008  1.1236
   85SAPS   C12 8017   0.537   5.655  11.285  0.4744  0.2171  0.2801
   85SAPS  H12A 8018   0.597   5.714  11.352  0.2647 -1.6459  2.2080
   85SAPS   C13 8019   0.581   5.508  11.314 -0.4434 -0.4003 -0.1979
   85SAPS  O13A 8020   0.498   5.437  11.375  0.0486 -0.0606 -0.4086
   85SAPS  O13B 8021   0.695   5.469  11.273  0.0623  0.6782  0.7170
   85SAPS   C11 8022   0.566   5.707  11.135  0.2864  0.4544 -0.5027
   85SAPS  H11A 8023   0.501   5.640  11.075 -1.6628  1.7607  0.0427
   85SAPS  H11B 8024   0.672   5.705  11.105  0.2634  0.1971 -0.5697
   85SAPS     P 8025   0.440   5.899  11.009  0.2405  0.2169  0.2637
   85SAPS   O13 8026   0.343   5.799  10.965 -0.4365 -0.4200 -0.5692
   85SAPS   O14 8027   0.396   6.030  11.052  0.5769  0.1429 -0.5599
   85SAPS   O12 8028   0.521   5.837  11.122  0.2259  0.3546 -0.5917
   85SAPS   O11 8029   0.544   5.917  10.892  0.1960 -0.4425  0.3659
   85SAPS    C1 8030   0.687   5.914  10.889 -0.1215  0.0845 -0.9201
   85SAPS    HA 8031   0.726   6.017  10.902  0.8580 -0.4268  0.4685
   85SAPS    HB 8032   0.726   5.862  10.979 -2.0909  0.3496  0.1305
   85SAPS    C2 8033   0.741   5.850  10.755  0.2094 -0.3758 -0.9447
   85SAPS    HS 8034   0.851   5.849  10.767  0.5004  0.9355 -3.0927
   85SAPS   O21 8035   0.709   5.928  10.635  0.4177 -1.0354 -0.0648
   85SAPS   C21 8036   0.759   6.054  10.632  0.3584 -0.3178 -0.3744
   85SAPS   O22 8037   0.826   6.109  10.718 -0.0294  0.7065  0.1879
   85SAPS   C22 8038   0.724   6.113  10.491 -0.5260 -0.3708  0.3623
   85SAPS   H2R 8039   0.671   6.207  10.519 -1.1628 -0.6490  0.1061
   85SAPS   H2S 8040   0.818   6.138  10.438 -1.3180  0.8764 -0.5137
   85SAPS    C3 8041   0.670   5.716  10.737 -0.8435  0.0070  0.3926
   85SAPS    HX 8042   0.561   5.721  10.715 -1.4258 -1.1098  2.6567
   85SAPS    HY 8043   0.681   5.654  10.829 -0.0589  0.2052  0.4400
   85SAPS   O31 8044   0.737   5.649  10.625  0.0286 -0.1764 -0.4532
   85SAPS   C31 8045   0.675   5.648  10.515 -0.4790  0.4210 -0.1247
   85SAPS   O32 8046   0.568   5.710  10.488  0.0461  0.1064 -0.3882
   85SAPS   C32 8047   0.744   5.544  10.423  0.3227 -0.1425 -0.2088
   85SAPS   H2X 8048   0.737   5.443  10.468  1.0333  0.4487  1.2761
   85SAPS   H2Y 8049   0.850   5.576  10.426  0.7195 -1.4289  0.4096
   85SAPS   C23 8050   0.654   6.015  10.393 -0.4746 -0.1102 -0.1971
   85SAPS   H3R 8051   0.573   5.963  10.449  1.9689 -1.4598  2.3621
   85SAPS   H3S 8052   0.718   5.927  10.370  2.1443  1.1478  1.8309
   85SAPS   C24 8053   0.598   6.077  10.267 -0.1547  0.1698  0.3509
   85SAPS   H4R 8054   0.676   6.144  10.228  2.6329 -1.1805  3.1336
   85SAPS   H4S 8055   0.510   6.139  10.295 -0.5459  0.5153 -1.5454
   85SAPS   C25 8056   0.572   5.971  10.165 -0.1109  0.2836 -0.4667
   85SAPS   H5R 8057   0.570   5.867  10.200 -0.6195  0.7574  0.9986
   85SAPS   C26 8058   0.549   5.997  10.036  0.6103 -0.6217 -0.4126
   85SAPS   H6R 8059   0.512   5.914   9.974 -1.1269  0.4890 -0.9476
   85SAPS   C27 8060   0.539   6.131   9.968 -0.1118 -0.6210  0.3892
   85SAPS   H7R 8061   0.598   6.208  10.024 -0.0016 -0.2174 -0.2619
   85SAPS   H7S 8062   0.433   6.162   9.963 -0.9129 -3.1436  0.4023
   85SAPS   C28 8063   0.609   6.109   9.841 -0.1939 -0.2536 -0.8332
   85SAPS   H8R 8064   0.716   6.130   9.854 -0.0334  0.1083 -2.5027
   85SAPS   C29 8065   0.566   6.066   9.725 -0.1159  0.1797  0.1072
   85SAPS   H9R 8066   0.635   6.062   9.639  1.2875 -0.9557  1.2210
   85SAPS  C210 8067   0.430   6.005   9.704  0.3167  0.0323  0.1654
   85SAPS  H10R 8068   0.374   5.988   9.799  0.6516 -0.4203  0.2882
   85SAPS  H10S 8069   0.442   5.911   9.646  0.4956 -0.1217  0.4502
   85SAPS  C211 8070   0.343   6.096   9.624  0.1503 -0.3897 -0.3726
   85SAPS  H11R 8071   0.297   6.165   9.696  2.1486  0.9027 -0.2335
   85SAPS  C212 8072   0.313   6.098   9.495 -0.0446 -0.4886 -0.1489
   85SAPS  H12R 8073   0.242   6.177   9.465  2.3565  1.4477 -1.1142
   85SAPS  C213 8074   0.357   6.019   9.378  0.4560  0.3848 -0.2069
   85SAPS  H13R 8075   0.276   5.966   9.323  0.0151 -1.1465  1.8286
   85SAPS  H13S 8076   0.420   5.937   9.417 -0.7439  1.3058  4.1740
   85SAPS  C214 8077   0.435   6.107   9.282 -0.4357 -0.0615 -0.0983
   85SAPS  H14R 8078   0.511   6.165   9.336 -0.4294 -0.6049  0.4869
   85SAPS  C215 8079   0.444   6.106   9.145  0.1621 -0.6030 -0.3576
   85SAPS  H15R 8080   0.510   6.174   9.088  1.4121 -0.9662  0.6219
   85SAPS  C216 8081   0.364   6.021   9.055  0.1687  0.7375  0.3783
   85SAPS  H16R 8082   0.332   5.928   9.107  0.9561  0.3105  0.1215
   85SAPS  H16S 8083   0.433   5.982   8.978 -1.4278  0.4947 -0.9623
   85SAPS  C217 8084   0.246   6.089   8.992  0.0192  0.0003 -0.5253
   85SAPS  H17R 8085   0.203   6.024   8.913 -0.1796 -2.4798  1.5137
   85SAPS  H17S 8086   0.281   6.183   8.944 -2.6505  0.1642 -2.3697
   85SAPS  C218 8087   0.135   6.119   9.092 -0.0177  0.2211  0.3779
   85SAPS  H18R 8088   0.166   6.184   9.176  1.3469  0.0929 -0.0119
   85SAPS  H18S 8089   0.101   6.023   9.136 -1.6925  0.4293 -0.3673
   85SAPS  C219 8090   0.013   6.189   9.030  0.0712  0.5119  0.9669
   85SAPS  H19R 8091   0.044   6.284   8.982  0.7699 -1.8445 -3.8416
   85SAPS  H19S 8092  -0.062   6.200   9.111  1.8726  0.7250  2.6840
   85SAPS  C220 8093  -0.046   6.113   8.906  0.0969  0.2295 -0.1096
   85SAPS  H20R 8094  -0.008   6.152   8.809  1.2351  0.2521  0.3324
   85SAPS  H20S 8095  -0.155   6.134   8.902 -0.0776 -0.5838  0.3611
   85SAPS  H20T 8096  -0.038   6.004   8.921 -1.1613  0.3661  1.9163
   85SAPS   C33 8097   0.698   5.541  10.272  0.9906  0.3238  0.6479
   85SAPS   H3X 8098   0.722   5.632  10.212 -0.6693  1.2962  1.3840
   85SAPS   H3Y 8099   0.588   5.545  10.287  1.1039 -0.1124  1.6719
   85SAPS   C34 8100   0.722   5.414  10.190 -0.2791 -0.3238 -1.0024
   85SAPS   H4X 8101   0.717   5.331  10.262 -1.6110 -0.1834 -0.9135
   85SAPS   H4Y 8102   0.825   5.428  10.150 -0.2512  2.1295 -0.2234
   85SAPS   C35 8103   0.615   5.391  10.086  0.1445  0.8583 -0.0333
   85SAPS   H5X 8104   0.515   5.425  10.118 -0.3130  1.5110 -2.0631
   85SAPS   H5Y 8105   0.603   5.283  10.063 -1.3458  0.3507  2.7469
   85SAPS   C36 8106   0.650   5.449   9.946 -0.2547  0.2915  0.4496
   85SAPS   H6X 8107   0.586   5.412   9.864  1.1467 -0.8536 -0.1722
   85SAPS   H6Y 8108   0.756   5.418   9.934 -0.4860 -0.0072 -0.9344
   85SAPS   C37 8109   0.646   5.603   9.958  0.5244 -0.1237  0.4077
   85SAPS   H7X 8110   0.745   5.642   9.992 -0.1818  0.8499  1.4059
   85SAPS   H7Y 8111   0.580   5.633  10.041 -0.8194 -0.7259 -0.4056
   85SAPS   C38 8112   0.607   5.665   9.819 -0.8328 -0.1014 -0.5705
   85SAPS   H8X 8113   0.612   5.776   9.817  1.0076 -0.1709 -0.7606
   85SAPS   H8Y 8114   0.498   5.649   9.802 -0.7851 -1.1368  0.0457
   85SAPS   C39 8115   0.678   5.610   9.696  0.6060 -0.4015  0.2142
   85SAPS   H9X 8116   0.650   5.502   9.687  0.0790 -0.2155 -0.4796
   85SAPS   H9Y 8117   0.789   5.607   9.703  0.6896  0.8405 -0.3247
   85SAPS  C310 8118   0.631   5.687   9.572 -0.3757 -0.2310 -0.0612
   85SAPS  H10X 8119   0.647   5.796   9.588 -1.2557 -0.1657  0.4780
   85SAPS  H10Y 8120   0.520   5.689   9.564 -0.2194  0.5140 -3.4558
   85SAPS  C311 8121   0.695   5.636   9.439 -0.0178  0.2622  0.2928
   85SAPS  H11X 8122   0.664   5.530   9.427 -2.6580  0.9163  0.7736
   85SAPS  H11Y 8123   0.805   5.644   9.449  0.2616 -2.2205 -0.1876
   85SAPS  C312 8124   0.629   5.697   9.315  0.1105  0.6266  0.6547
   85SAPS  H12X 8125   0.649   5.805   9.329  1.1398  0.2802  2.0958
   85SAPS  H12Y 8126   0.520   5.672   9.314  0.3958 -1.0412 -2.3520
   85SAPS  C313 8127   0.689   5.637   9.180  0.1376  0.2765 -0.5661
   85SAPS  H13X 8128   0.684   5.526   9.178  1.7254  0.1775 -0.2934
   85SAPS  H13Y 8129   0.797   5.665   9.178  0.0389  0.6671 -0.4377
   85SAPS  C314 8130   0.625   5.696   9.060 -0.1582  0.2158  0.3699
   85SAPS  H14X 8131   0.616   5.804   9.082  0.0368  0.2477  0.2904
   85SAPS  H14Y 8132   0.517   5.675   9.042  0.2244 -0.9454 -0.7752
   85SAPS  C315 8133   0.698   5.677   8.931 -0.1327 -0.4436 -0.3377
   85SAPS  H15X 8134   0.691   5.569   8.904 -0.4802 -0.9511  1.5964
   85SAPS  H15Y 8135   0.804   5.707   8.948 -0.6178  1.0364  0.1922
   85SAPS  C316 8136   0.646   5.767   8.820 -0.2638 -0.7644 -1.0292
   85SAPS  H16X 8137   0.652   5.876   8.843  1.3210 -0.2896 -3.3502
   85SAPS  H16Y 8138   0.543   5.733   8.796 -0.9470 -0.1877  0.8230
   85SAPS  C317 8139   0.729   5.753   8.691 -0.5736  0.1350 -0.0078
   85SAPS  H17X 8140   0.683   5.817   8.613  1.0325  0.8841 -0.3747
   85SAPS  H17Y 8141   0.724   5.649   8.653  1.2166 -0.3021  0.8645
   85SAPS  C318 8142   0.872   5.802   8.697 -0.2654 -0.6393  0.2257
   85SAPS  H18X 8143   0.912   5.805   8.594 -1.7851  0.3311 -0.3585
   85SAPS  H18Y 8144   0.935   5.740   8.766 -2.1230 -2.9049 -0.0110
   85SAPS  H18Z 8145   0.860   5.909   8.726  0.1872 -0.5144 -0.0373
   86SAPS     N 8146   5.419   0.232  10.903  0.9560  0.4183  0.3661
   86SAPS   HN1 8147   5.492   0.159  10.893  1.2225  0.6818  0.3853
   86SAPS   HN2 8148   5.403   0.282  10.814  0.8268  0.4015  0.3791
   86SAPS   HN3 8149   5.447   0.306  10.971  1.1391  1.5117 -0.8742
   86SAPS   C12 8150   5.289   0.177  10.953 -0.3224  0.2560 -0.0588
   86SAPS  H12A 8151   5.257   0.110  10.875  0.0164 -1.4630  1.2146
   86SAPS   C13 8152   5.293   0.100  11.084  0.2452  0.2849  0.0157
   86SAPS  O13A 8153   5.395   0.114  11.162 -0.0394  0.8072  0.6593
   86SAPS  O13B 8154   5.204   0.018  11.109 -0.5237  0.2086  0.0554
   86SAPS   C11 8155   5.191   0.294  10.970  0.5719  0.9477 -0.4876
   86SAPS  H11A 8156   5.231   0.351  11.056 -2.1351 -0.3101  1.7828
   86SAPS  H11B 8157   5.093   0.252  11.001  1.0733 -1.8504 -2.3066
   86SAPS     P 8158   5.045   0.453  10.833  0.0349  0.1702 -0.2364
   86SAPS   O13 8159   4.981   0.464  10.964  0.3673 -0.3253 -1.2489
   86SAPS   O14 8160   5.069   0.579  10.765 -0.1186  0.3744  0.2711
   86SAPS   O12 8161   5.176   0.376  10.853 -0.0904 -0.3673  0.5209
   86SAPS   O11 8162   4.961   0.367  10.735  1.1359 -0.1273  0.4050
   86SAPS    C1 8163   4.966   0.224  10.725 -0.0180  0.3632  0.8750
   86SAPS    HA 8164   5.072   0.194  10.706 -0.4947 -1.2127  0.6095
   86SAPS    HB 8165   4.950   0.173  10.822  1.3788  2.3082  2.2143
   86SAPS    C2 8166   4.885   0.175  10.607 -0.1521  0.2733  0.4481
   86SAPS    HS 8167   4.929   0.078  10.577 -0.4200 -0.2475  1.6895
   86SAPS   O21 8168   4.893   0.264  10.493 -0.9951 -0.2903  0.5228
   86SAPS   C21 8169   5.013   0.299  10.450 -0.2104  0.1436 -0.4209
   86SAPS   O22 8170   5.120   0.258  10.490  0.5526 -0.1161 -0.2878
   86SAPS   C22 8171   4.990   0.400  10.339 -0.1721  0.4766  0.3519
   86SAPS   H2R 8172   4.970   0.326  10.259 -1.1153 -1.2836  2.1021
   86SAPS   H2S 8173   4.898   0.458  10.363 -0.5432 -0.1249  0.3813
   86SAPS    C3 8174   4.743   0.155  10.649  0.7391  0.0262 -0.6862
   86SAPS    HX 8175   4.709   0.259  10.671  2.1607  0.6755 -1.4054
   86SAPS    HY 8176   4.743   0.097  10.743  2.1257  0.4057 -0.4280
   86SAPS   O31 8177   4.667   0.081  10.547 -0.0067 -0.0741 -0.3848
   86SAPS   C31 8178   4.537   0.118  10.570 -0.1067  0.0168  0.2667
   86SAPS   O32 8179   4.489   0.187  10.657  0.0974 -0.4176 -0.2268
   86SAPS   C32 8180   4.445   0.068  10.455  0.0889 -0.1122 -0.2246
   86SAPS   H2X 8181   4.500   0.005  10.382 -1.1044  0.0950 -1.3504
   86SAPS   H2Y 8182   4.423   0.160  10.397 -1.0369  0.7377  1.4701
   86SAPS   C23 8183   5.118   0.475  10.307 -0.3755 -0.1959  0.2646
   86SAPS   H3R 8184   5.176   0.511  10.395 -0.8353  0.0263  0.4819
   86SAPS   H3S 8185   5.085   0.571  10.263  0.9439  0.1446 -0.0316
   86SAPS   C24 8186   5.211   0.422  10.201  0.0485  0.6648  0.6738
   86SAPS   H4R 8187   5.287   0.502  10.187  3.0418 -1.8646  1.1991
   86SAPS   H4S 8188   5.158   0.405  10.106 -0.5889  0.5669  1.0454
   86SAPS   C25 8189   5.298   0.307  10.257  0.7603 -0.0727  0.2386
   86SAPS   H5R 8190   5.337   0.320  10.359  2.3544 -0.1236 -0.3358
   86SAPS   C26 8191   5.324   0.190  10.201 -0.0818 -0.3868  0.5206
   86SAPS   H6R 8192   5.361   0.105  10.260 -1.6359 -2.0952 -0.8571
   86SAPS   C27 8193   5.286   0.139  10.057  0.1248  0.0782 -0.1559
   86SAPS   H7R 8194   5.175   0.124  10.061  0.1590 -0.3372 -0.6119
   86SAPS   H7S 8195   5.327   0.036  10.045 -0.3419 -0.3655  1.6697
   86SAPS   C28 8196   5.326   0.207   9.928  0.2793  0.1133 -0.0593
   86SAPS   H8R 8197   5.419   0.263   9.942  0.2713 -0.1433  1.1978
   86SAPS   C29 8198   5.263   0.207   9.808  0.4321  0.1139  0.2060
   86SAPS   H9R 8199   5.289   0.281   9.732  0.2532  0.1097  0.1416
   86SAPS  C210 8200   5.128   0.146   9.781 -0.3349 -0.9016 -0.2768
   86SAPS  H10R 8201   5.105   0.049   9.829  2.5798 -2.0018 -0.9202
   86SAPS  H10S 8202   5.116   0.127   9.672 -1.4002 -1.0549 -0.1414
   86SAPS  C211 8203   5.010   0.235   9.821  0.0857 -0.0765 -0.7648
   86SAPS  H11R 8204   5.024   0.304   9.905  0.0543  1.4709 -2.0015
   86SAPS  C212 8205   4.890   0.226   9.759 -0.2431  0.1480  0.5453
   86SAPS  H12R 8206   4.808   0.286   9.802 -0.2503  1.3889 -1.0906
   86SAPS  C213 8207   4.859   0.133   9.644 -0.4459  0.2756  0.6989
   86SAPS  H13R 8208   4.881   0.033   9.687 -2.3156 -0.5597 -0.1836
   86SAPS  H13S 8209   4.926   0.146   9.556  0.9628 -3.3091  1.0790
   86SAPS  C214 8210   4.712   0.135   9.591  0.5360 -0.6599 -0.0410
   86SAPS  H14R 8211   4.638   0.171   9.663  1.2324  0.6576  0.0428
   86SAPS  C215 8212   4.671   0.075   9.479 -0.6307  0.4456  0.1581
   86SAPS  H15R 8213   4.566   0.087   9.450 -0.6574 -0.8669 -0.3615
   86SAPS  C216 8214   4.769   0.004   9.383  0.5302 -0.1403  0.0502
   86SAPS  H16R 8215   4.726  -0.097   9.365 -0.5778  0.1586  0.9175
   86SAPS  H16S 8216   4.859  -0.020   9.443  0.5952  1.3078  0.5561
   86SAPS  C217 8217   4.800   0.078   9.253 -0.5281  0.1758 -0.2073
   86SAPS  H17R 8218   4.883   0.024   9.202  0.3990  2.0543 -0.7997
   86SAPS  H17S 8219   4.840   0.177   9.284  1.9277 -0.6757 -0.4120
   86SAPS  C218 8220   4.682   0.098   9.160 -0.9733 -0.8541  0.1754
   86SAPS  H18R 8221   4.684   0.202   9.121 -1.4864 -0.5268  0.9913
   86SAPS  H18S 8222   4.583   0.078   9.207 -0.8935  0.4910  0.9766
   86SAPS  C219 8223   4.692  -0.003   9.044  0.3363 -0.4547 -0.3729
   86SAPS  H19R 8224   4.789  -0.057   9.030  0.3680 -0.9424  1.4755
   86SAPS  H19S 8225   4.674   0.052   8.949  0.1178 -1.8822 -1.1970
   86SAPS  C220 8226   4.588  -0.113   9.044  0.7219 -0.0671  0.2559
   86SAPS  H20R 8227   4.484  -0.073   9.053  0.6242  0.4413 -2.2349
   86SAPS  H20S 8228   4.609  -0.192   9.119 -0.2297  1.7176  2.5571
   86SAPS  H20T 8229   4.586  -0.158   8.942  2.5175  0.1255  0.1048
   86SAPS   C33 8230   4.323  -0.016  10.505 -0.2861  0.1475  0.8804
   86SAPS   H3X 8231   4.273   0.047  10.582 -4.1961 -1.5984  0.0431
   86SAPS   H3Y 8232   4.360  -0.107  10.557 -1.2395  0.4925  2.2126
   86SAPS   C34 8233   4.231  -0.046  10.389 -0.1264 -0.0167  0.7029
   86SAPS   H4X 8234   4.220   0.045  10.327  2.1681 -1.5735 -2.2475
   86SAPS   H4Y 8235   4.129  -0.068  10.426 -0.2507  0.1702  0.4711
   86SAPS   C35 8236   4.294  -0.146  10.285  0.1664 -0.2968 -0.4608
   86SAPS   H5X 8237   4.313  -0.243  10.336  0.6231  0.5988  1.1332
   86SAPS   H5Y 8238   4.390  -0.107  10.244 -0.0058  0.1033 -0.4788
   86SAPS   C36 8239   4.196  -0.177  10.172 -0.3411  1.0561  0.1564
   86SAPS   H6X 8240   4.191  -0.087  10.107  1.1512  0.1896 -1.2074
   86SAPS   H6Y 8241   4.092  -0.185  10.212  0.2735 -2.0384  1.4090
   86SAPS   C37 8242   4.241  -0.301  10.089 -0.0630  0.4695 -0.5951
   86SAPS   H7X 8243   4.273  -0.388  10.150  0.2287  0.6519 -0.4852
   86SAPS   H7Y 8244   4.330  -0.280  10.026 -1.2031 -1.8693 -3.2138
   86SAPS   C38 8245   4.130  -0.334   9.988  0.0220 -0.8595 -0.9899
   86SAPS   H8X 8246   4.107  -0.238   9.936 -2.4743 -0.0872  1.3052
   86SAPS   H8Y 8247   4.036  -0.361  10.040 -0.7685  2.6085 -0.3255
   86SAPS   C39 8248   4.173  -0.438   9.893  0.0972 -0.5271  0.8675
   86SAPS   H9X 8249   4.172  -0.540   9.936  1.2520 -1.2589 -0.7454
   86SAPS   H9Y 8250   4.278  -0.415   9.864  0.5431  0.1298  2.8725
   86SAPS  C310 8251   4.098  -0.441   9.761 -0.0296  0.6885  0.0649
   86SAPS  H10X 8252   4.113  -0.340   9.716 -0.8760  1.0388  0.5350
   86SAPS  H10Y 8253   3.992  -0.455   9.793  0.2708  1.2059  1.3233
   86SAPS  C311 8254   4.127  -0.552   9.664 -0.1581  0.4278  0.2670
   86SAPS  H11X 8255   4.089  -0.647   9.706  0.0676  0.9144  1.6005
   86SAPS  H11Y 8256   4.235  -0.568   9.644 -0.2601 -1.9981  1.2657
   86SAPS  C312 8257   4.072  -0.523   9.520 -0.7017  0.0984 -0.8943
   86SAPS  H12X 8258   4.133  -0.450   9.463 -0.0834 -1.6040 -2.5125
   86SAPS  H12Y 8259   3.976  -0.467   9.532  0.2961  1.5021  1.2036
   86SAPS  C313 8260   4.055  -0.643   9.434  0.1460  0.1226  0.2797
   86SAPS  H13X 8261   3.962  -0.697   9.459 -0.9213  1.8717  0.2856
   86SAPS  H13Y 8262   4.144  -0.708   9.445 -0.7174 -1.0166  0.6247
   86SAPS  C314 8263   4.030  -0.594   9.287  0.0649 -0.3011  0.7688
   86SAPS  H14X 8264   4.118  -0.532   9.259 -0.1112 -0.8271 -1.1196
   86SAPS  H14Y 8265   3.930  -0.547   9.281 -0.2699 -0.4837  3.5189
   86SAPS  C315 8266   4.016  -0.714   9.192  0.1336  0.7789  0.1473
   86SAPS  H15X 8267   3.942  -0.790   9.226  2.9257 -0.9970  2.8362
   86SAPS  H15Y 8268   4.114  -0.766   9.204 -0.3103 -0.0031  0.4973
   86SAPS  C316 8269   4.004  -0.676   9.049 -0.2286  0.2514  0.4330
   86SAPS  H16X 8270   4.080  -0.597   9.033 -0.0952  0.4846  2.1017
   86SAPS  H16Y 8271   3.902  -0.637   9.025 -1.2367 -2.6868 -0.5943
   86SAPS  C317 8272   4.015  -0.792   8.946 -0.5167  0.0687 -0.0909
   86SAPS  H17X 8273   4.122  -0.820   8.957 -1.2123 -2.3122  1.3999
   86SAPS  H17Y 8274   4.001  -0.743   8.848  1.6007  0.4609 -0.2379
   86SAPS  C318 8275   3.932  -0.918   8.971  0.0875  0.2644 -0.2372
   86SAPS  H18X 8276   3.949  -0.998   8.896 -0.0360  1.1173 -1.1981
   86SAPS  H18Y 8277   3.825  -0.886   8.974 -0.6213 -1.8598 -0.6563
   86SAPS  H18Z 8278   3.954  -0.970   9.066 -1.8895 -0.7694 -0.2832
   87SAPS     N 8279   1.625   0.966  10.994 -0.1812 -0.1272 -0.1518
   87SAPS   HN1 8280   1.567   0.977  11.080  1.1149 -0.3803  0.7857
   87SAPS   HN2 8281   1.622   1.054  10.938  0.2742 -0.1613 -0.2268
   87SAPS   HN3 8282   1.580   0.895  10.933 -1.0908  1.8247 -1.9170
   87SAPS   C12 8283   1.767   0.927  11.026 -0.4894 -0.0971 -1.2281
   87SAPS  H12A 8284   1.804   1.019  11.068 -1.2028  0.1805 -1.1940
   87SAPS   C13 8285   1.767   0.821  11.136  0.2895  0.3686 -0.4678
   87SAPS  O13A 8286   1.660   0.777  11.184  0.1376 -0.1801  0.1037
   87SAPS  O13B 8287   1.878   0.804  11.185  0.2276  0.1404  0.0514
   87SAPS   C11 8288   1.838   0.890  10.899  0.0294 -0.4238 -0.7553
   87SAPS  H11A 8289   1.772   0.812  10.855 -0.8659  0.3351 -0.7754
   87SAPS  H11B 8290   1.937   0.847  10.925  0.8048  1.8003  0.1132
   87SAPS     P 8291   1.961   1.104  10.843  0.1725 -0.1031 -0.1837
   87SAPS   O13 8292   1.909   1.239  10.822 -0.1050 -0.2310  0.3126
   87SAPS   O14 8293   2.020   1.080  10.978  0.4632 -0.3788 -0.3642
   87SAPS   O12 8294   1.851   1.001  10.805 -0.5032  0.0888  0.7986
   87SAPS   O11 8295   2.085   1.089  10.750  0.1995 -0.7226 -0.0668
   87SAPS    C1 8296   2.120   0.980  10.669 -0.0532  0.1755  0.4932
   87SAPS    HA 8297   2.225   0.952  10.692 -0.3411  0.3130  2.1102
   87SAPS    HB 8298   2.061   0.889  10.694  1.4269 -0.9789 -0.0644
   87SAPS    C2 8299   2.121   1.013  10.516 -0.5917 -0.0438 -0.1912
   87SAPS    HS 8300   2.185   1.104  10.507  0.0053 -0.4586 -0.1951
   87SAPS   O21 8301   1.988   1.058  10.477 -0.5071  0.5167  0.0564
   87SAPS   C21 8302   1.882   0.974  10.503 -0.3365 -0.1387  0.2756
   87SAPS   O22 8303   1.888   0.856  10.510  0.3379  0.0682 -0.2764
   87SAPS   C22 8304   1.762   1.063  10.508 -0.4665 -0.0178 -0.2223
   87SAPS   H2R 8305   1.685   0.999  10.556 -1.8996  2.0930  0.4844
   87SAPS   H2S 8306   1.782   1.146  10.579  2.1116 -0.9612  0.2547
   87SAPS    C3 8307   2.182   0.902  10.432  0.6481  0.2334  0.2553
   87SAPS    HX 8308   2.139   0.806  10.468  1.4898 -0.5700 -0.7911
   87SAPS    HY 8309   2.293   0.905  10.436  0.6159  2.5947  0.9444
   87SAPS   O31 8310   2.142   0.921  10.295  0.5465  0.6134  0.2054
   87SAPS   C31 8311   2.230   0.985  10.214 -0.3856 -0.2384 -0.2202
   87SAPS   O32 8312   2.337   1.031  10.249 -0.0547  0.3640  0.6025
   87SAPS   C32 8313   2.166   1.014  10.074 -0.3087  0.6094 -0.4119
   87SAPS   H2X 8314   2.164   1.125  10.069  0.8964  0.6892  0.4402
   87SAPS   H2Y 8315   2.062   0.977  10.069 -0.8487  1.6649  1.5733
   87SAPS   C23 8316   1.700   1.103  10.377 -0.5627 -0.7181 -0.1196
   87SAPS   H3R 8317   1.784   1.155  10.325  0.5717 -0.0618  2.1817
   87SAPS   H3S 8318   1.617   1.169  10.410 -0.8968 -1.7546  1.2120
   87SAPS   C24 8319   1.640   1.001  10.283 -0.1032 -0.2294 -0.7696
   87SAPS   H4R 8320   1.579   1.051  10.205 -1.2035 -0.7468 -0.2643
   87SAPS   H4S 8321   1.553   0.952  10.332 -1.4498  1.3404 -1.5049
   87SAPS   C25 8322   1.737   0.902  10.213 -0.0381 -0.2941  0.0616
   87SAPS   H5R 8323   1.762   0.810  10.268 -1.3226 -0.4017  0.4952
   87SAPS   C26 8324   1.801   0.921  10.094 -0.3056  0.1403  0.3859
   87SAPS   H6R 8325   1.872   0.849  10.051 -0.6655  0.2775 -0.4527
   87SAPS   C27 8326   1.776   1.035  10.006 -0.0584 -0.4515  0.4369
   87SAPS   H7R 8327   1.869   1.087   9.974 -2.9353  3.3811 -2.6967
   87SAPS   H7S 8328   1.712   1.114  10.052 -0.6768  0.5400 -1.9914
   87SAPS   C28 8329   1.706   0.973   9.884  0.2012  0.4840  0.0736
   87SAPS   H8R 8330   1.676   0.868   9.888 -1.4817  0.9242 -0.4165
   87SAPS   C29 8331   1.682   1.039   9.764  0.6499 -0.2417 -0.4638
   87SAPS   H9R 8332   1.631   0.989   9.680  1.4859 -1.3545 -0.3409
   87SAPS  C210 8333   1.713   1.181   9.745  0.5966 -0.4426  0.0301
   87SAPS  H10R 8334   1.772   1.192   9.651 -0.5557 -2.1623 -0.9611
   87SAPS  H10S 8335   1.775   1.224   9.826  0.2101  1.1598 -0.4752
   87SAPS  C211 8336   1.588   1.267   9.722 -0.2372  0.8697  0.0464
   87SAPS  H11R 8337   1.548   1.314   9.813  1.4136 -0.6316  1.6468
   87SAPS  C212 8338   1.504   1.279   9.617 -0.7666 -0.5941  1.3038
   87SAPS  H12R 8339   1.412   1.338   9.633 -2.3202 -2.8413  1.0242
   87SAPS  C213 8340   1.517   1.216   9.486  0.0700  0.1053  0.1835
   87SAPS  H13R 8341   1.430   1.152   9.460  1.8923 -2.0688 -0.9311
   87SAPS  H13S 8342   1.592   1.134   9.486 -0.1982 -0.1614  1.1473
   87SAPS  C214 8343   1.519   1.317   9.376  0.5925 -0.4962  0.1563
   87SAPS  H14R 8344   1.467   1.409   9.405 -1.1636 -1.3633 -0.1373
   87SAPS  C215 8345   1.551   1.286   9.249  0.0148  0.1275 -0.3370
   87SAPS  H15R 8346   1.541   1.355   9.164 -1.2634  0.0258 -0.2997
   87SAPS  C216 8347   1.588   1.150   9.197  0.3717  0.0487  0.6061
   87SAPS  H16R 8348   1.531   1.073   9.253 -0.9219  1.4039  1.2248
   87SAPS  H16S 8349   1.697   1.135   9.206  0.5263  0.4004 -0.4328
   87SAPS  C217 8350   1.540   1.123   9.049 -0.2735  0.2866 -0.1217
   87SAPS  H17R 8351   1.435   1.087   9.050  0.2424 -1.3260 -0.4078
   87SAPS  H17S 8352   1.601   1.036   9.016  1.6713  1.3528  0.5257
   87SAPS  C218 8353   1.564   1.230   8.945 -0.5773 -0.4055 -0.0938
   87SAPS  H18R 8354   1.664   1.271   8.971 -2.0208  2.7264  1.0321
   87SAPS  H18S 8355   1.490   1.311   8.961 -0.3557 -0.5769  1.9903
   87SAPS  C219 8356   1.563   1.183   8.798 -0.5110 -1.2930  0.7845
   87SAPS  H19R 8357   1.612   1.084   8.790 -2.9506 -2.5195 -0.0714
   87SAPS  H19S 8358   1.609   1.263   8.737 -0.3500 -0.6762  1.6920
   87SAPS  C220 8359   1.416   1.158   8.755 -0.3717 -0.2439 -0.3146
   87SAPS  H20R 8360   1.352   1.247   8.775 -1.8316 -1.1750 -0.7188
   87SAPS  H20S 8361   1.372   1.071   8.807 -2.3430 -0.9752 -2.9791
   87SAPS  H20T 8362   1.411   1.132   8.647 -1.6265  1.3506 -0.6917
   87SAPS   C33 8363   2.240   0.959   9.950 -0.5360  0.1847  0.1340
   87SAPS   H3X 8364   2.222   0.850   9.946  2.2591 -0.3828  0.7673
   87SAPS   H3Y 8365   2.350   0.976   9.959 -0.8294  1.0487  2.9572
   87SAPS   C34 8366   2.185   1.020   9.821  0.2379  0.7466  0.0925
   87SAPS   H4X 8367   2.188   1.130   9.836  2.2125  0.7306  0.0329
   87SAPS   H4Y 8368   2.079   0.987   9.808 -0.1349  1.6255  0.8049
   87SAPS   C35 8369   2.258   0.976   9.700  0.5188 -0.1700  0.6704
   87SAPS   H5X 8370   2.252   0.865   9.690 -0.3895 -0.0800  0.0105
   87SAPS   H5Y 8371   2.365   1.003   9.708  0.4542 -0.1927  1.7062
   87SAPS   C36 8372   2.198   1.039   9.569  0.6057  0.0495  0.8937
   87SAPS   H6X 8373   2.221   1.147   9.566  1.3327 -0.1171 -1.3681
   87SAPS   H6Y 8374   2.087   1.036   9.569  0.4507 -2.5009 -3.3746
   87SAPS   C37 8375   2.247   0.970   9.439 -0.5010 -0.5981 -0.4225
   87SAPS   H7X 8376   2.233   0.860   9.447 -2.5281 -0.5203 -2.0920
   87SAPS   H7Y 8377   2.357   0.983   9.447 -0.5684  0.7934 -1.4517
   87SAPS   C38 8378   2.187   1.007   9.301 -0.0104  0.5716  0.8351
   87SAPS   H8X 8379   2.171   1.116   9.295 -0.1561  0.4614 -1.9027
   87SAPS   H8Y 8380   2.091   0.960   9.271  1.8180 -0.8552 -3.4682
   87SAPS   C39 8381   2.288   0.953   9.192  0.1411  0.1727 -0.5718
   87SAPS   H9X 8382   2.292   0.842   9.183 -0.4031 -0.1106  2.0767
   87SAPS   H9Y 8383   2.386   0.967   9.243 -0.8166 -0.4317  1.5249
   87SAPS  C310 8384   2.270   1.013   9.056 -0.5738  0.5595  0.5485
   87SAPS  H10X 8385   2.262   1.122   9.077  1.2811  0.5573  1.4482
   87SAPS  H10Y 8386   2.180   0.979   9.001  0.3062  2.2945 -2.1465
   87SAPS  C311 8387   2.385   0.973   8.960  0.0468  0.4828 -0.0468
   87SAPS  H11X 8388   2.392   0.863   8.950  1.9912  0.5345  0.3740
   87SAPS  H11Y 8389   2.485   0.994   9.002  0.6913 -1.7381 -0.3793
   87SAPS  C312 8390   2.369   1.043   8.825  0.7561  0.4422  0.1563
   87SAPS  H12X 8391   2.344   1.147   8.856  1.3393 -0.2103  3.1796
   87SAPS  H12Y 8392   2.284   0.991   8.776  0.1526  0.1128  1.5107
   87SAPS  C313 8393   2.494   1.051   8.732  0.2633  0.1140 -0.0364
   87SAPS  H13X 8394   2.548   0.954   8.726 -0.1185 -0.1211  0.2942
   87SAPS  H13Y 8395   2.564   1.120   8.783  0.5894 -0.0394 -0.2743
   87SAPS  C314 8396   2.454   1.110   8.592 -0.0488  0.1718  0.0071
   87SAPS  H14X 8397   2.440   1.220   8.598 -0.8310  0.0801  0.0738
   87SAPS  H14Y 8398   2.362   1.050   8.571 -0.6582  0.8558  0.6478
   87SAPS  C315 8399   2.556   1.079   8.479  0.5292  0.6059 -0.1986
   87SAPS  H15X 8400   2.608   0.986   8.510  0.7288  1.1232  1.0698
   87SAPS  H15Y 8401   2.627   1.164   8.486  0.4060  0.6260  1.0339
   87SAPS  C316 8402   2.482   1.061   8.341 -0.0447 -0.4026  0.3335
   87SAPS  H16X 8403   2.387   1.118   8.326 -1.0083 -2.4723 -2.2573
   87SAPS  H16Y 8404   2.449   0.955   8.336 -0.5226 -0.2671  0.5217
   87SAPS  C317 8405   2.564   1.089   8.223  0.1970 -0.2426 -0.4578
   87SAPS  H17X 8406   2.492   1.098   8.140 -1.8980 -1.8322  1.0755
   87SAPS  H17Y 8407   2.635   1.003   8.211  0.1719 -0.0779 -1.9555
   87SAPS  C318 8408   2.658   1.209   8.219  0.1132 -0.3935  0.1714
   87SAPS  H18X 8409   2.731   1.203   8.302 -1.2478  0.7199  1.4987
   87SAPS  H18Y 8410   2.606   1.304   8.241 -0.6527 -1.4318  3.3602
   87SAPS  H18Z 8411   2.720   1.208   8.127  1.7124 -1.3968  1.2146
   88SAPS     N 8412   4.659   5.114  10.618 -0.2138 -0.3030  0.0919
   88SAPS   HN1 8413   4.643   5.015  10.648 -1.9385 -0.4297 -1.1127
   88SAPS   HN2 8414   4.620   5.132  10.524 -0.8869 -1.8880  0.0268
   88SAPS   HN3 8415   4.760   5.131  10.605 -0.1250 -2.0014 -1.8755
   88SAPS   C12 8416   4.599   5.189  10.731 -1.2970 -0.7063  0.4068
   88SAPS  H12A 8417   4.645   5.286  10.717 -0.7885 -0.5686  2.7327
   88SAPS   C13 8418   4.444   5.213  10.722  0.6388 -0.8674  0.3088
   88SAPS  O13A 8419   4.374   5.129  10.663 -0.4172 -0.0472  0.2283
   88SAPS  O13B 8420   4.405   5.284  10.820  0.2750  0.1211  0.1638
   88SAPS   C11 8421   4.640   5.116  10.863  0.5743 -0.2606  0.0232
   88SAPS  H11A 8422   4.584   5.021  10.867  2.3121 -1.3030  0.5751
   88SAPS  H11B 8423   4.619   5.183  10.950  1.1335 -0.2496  0.1548
   88SAPS     P 8424   4.847   4.992  10.975  0.4539 -0.0520 -0.0196
   88SAPS   O13 8425   4.991   5.034  10.985  0.4815  0.8506 -0.2796
   88SAPS   O14 8426   4.761   5.001  11.099  0.2807  0.0834 -0.0443
   88SAPS   O12 8427   4.783   5.094  10.868  0.2458  0.0513  0.3224
   88SAPS   O11 8428   4.842   4.851  10.906  0.4332 -0.1272  0.1090
   88SAPS    C1 8429   4.866   4.834  10.767 -0.2479  0.7294  1.0597
   88SAPS    HA 8430   4.823   4.916  10.706  1.1393 -0.9121 -2.4158
   88SAPS    HB 8431   4.974   4.834  10.742 -0.8582 -0.7666 -2.1995
   88SAPS    C2 8432   4.819   4.692  10.717  0.4646 -0.0584  0.3684
   88SAPS    HS 8433   4.806   4.707  10.608  3.8465 -0.7977 -0.2517
   88SAPS   O21 8434   4.684   4.649  10.764 -0.2827  0.6231  0.0512
   88SAPS   C21 8435   4.581   4.732  10.723 -0.5700 -0.1622  0.5356
   88SAPS   O22 8436   4.599   4.833  10.660 -0.3979  0.0060 -0.5872
   88SAPS   C22 8437   4.447   4.673  10.751 -0.6528  0.5981  0.2492
   88SAPS   H2R 8438   4.435   4.678  10.861  1.3509  1.5093  0.4665
   88SAPS   H2S 8439   4.379   4.742  10.696 -0.4901 -0.4300 -1.2811
   88SAPS    C3 8440   4.923   4.586  10.744  0.2360 -0.0142 -0.5089
   88SAPS    HX 8441   4.882   4.483  10.731 -1.1863  0.1496  2.0220
   88SAPS    HY 8442   4.943   4.593  10.853  3.2932 -0.3205 -0.9594
   88SAPS   O31 8443   5.047   4.607  10.675  0.0502 -0.2706  0.1105
   88SAPS   C31 8444   5.070   4.529  10.571 -0.1341  0.0863 -0.3324
   88SAPS   O32 8445   4.997   4.437  10.530  0.3287  0.8941  0.1078
   88SAPS   C32 8446   5.209   4.566  10.522  0.0897  0.3994 -0.3252
   88SAPS   H2X 8447   5.279   4.496  10.574 -1.1386 -0.7805 -0.2072
   88SAPS   H2Y 8448   5.232   4.669  10.557 -1.1842  0.2092  1.2065
   88SAPS   C23 8449   4.426   4.535  10.693 -0.7011  0.4626  0.3160
   88SAPS   H3R 8450   4.342   4.487  10.746 -0.3187 -0.1112  0.4147
   88SAPS   H3S 8451   4.515   4.471  10.712 -0.3989  0.6262 -0.4689
   88SAPS   C24 8452   4.418   4.541  10.532 -0.4266 -0.1015 -0.8555
   88SAPS   H4R 8453   4.414   4.434  10.504  0.8845 -0.8176  1.5096
   88SAPS   H4S 8454   4.514   4.584  10.496 -0.3929  2.1976  1.6442
   88SAPS   C25 8455   4.287   4.599  10.492  0.1668 -0.4093  0.5896
   88SAPS   H5R 8456   4.196   4.556  10.538 -0.4761 -0.2242 -0.4683
   88SAPS   C26 8457   4.281   4.710  10.410 -0.2398 -0.2197 -0.7012
   88SAPS   H6R 8458   4.183   4.746  10.373 -0.5139 -1.6740 -1.4815
   88SAPS   C27 8459   4.397   4.784  10.350  0.0751 -0.0675 -0.0155
   88SAPS   H7R 8460   4.368   4.785  10.242  0.8764 -1.5200 -0.2725
   88SAPS   H7S 8461   4.494   4.729  10.347  0.1539  0.0874 -0.5251
   88SAPS   C28 8462   4.407   4.920  10.402 -0.2722  0.0565  0.3344
   88SAPS   H8R 8463   4.384   4.931  10.509  0.3094  1.5277  0.3358
   88SAPS   C29 8464   4.414   5.033  10.330  0.6491  0.0080  0.1253
   88SAPS   H9R 8465   4.428   5.126  10.387 -3.1302 -0.6985  2.5316
   88SAPS  C210 8466   4.419   5.038  10.176  0.0456 -0.6018 -0.2960
   88SAPS  H10R 8467   4.313   5.051  10.146 -0.4859  1.6705  2.2086
   88SAPS  H10S 8468   4.469   4.945  10.141  1.9264 -0.4494  1.7675
   88SAPS  C211 8469   4.489   5.162  10.128  0.5587 -0.8903  0.5296
   88SAPS  H11R 8470   4.493   5.252  10.191  0.0179  0.5738 -1.4197
   88SAPS  C212 8471   4.536   5.187  10.006 -0.2656 -0.4687  0.1177
   88SAPS  H12R 8472   4.599   5.274   9.983 -0.8845 -0.0161  0.1269
   88SAPS  C213 8473   4.519   5.088   9.894 -0.0291 -0.9286  0.7478
   88SAPS  H13R 8474   4.456   5.130   9.813  2.0742 -1.3674 -1.2344
   88SAPS  H13S 8475   4.456   5.007   9.936 -1.6968  1.0375  2.2542
   88SAPS  C214 8476   4.646   5.028   9.827 -0.3919 -0.0144  0.2900
   88SAPS  H14R 8477   4.697   4.958   9.895 -0.9469  2.0226  2.9976
   88SAPS  C215 8478   4.685   5.050   9.705 -0.8955  0.3229  0.5895
   88SAPS  H15R 8479   4.759   4.989   9.651 -1.6957 -0.6874  0.6094
   88SAPS  C216 8480   4.617   5.147   9.609  0.4358 -0.4006  0.2440
   88SAPS  H16R 8481   4.663   5.247   9.624  2.2051 -1.1065 -0.2881
   88SAPS  H16S 8482   4.506   5.148   9.613  0.4368 -1.2021  0.9469
   88SAPS  C217 8483   4.654   5.115   9.461 -0.4470 -0.2620  0.0575
   88SAPS  H17R 8484   4.614   5.014   9.439 -0.6361 -0.3425  0.7392
   88SAPS  H17S 8485   4.763   5.111   9.444 -0.1439  0.9537  1.5491
   88SAPS  C218 8486   4.579   5.209   9.362  0.4121  0.3867 -0.4583
   88SAPS  H18R 8487   4.622   5.312   9.367  0.4617  0.3264  0.6012
   88SAPS  H18S 8488   4.475   5.225   9.399  1.2390  1.0129  1.7865
   88SAPS  C219 8489   4.572   5.155   9.218  0.6936 -0.3703 -0.2057
   88SAPS  H19R 8490   4.518   5.058   9.222  0.2046 -0.0575  1.5679
   88SAPS  H19S 8491   4.676   5.144   9.179  0.4653  0.8421 -1.2113
   88SAPS  C220 8492   4.497   5.258   9.133 -0.2533 -0.3326 -0.1468
   88SAPS  H20R 8493   4.414   5.304   9.192  1.2464  0.0745  1.7694
   88SAPS  H20S 8494   4.465   5.219   9.035  1.4724 -1.6743 -0.2073
   88SAPS  H20T 8495   4.560   5.347   9.110 -0.9478 -0.0114 -0.8407
   88SAPS   C33 8496   5.226   4.551  10.361 -0.4644  0.5394  0.5829
   88SAPS   H3X 8497   5.284   4.637  10.323 -1.0766  1.3196  1.3793
   88SAPS   H3Y 8498   5.133   4.571  10.304 -0.2899 -3.9469 -1.7861
   88SAPS   C34 8499   5.279   4.417  10.312 -0.4054  0.8869 -0.0413
   88SAPS   H4X 8500   5.261   4.339  10.389 -0.7683  0.6695 -0.3468
   88SAPS   H4Y 8501   5.390   4.426  10.306 -0.4630  3.5326  1.1330
   88SAPS   C35 8502   5.214   4.366  10.185 -0.7823 -0.0136  0.2259
   88SAPS   H5X 8503   5.108   4.352  10.216 -0.2885 -1.1117  1.5301
   88SAPS   H5Y 8504   5.267   4.269  10.173  0.0581  0.2328  1.6625
   88SAPS   C36 8505   5.240   4.444  10.054  0.1271 -0.1346  0.1111
   88SAPS   H6X 8506   5.348   4.469  10.056 -0.0704  0.8166 -0.5098
   88SAPS   H6Y 8507   5.185   4.539  10.072  0.1190  0.0566 -0.8803
   88SAPS   C37 8508   5.201   4.369   9.928 -0.4824  0.4790  0.8913
   88SAPS   H7X 8509   5.091   4.357   9.921 -0.2465 -1.2320 -0.5680
   88SAPS   H7Y 8510   5.241   4.266   9.941 -0.0925  0.4293 -0.5657
   88SAPS   C38 8511   5.265   4.433   9.804  0.6185 -0.1619 -0.0336
   88SAPS   H8X 8512   5.373   4.452   9.822  0.7257  0.6761 -1.3549
   88SAPS   H8Y 8513   5.215   4.530   9.782  0.9652 -0.0046 -0.1376
   88SAPS   C39 8514   5.251   4.349   9.678 -0.1380  1.2261  0.0782
   88SAPS   H9X 8515   5.143   4.328   9.662 -0.2225  1.8569 -0.2071
   88SAPS   H9Y 8516   5.291   4.246   9.684 -2.9063 -0.1858 -2.6714
   88SAPS  C310 8517   5.279   4.425   9.545  1.0448  0.4021 -1.2184
   88SAPS  H10X 8518   5.371   4.487   9.555  0.4600  1.2365 -0.8480
   88SAPS  H10Y 8519   5.196   4.493   9.514 -0.7817 -0.4923  1.3952
   88SAPS  C311 8520   5.297   4.332   9.425 -0.5929  0.2335  0.6399
   88SAPS  H11X 8521   5.220   4.255   9.405 -2.3318  2.1879 -0.6052
   88SAPS  H11Y 8522   5.387   4.276   9.458 -1.4669 -0.7663  1.3913
   88SAPS  C312 8523   5.345   4.407   9.303 -0.5616  0.1569 -0.2177
   88SAPS  H12X 8524   5.428   4.477   9.328 -0.4628 -0.3613  0.9862
   88SAPS  H12Y 8525   5.269   4.470   9.253 -0.1866 -1.9066 -3.7244
   88SAPS  C313 8526   5.399   4.301   9.202 -0.5218 -0.4002  0.4232
   88SAPS  H13X 8527   5.320   4.247   9.145  0.3483 -1.6589  0.3640
   88SAPS  H13Y 8528   5.465   4.234   9.261 -0.4828 -1.5871 -0.9255
   88SAPS  C314 8529   5.483   4.377   9.094  0.2344  0.5023  0.0721
   88SAPS  H14X 8530   5.555   4.444   9.146  1.5924 -0.8704  0.0633
   88SAPS  H14Y 8531   5.417   4.442   9.033  1.9982  0.1799 -2.3401
   88SAPS  C315 8532   5.556   4.292   8.993  0.3393  0.2670 -0.0515
   88SAPS  H15X 8533   5.486   4.222   8.942 -0.2232  2.6630 -2.9100
   88SAPS  H15Y 8534   5.632   4.221   9.033 -0.0255  0.2035  0.5383
   88SAPS  C316 8535   5.622   4.373   8.884 -0.2405 -0.1540 -0.1216
   88SAPS  H16X 8536   5.721   4.419   8.905 -1.5142  2.6653  0.1314
   88SAPS  H16Y 8537   5.571   4.462   8.841  1.5337 -0.2475 -2.6059
   88SAPS  C317 8538   5.646   4.288   8.754  0.1551 -0.1497 -0.2698
   88SAPS  H17X 8539   5.551   4.234   8.732  0.1090  0.0829 -0.6607
   88SAPS  H17Y 8540   5.715   4.205   8.778  0.2319 -0.3233 -1.0737
   88SAPS  C318 8541   5.696   4.372   8.635  0.7402  0.8171 -0.3674
   88SAPS  H18X 8542   5.787   4.426   8.671  1.3396 -1.0995  1.1595
   88SAPS  H18Y 8543   5.623   4.444   8.592 -1.4650 -0.1526  1.4763
   88SAPS  H18Z 8544   5.723   4.311   8.547 -0.9172 -0.9312  0.2484
   89SAPS     N 8545   6.632   1.537  10.839 -0.1199  0.7487 -0.2009
   89SAPS   HN1 8546   6.662   1.631  10.807 -1.4320  0.5963 -2.0573
   89SAPS   HN2 8547   6.657   1.522  10.939  0.1882 -3.2625 -0.7095
   89SAPS   HN3 8548   6.680   1.462  10.785 -0.1596  0.1192  0.6239
   89SAPS   C12 8549   6.493   1.509  10.804  0.5242 -0.6852 -0.1648
   89SAPS  H12A 8550   6.493   1.492  10.698  2.4904 -1.2350 -0.1042
   89SAPS   C13 8551   6.424   1.390  10.869  0.5795  1.0740  0.0491
   89SAPS  O13A 8552   6.479   1.322  10.962  0.2192 -0.8774 -0.1327
   89SAPS  O13B 8553   6.306   1.358  10.837  0.6103  0.3218 -0.3007
   89SAPS   C11 8554   6.408   1.641  10.839  0.4365  0.1263  0.0357
   89SAPS  H11A 8555   6.402   1.646  10.950 -0.6181  0.5398 -0.0286
   89SAPS  H11B 8556   6.303   1.624  10.807  0.6247 -0.3499 -0.3506
   89SAPS     P 8557   6.432   1.891  10.816  0.5669  0.2140  0.4877
   89SAPS   O13 8558   6.502   1.910  10.940  0.0613 -0.0444 -0.5485
   89SAPS   O14 8559   6.458   1.987  10.704 -0.0462 -0.0349 -0.1675
   89SAPS   O12 8560   6.468   1.751  10.768  0.2469 -0.2881  0.2977
   89SAPS   O11 8561   6.279   1.877  10.852 -0.7758  0.1912  0.5726
   89SAPS    C1 8562   6.174   1.922  10.771  0.0315  0.3962 -0.2637
   89SAPS    HA 8563   6.093   1.959  10.837 -1.3085  1.0968 -2.1922
   89SAPS    HB 8564   6.206   2.007  10.707  1.7767 -1.7151 -2.4193
   89SAPS    C2 8565   6.125   1.818  10.671 -0.1001  0.4876  0.1286
   89SAPS    HS 8566   6.115   1.723  10.727 -2.1671  0.7069  0.2022
   89SAPS   O21 8567   6.217   1.808  10.560 -0.8445 -0.7631  0.4686
   89SAPS   C21 8568   6.238   1.687  10.507  0.0344  0.3345 -0.9141
   89SAPS   O22 8569   6.188   1.586  10.561 -0.0633  0.0649 -0.1118
   89SAPS   C22 8570   6.338   1.705  10.384  0.0610 -0.0134 -0.3086
   89SAPS   H2R 8571   6.307   1.798  10.333 -0.4121  1.6636  2.7907
   89SAPS   H2S 8572   6.441   1.722  10.422  0.1853  0.7531 -0.9775
   89SAPS    C3 8573   5.985   1.858  10.615 -0.0957 -0.8025  0.0277
   89SAPS    HX 8574   5.998   1.931  10.532  2.4850 -2.7772 -1.4577
   89SAPS    HY 8575   5.920   1.901  10.694  2.2333 -1.6768  2.5793
   89SAPS   O31 8576   5.915   1.760  10.549 -0.3842  0.2427  0.0137
   89SAPS   C31 8577   5.859   1.672  10.626 -0.4459  0.6876 -0.7714
   89SAPS   O32 8578   5.873   1.665  10.751  0.4258  0.2383  0.0302
   89SAPS   C32 8579   5.769   1.577  10.545 -0.1302 -0.9211 -1.3225
   89SAPS   H2X 8580   5.687   1.640  10.503 -0.0395 -0.1700 -0.4116
   89SAPS   H2Y 8581   5.721   1.513  10.622  1.8770  0.0730  0.8786
   89SAPS   C23 8582   6.349   1.580  10.295 -0.6641  0.4222  0.3114
   89SAPS   H3R 8583   6.384   1.497  10.361  1.3280  1.5000  0.6797
   89SAPS   H3S 8584   6.437   1.590  10.229 -0.1309 -0.3063  0.8923
   89SAPS   C24 8585   6.221   1.540  10.219  1.0054 -0.1519 -0.0712
   89SAPS   H4R 8586   6.131   1.548  10.283  1.0137  3.5387 -0.2890
   89SAPS   H4S 8587   6.233   1.434  10.189  1.5387 -0.9093  2.5841
   89SAPS   C25 8588   6.197   1.629  10.093  0.3645 -0.7556  0.2079
   89SAPS   H5R 8589   6.179   1.736  10.110 -1.8818 -0.9449 -0.6289
   89SAPS   C26 8590   6.204   1.584   9.966 -0.1669 -0.4596 -0.2214
   89SAPS   H6R 8591   6.204   1.659   9.885  2.5607 -0.5113 -0.3480
   89SAPS   C27 8592   6.236   1.444   9.919 -0.6450 -0.6052 -0.3603
   89SAPS   H7R 8593   6.141   1.391   9.893 -0.8499  0.1996 -1.2873
   89SAPS   H7S 8594   6.299   1.383   9.987 -0.5246  0.9975  1.0303
   89SAPS   C28 8595   6.312   1.464   9.790 -0.5543 -1.0485 -0.2450
   89SAPS   H8R 8596   6.422   1.465   9.796 -0.4954  2.2170 -0.4430
   89SAPS   C29 8597   6.262   1.492   9.668  0.4328  0.0679  0.4714
   89SAPS   H9R 8598   6.329   1.513   9.584  0.1032  0.0964  0.2156
   89SAPS  C210 8599   6.118   1.493   9.631  0.5503 -0.2295 -0.4735
   89SAPS  H10R 8600   6.045   1.472   9.712 -0.6401  0.2336 -1.4102
   89SAPS  H10S 8601   6.104   1.406   9.563 -1.5073 -0.4081  0.1230
   89SAPS  C211 8602   6.077   1.614   9.560  0.3336 -0.0469  0.1834
   89SAPS  H11R 8603   6.086   1.701   9.627  0.8780  0.8303 -0.9965
   89SAPS  C212 8604   6.039   1.633   9.435 -0.7264  0.9183 -1.1629
   89SAPS  H12R 8605   6.015   1.733   9.396  0.0932  2.2448  1.4725
   89SAPS  C213 8606   6.021   1.524   9.335  0.6260  0.3790 -0.0984
   89SAPS  H13R 8607   5.936   1.549   9.268 -0.0300 -0.9233  0.2045
   89SAPS  H13S 8608   5.995   1.426   9.381  1.6340 -0.4615 -1.2732
   89SAPS  C214 8609   6.132   1.505   9.236  0.4718  0.4050 -0.5111
   89SAPS  H14R 8610   6.231   1.517   9.282 -0.3990  0.4970  1.4653
   89SAPS  C215 8611   6.125   1.455   9.112 -1.1739  0.1138 -0.5759
   89SAPS  H15R 8612   6.218   1.446   9.053 -1.2114  1.0212 -0.7855
   89SAPS  C216 8613   6.005   1.405   9.039  0.6923  0.2392 -1.1783
   89SAPS  H16R 8614   5.918   1.400   9.108 -0.4634  3.8809 -2.1583
   89SAPS  H16S 8615   6.023   1.295   9.034 -1.2230 -0.0961 -1.4021
   89SAPS  C217 8616   5.960   1.456   8.906 -0.7464 -0.3050 -0.2841
   89SAPS  H17R 8617   5.895   1.381   8.857 -3.1191  1.7645 -0.5081
   89SAPS  H17S 8618   6.055   1.471   8.849 -0.6832 -0.2833 -0.1732
   89SAPS  C218 8619   5.880   1.592   8.910  0.0014  0.6494  0.2704
   89SAPS  H18R 8620   5.937   1.671   8.963  0.7107  1.9516 -2.2740
   89SAPS  H18S 8621   5.781   1.567   8.954  0.1713 -1.1328 -0.2838
   89SAPS  C219 8622   5.849   1.641   8.762 -0.4101 -0.4064 -0.3948
   89SAPS  H19R 8623   5.769   1.578   8.718  0.2839 -2.6513  1.3366
   89SAPS  H19S 8624   5.945   1.630   8.706 -0.3199  1.3447 -0.6376
   89SAPS  C220 8625   5.802   1.782   8.751  0.0328 -0.0483 -0.3502
   89SAPS  H20R 8626   5.719   1.804   8.822 -0.8679  0.5568 -1.5552
   89SAPS  H20S 8627   5.744   1.786   8.656 -0.9380 -1.6916  0.1201
   89SAPS  H20T 8628   5.881   1.857   8.767  0.0566 -0.5889  2.7641
   89SAPS   C33 8629   5.834   1.489  10.443 -0.6715 -0.2988 -0.0985
   89SAPS   H3X 8630   5.775   1.394  10.442 -1.9142  0.4405 -0.0461
   89SAPS   H3Y 8631   5.934   1.463  10.482 -1.3273 -2.7238  0.1429
   89SAPS   C34 8632   5.836   1.550  10.297 -0.1687  0.0229  0.3076
   89SAPS   H4X 8633   5.927   1.613  10.305 -0.7346  0.8930  0.0247
   89SAPS   H4Y 8634   5.743   1.608  10.280 -0.3515 -0.4609 -0.3673
   89SAPS   C35 8635   5.834   1.435  10.192  0.4589  0.2851 -0.0978
   89SAPS   H5X 8636   5.737   1.381  10.196  1.3909 -1.3938  1.0787
   89SAPS   H5Y 8637   5.917   1.367  10.218 -0.8644 -0.7687  1.5166
   89SAPS   C36 8638   5.844   1.482  10.049 -0.3481 -0.2419  0.8521
   89SAPS   H6X 8639   5.952   1.503  10.030 -0.5889  3.8451  2.8262
   89SAPS   H6Y 8640   5.798   1.583  10.052  1.8674  0.9436 -1.2205
   89SAPS   C37 8641   5.797   1.391   9.937 -0.2353 -0.5480 -0.1382
   89SAPS   H7X 8642   5.694   1.356   9.959 -0.2221  0.3954  1.6282
   89SAPS   H7Y 8643   5.867   1.308   9.913  2.3868  1.8862 -1.4397
   89SAPS   C38 8644   5.764   1.478   9.813 -0.5376  0.3255  0.1891
   89SAPS   H8X 8645   5.846   1.551   9.800  1.3340 -1.4893  1.2603
   89SAPS   H8Y 8646   5.664   1.527   9.821 -1.0660 -0.4755 -1.0488
   89SAPS   C39 8647   5.748   1.390   9.679 -0.6355 -0.5067 -0.2131
   89SAPS   H9X 8648   5.677   1.305   9.690 -1.0050 -0.1557  0.1160
   89SAPS   H9Y 8649   5.851   1.371   9.641  0.1220  3.2854 -0.4227
   89SAPS  C310 8650   5.703   1.484   9.574  0.1364  0.0027 -0.7254
   89SAPS  H10X 8651   5.783   1.556   9.549 -0.2920  0.6694 -0.1990
   89SAPS  H10Y 8652   5.618   1.541   9.618 -0.1570 -0.4973 -0.6271
   89SAPS  C311 8653   5.642   1.422   9.438 -0.5684 -0.1709 -0.2039
   89SAPS  H11X 8654   5.579   1.333   9.461 -1.2261  0.2424 -0.3713
   89SAPS  H11Y 8655   5.734   1.393   9.383  0.1052  2.2296 -0.4432
   89SAPS  C312 8656   5.575   1.521   9.352  0.1329 -0.0305  0.1694
   89SAPS  H12X 8657   5.649   1.601   9.330 -1.7906  1.6540 -0.5471
   89SAPS  H12Y 8658   5.498   1.573   9.414  0.0716  1.3617 -1.0276
   89SAPS  C313 8659   5.515   1.471   9.220  0.1269 -0.4054 -0.9249
   89SAPS  H13X 8660   5.455   1.382   9.249  0.3037  0.5876  3.2013
   89SAPS  H13Y 8661   5.599   1.446   9.152  1.6566  1.4527  0.1733
   89SAPS  C314 8662   5.435   1.579   9.150  0.5837 -0.4682  0.1819
   89SAPS  H14X 8663   5.510   1.658   9.129 -1.6124  1.4879 -0.6967
   89SAPS  H14Y 8664   5.347   1.626   9.199 -0.2871  0.0184 -1.7562
   89SAPS  C315 8665   5.393   1.529   9.014 -0.2218  0.1986  0.2047
   89SAPS  H15X 8666   5.294   1.479   9.024 -1.3473  2.2051 -0.1808
   89SAPS  H15Y 8667   5.475   1.466   8.975 -0.7109 -0.2108 -0.1849
   89SAPS  C316 8668   5.367   1.648   8.912  0.3915  0.0758  0.1748
   89SAPS  H16X 8669   5.461   1.706   8.899 -0.2439  0.9580 -0.6135
   89SAPS  H16Y 8670   5.294   1.718   8.956  0.3767 -0.8532  1.7084
   89SAPS  C317 8671   5.310   1.605   8.775 -0.0229 -0.1087 -0.1204
   89SAPS  H17X 8672   5.208   1.565   8.790  1.0504 -2.7832  0.7096
   89SAPS  H17Y 8673   5.373   1.520   8.740 -1.3747 -1.0202 -0.3911
   89SAPS  C318 8674   5.296   1.722   8.678  0.2015  0.1882  0.6167
   89SAPS  H18X 8675   5.391   1.775   8.652 -1.0053  2.1985  0.0838
   89SAPS  H18Y 8676   5.230   1.804   8.713  1.7127  2.1761 -0.8896
   89SAPS  H18Z 8677   5.268   1.695   8.574  0.9277 -2.0583  0.9471
   90SAPS     N 8678   5.850   1.480  10.966  0.1374 -0.3437 -0.3115
   90SAPS   HN1 8679   5.844   1.511  11.066 -1.6398 -2.0553  0.1669
   90SAPS   HN2 8680   5.948   1.447  10.957  0.5192  1.0984 -2.0147
   90SAPS   HN3 8681   5.843   1.557  10.896  0.1636  1.6376  1.7219
   90SAPS   C12 8682   5.746   1.376  10.948  0.5286  1.0901  0.0019
   90SAPS  H12A 8683   5.774   1.328  10.855 -0.1253  0.6878  0.0084
   90SAPS   C13 8684   5.750   1.274  11.063  0.0459  0.3659 -0.1397
   90SAPS  O13A 8685   5.825   1.283  11.163 -0.4763 -0.1407  0.3694
   90SAPS  O13B 8686   5.657   1.187  11.062  0.5564 -0.0894 -1.0318
   90SAPS   C11 8687   5.601   1.445  10.934  0.5050  0.2097 -0.4013
   90SAPS  H11A 8688   5.581   1.498  11.029 -0.1259  0.5377 -0.7102
   90SAPS  H11B 8689   5.528   1.363  10.920  0.9005 -0.4562  1.2303
   90SAPS     P 8690   5.456   1.618  10.795 -0.4190  0.4407 -0.0489
   90SAPS   O13 8691   5.346   1.591  10.894  0.3086 -0.0465 -0.0579
   90SAPS   O14 8692   5.488   1.761  10.761  0.7020  0.2729  0.0229
   90SAPS   O12 8693   5.588   1.545  10.833 -0.5763  0.2593  0.5334
   90SAPS   O11 8694   5.423   1.538  10.666 -0.1824  0.1202  0.4529
   90SAPS    C1 8695   5.405   1.394  10.638 -0.3482  0.0110  0.0919
   90SAPS    HA 8696   5.445   1.325  10.715  0.2656 -0.1669 -0.3791
   90SAPS    HB 8697   5.297   1.367  10.637  0.0577 -1.7965 -1.9627
   90SAPS    C2 8698   5.450   1.356  10.497  0.3100  0.5156  0.2145
   90SAPS    HS 8699   5.553   1.390  10.471 -0.2223  1.2024 -1.1001
   90SAPS   O21 8700   5.354   1.410  10.401 -0.3152  0.0543 -1.1855
   90SAPS   C21 8701   5.387   1.522  10.341  0.4043  0.4871 -0.3008
   90SAPS   O22 8702   5.491   1.582  10.352  0.6366 -0.4959  0.1856
   90SAPS   C22 8703   5.270   1.557  10.242  0.1366  0.1699 -0.3195
   90SAPS   H2R 8704   5.216   1.464  10.217 -0.0841  0.1946  0.0542
   90SAPS   H2S 8705   5.190   1.606  10.302 -0.3673  0.7813 -1.4526
   90SAPS    C3 8706   5.443   1.207  10.492 -0.0530 -0.6163 -0.5655
   90SAPS    HX 8707   5.337   1.175  10.483  0.1469 -0.8005 -2.8241
   90SAPS    HY 8708   5.490   1.160  10.581  0.9567  2.7347  0.8122
   90SAPS   O31 8709   5.491   1.148  10.369  0.4782 -1.2254  0.3494
   90SAPS   C31 8710   5.622   1.132  10.348  0.2695 -0.4967 -0.2986
   90SAPS   O32 8711   5.716   1.173  10.416 -1.0433  0.1742 -0.6243
   90SAPS   C32 8712   5.636   1.073  10.207 -0.8260  0.7026 -0.7573
   90SAPS   H2X 8713   5.627   0.963  10.225  1.1011  0.2573 -2.2225
   90SAPS   H2Y 8714   5.740   1.093  10.174 -0.7142 -0.3613 -1.1070
   90SAPS   C23 8715   5.315   1.637  10.120 -0.1998 -0.2167 -0.2329
   90SAPS   H3R 8716   5.397   1.706  10.151 -1.1477  0.2315  1.4208
   90SAPS   H3S 8717   5.228   1.688  10.073 -1.8458 -1.5048  1.2715
   90SAPS   C24 8718   5.375   1.553  10.007 -0.2287 -0.2944  0.1243
   90SAPS   H4R 8719   5.301   1.474   9.981 -1.2884  0.9121 -0.7031
   90SAPS   H4S 8720   5.472   1.512  10.042  0.0469  1.2388  1.2468
   90SAPS   C25 8721   5.405   1.636   9.892  0.3284  0.0158  0.1447
   90SAPS   H5R 8722   5.483   1.712   9.901  1.6908 -1.3153  0.0246
   90SAPS   C26 8723   5.354   1.611   9.768  0.1017  0.4626 -0.3264
   90SAPS   H6R 8724   5.392   1.679   9.689  0.2850  1.6678  0.7645
   90SAPS   C27 8725   5.256   1.507   9.720 -0.2294 -0.1139  0.1351
   90SAPS   H7R 8726   5.263   1.415   9.783 -2.1432 -0.2182  0.2552
   90SAPS   H7S 8727   5.277   1.486   9.613 -2.4327  1.2737 -0.6346
   90SAPS   C28 8728   5.115   1.557   9.730 -0.4536 -0.1132 -0.8444
   90SAPS   H8R 8729   5.083   1.601   9.826  1.0603  0.7644 -0.7137
   90SAPS   C29 8730   5.032   1.555   9.622 -0.3797 -0.3808  0.3122
   90SAPS   H9R 8731   4.927   1.585   9.631 -0.5821 -0.0027 -2.4276
   90SAPS  C210 8732   5.056   1.508   9.477 -0.7081 -0.3442  0.4303
   90SAPS  H10R 8733   5.103   1.407   9.469  0.3638  0.0406  1.5442
   90SAPS  H10S 8734   5.126   1.575   9.421  1.2989 -1.6275  1.2652
   90SAPS  C211 8735   4.928   1.484   9.397 -0.3171  0.2017  0.4948
   90SAPS  H11R 8736   4.848   1.451   9.465 -0.6402 -0.9633 -0.4377
   90SAPS  C212 8737   4.899   1.492   9.267  0.1167  0.6989  0.0438
   90SAPS  H12R 8738   4.796   1.466   9.240 -0.2127 -0.9690  2.5363
   90SAPS  C213 8739   4.995   1.530   9.159 -0.1564 -0.4973 -0.1035
   90SAPS  H13R 8740   4.950   1.500   9.062  1.0818 -0.5581 -0.6867
   90SAPS  H13S 8741   5.089   1.470   9.162 -0.0943 -0.5009 -1.4177
   90SAPS  C214 8742   5.005   1.680   9.149 -0.1423 -0.2982 -0.0034
   90SAPS  H14R 8743   5.096   1.722   9.194 -1.6614  0.6680  2.3931
   90SAPS  C215 8744   4.919   1.762   9.080 -0.4986  0.2348 -0.0713
   90SAPS  H15R 8745   4.947   1.868   9.066  1.8578 -0.4122 -0.6848
   90SAPS  C216 8746   4.794   1.718   9.011  0.4392  0.0918 -0.5092
   90SAPS  H16R 8747   4.711   1.777   9.056  0.4481 -1.7640  2.2298
   90SAPS  H16S 8748   4.751   1.618   9.035 -1.2540  0.4778 -1.7429
   90SAPS  C217 8749   4.796   1.740   8.859  0.1555 -0.1447 -0.7005
   90SAPS  H17R 8750   4.777   1.848   8.844  1.1683  0.7293  3.1885
   90SAPS  H17S 8751   4.721   1.677   8.807 -0.8391 -0.3701  0.9573
   90SAPS  C218 8752   4.925   1.687   8.790  0.0395 -0.4244  0.0338
   90SAPS  H18R 8753   4.951   1.585   8.824 -1.0463 -0.1707  1.7555
   90SAPS  H18S 8754   5.013   1.751   8.809 -1.5158  2.1578 -0.8775
   90SAPS  C219 8755   4.920   1.702   8.637 -0.8735 -0.2690  0.3106
   90SAPS  H19R 8756   5.001   1.640   8.594 -2.3232 -1.6263 -0.5922
   90SAPS  H19S 8757   4.949   1.807   8.617  0.4653 -0.8164 -0.7120
   90SAPS  C220 8758   4.789   1.661   8.569  0.7724  0.2380 -0.0458
   90SAPS  H20R 8759   4.799   1.678   8.460  1.4258  2.2809  0.2802
   90SAPS  H20S 8760   4.705   1.721   8.611  2.0779  0.0627  3.0732
   90SAPS  H20T 8761   4.755   1.556   8.581  0.2821 -0.1092 -3.4671
   90SAPS   C33 8762   5.536   1.132  10.113  0.1763 -0.4235  0.3427
   90SAPS   H3X 8763   5.547   1.243  10.114 -0.2572 -0.3148 -1.9883
   90SAPS   H3Y 8764   5.435   1.104  10.149  1.1511 -2.5234  1.5969
   90SAPS   C34 8765   5.567   1.085   9.982  0.3245  0.2598  0.7007
   90SAPS   H4X 8766   5.569   0.974   9.978 -0.0473  0.2840 -2.0649
   90SAPS   H4Y 8767   5.670   1.113   9.952  0.2577  0.8695  1.0274
   90SAPS   C35 8768   5.480   1.150   9.872 -0.0747  0.3947  0.0799
   90SAPS   H5X 8769   5.499   1.259   9.875  1.1040  0.1966  0.0174
   90SAPS   H5Y 8770   5.372   1.147   9.898 -0.2915 -0.5870 -0.8420
   90SAPS   C36 8771   5.491   1.072   9.737 -0.1699  0.4248  0.3052
   90SAPS   H6X 8772   5.433   0.977   9.746 -0.9500  0.8459 -0.1056
   90SAPS   H6Y 8773   5.596   1.044   9.713 -0.7191 -0.5015 -1.1755
   90SAPS   C37 8774   5.423   1.156   9.624  0.4528  0.6049 -0.2414
   90SAPS   H7X 8775   5.474   1.254   9.614 -1.0848  1.1814 -3.6052
   90SAPS   H7Y 8776   5.318   1.180   9.647  0.3950  1.5222 -1.3898
   90SAPS   C38 8777   5.419   1.075   9.494 -0.2486 -0.3754 -0.3422
   90SAPS   H8X 8778   5.356   0.986   9.513 -2.3446  0.7394 -1.7400
   90SAPS   H8Y 8779   5.522   1.043   9.465  0.2822  2.4812 -1.9158
   90SAPS   C39 8780   5.361   1.144   9.378  0.6624 -0.2275  0.2746
   90SAPS   H9X 8781   5.387   1.252   9.373 -0.9021  0.1302 -1.2442
   90SAPS   H9Y 8782   5.251   1.156   9.389  0.9198  0.6791  2.1307
   90SAPS  C310 8783   5.387   1.086   9.238  0.8527  0.3386 -0.1245
   90SAPS  H10X 8784   5.329   1.146   9.166 -0.7017 -0.6832  0.2397
   90SAPS  H10Y 8785   5.356   0.980   9.246  0.3264  0.5427  0.6962
   90SAPS  C311 8786   5.540   1.086   9.202 -0.4765  0.4602 -0.1365
   90SAPS  H11X 8787   5.586   0.987   9.220 -0.0735  0.5586 -0.6149
   90SAPS  H11Y 8788   5.588   1.162   9.268 -1.8238  0.0469  1.3986
   90SAPS  C312 8789   5.569   1.131   9.058 -0.0767 -0.3179  0.1220
   90SAPS  H12X 8790   5.678   1.115   9.042 -0.3425 -0.3390 -1.9050
   90SAPS  H12Y 8791   5.549   1.241   9.052 -3.7236 -0.7756  1.2020
   90SAPS  C313 8792   5.492   1.071   8.949  0.3276  1.0116 -0.3022
   90SAPS  H13X 8793   5.387   1.106   8.956 -0.4415 -1.4299  1.8621
   90SAPS  H13Y 8794   5.489   0.962   8.971  1.5201  0.6530 -1.7070
   90SAPS  C314 8795   5.549   1.075   8.814 -0.5885  0.7011 -0.1484
   90SAPS  H14X 8796   5.650   1.030   8.807 -1.5355 -1.7531  0.8195
   90SAPS  H14Y 8797   5.564   1.180   8.783 -0.4913 -0.2032 -3.4780
   90SAPS  C315 8798   5.464   0.997   8.705 -0.5849  0.1374  0.0458
   90SAPS  H15X 8799   5.379   1.065   8.682  1.1457  2.4903  0.2143
   90SAPS  H15Y 8800   5.429   0.900   8.747 -0.4765  0.2294  0.3495
   90SAPS  C316 8801   5.539   0.970   8.575  0.1388  0.1007  0.2410
   90SAPS  H16X 8802   5.625   0.903   8.597  1.6292  1.8461 -0.0477
   90SAPS  H16Y 8803   5.571   1.072   8.542 -1.5750  1.1589  1.6304
   90SAPS  C317 8804   5.446   0.895   8.474  0.2255 -0.3588  0.5886
   90SAPS  H17X 8805   5.354   0.955   8.460  0.6797  0.3162  0.4589
   90SAPS  H17Y 8806   5.415   0.800   8.523  0.0564  0.0022  1.1933
   90SAPS  C318 8807   5.527   0.876   8.342 -0.2068 -0.2329 -0.5404
   90SAPS  H18X 8808   5.631   0.850   8.370 -0.0938  0.8989  0.1255
   90SAPS  H18Y 8809   5.526   0.980   8.303 -0.0341  0.1990  0.5573
   90SAPS  H18Z 8810   5.485   0.802   8.270 -1.5160  2.3786 -2.6188
   91SAPS     N 8811   5.983   6.517   5.852 -0.4400 -0.4477 -0.1861
   91SAPS   HN1 8812   5.967   6.514   5.749 -1.2234 -2.1925 -0.0453
   91SAPS   HN2 8813   5.895   6.560   5.888 -0.2076 -1.2255  1.3976
   91SAPS   HN3 8814   6.063   6.580   5.872 -1.5226  0.5254  1.3079
   91SAPS   C12 8815   6.006   6.387   5.923  0.3172  0.9703 -0.0459
   91SAPS  H12A 8816   5.909   6.341   5.937  0.8790 -0.6320 -1.2117
   91SAPS   C13 8817   6.091   6.283   5.835  0.0040 -0.0935  1.1615
   91SAPS  O13A 8818   6.150   6.332   5.733 -0.3442  0.2810 -0.5821
   91SAPS  O13B 8819   6.128   6.177   5.894 -0.4384 -0.2869 -0.0508
   91SAPS   C11 8820   6.075   6.419   6.059 -0.3198  0.1156 -0.6076
   91SAPS  H11A 8821   6.171   6.468   6.032 -0.3078 -0.2008 -1.1707
   91SAPS  H11B 8822   6.102   6.324   6.109  1.4449  0.5299 -0.7132
   91SAPS     P 8823   5.894   6.453   6.245 -0.0251 -0.0131 -0.0832
   91SAPS   O13 8824   5.804   6.561   6.285 -0.7373  0.2339  0.2432
   91SAPS   O14 8825   5.832   6.337   6.175 -0.4307 -0.6701  0.0358
   91SAPS   O12 8826   5.999   6.515   6.143 -0.5758  0.5602 -0.2588
   91SAPS   O11 8827   5.989   6.415   6.370  0.0620  0.0603  0.2856
   91SAPS    C1 8828   6.071   6.514   6.423 -0.1434 -0.0772 -0.4452
   91SAPS    HA 8829   6.159   6.510   6.356 -0.5387 -1.6944 -0.9082
   91SAPS    HB 8830   6.038   6.620   6.423 -0.0983 -0.0626 -0.9197
   91SAPS    C2 8831   6.090   6.494   6.577 -0.0824  0.2968  0.5890
   91SAPS    HS 8832   6.134   6.591   6.611  2.2141 -0.7324  0.7303
   91SAPS   O21 8833   6.175   6.385   6.603 -0.1910 -0.3902 -0.1716
   91SAPS   C21 8834   6.301   6.401   6.581 -0.1036 -0.2516 -0.5709
   91SAPS   O22 8835   6.360   6.502   6.544 -1.1815  0.0457 -0.6814
   91SAPS   C22 8836   6.374   6.270   6.587  0.7572  0.3929  0.3825
   91SAPS   H2R 8837   6.322   6.186   6.535  5.2089 -1.5420 -1.4745
   91SAPS   H2S 8838   6.462   6.289   6.522  0.8250 -0.6960  0.1327
   91SAPS    C3 8839   5.946   6.475   6.640 -0.7126  0.4246  0.0062
   91SAPS    HX 8840   5.910   6.388   6.581  1.2619 -0.6750  0.3247
   91SAPS    HY 8841   5.886   6.565   6.615  1.3480  1.4216 -1.6600
   91SAPS   O31 8842   5.944   6.451   6.784 -0.3850 -0.1418 -0.0362
   91SAPS   C31 8843   5.946   6.323   6.817  0.1204  0.6015 -0.1628
   91SAPS   O32 8844   5.964   6.230   6.732  0.2091 -0.3148 -0.3176
   91SAPS   C32 8845   5.944   6.308   6.970 -0.4796 -0.7228  0.5113
   91SAPS   H2X 8846   6.023   6.235   7.002  1.4690  2.1842  2.8539
   91SAPS   H2Y 8847   5.845   6.266   6.996 -1.3799  1.7057  1.1777
   91SAPS   C23 8848   6.427   6.237   6.728  0.2790 -0.0906  0.1203
   91SAPS   H3R 8849   6.450   6.335   6.777 -0.9377  1.6954 -2.6545
   91SAPS   H3S 8850   6.528   6.194   6.711  1.6815  2.8575  0.3687
   91SAPS   C24 8851   6.333   6.173   6.820 -0.7527  0.2052 -0.3150
   91SAPS   H4R 8852   6.237   6.228   6.831  0.2424  1.7072  1.2414
   91SAPS   H4S 8853   6.383   6.181   6.919  2.2910  0.9694 -1.7935
   91SAPS   C25 8854   6.302   6.032   6.772 -0.0715 -0.0353 -0.3388
   91SAPS   H5R 8855   6.310   6.010   6.665 -1.0980 -2.8714  0.0650
   91SAPS   C26 8856   6.265   5.932   6.853 -0.1983  0.3663 -0.0242
   91SAPS   H6R 8857   6.245   5.833   6.811  2.6794  0.8486 -2.9176
   91SAPS   C27 8858   6.233   5.938   7.004 -0.8305 -0.6537  0.3538
   91SAPS   H7R 8859   6.225   6.045   7.034  1.5817 -1.2043  3.4130
   91SAPS   H7S 8860   6.321   5.902   7.062  0.2341  0.2855 -0.6192
   91SAPS   C28 8861   6.116   5.864   7.047  0.1440 -0.0973 -0.3781
   91SAPS   H8R 8862   6.065   5.817   6.962 -0.2154 -1.8828  0.7769
   91SAPS   C29 8863   6.073   5.854   7.179  0.0025  0.0481  0.6072
   91SAPS   H9R 8864   5.989   5.786   7.200  0.6193 -0.6308  0.8953
   91SAPS  C210 8865   6.152   5.898   7.296 -0.6624  0.7882 -0.4646
   91SAPS  H10R 8866   6.255   5.917   7.260 -0.3265 -1.0883 -0.5516
   91SAPS  H10S 8867   6.162   5.816   7.370 -0.7992 -0.3808 -1.7095
   91SAPS  C211 8868   6.091   6.014   7.358 -0.3836  0.4536 -0.1110
   91SAPS  H11R 8869   5.981   6.012   7.359 -0.3889  0.6950  0.8695
   91SAPS  C212 8870   6.143   6.122   7.423 -0.7174 -0.0177  0.2571
   91SAPS  H12R 8871   6.080   6.200   7.466  0.9876  0.2761  2.3701
   91SAPS  C213 8872   6.298   6.145   7.446  0.1758 -0.0557  1.3751
   91SAPS  H13R 8873   6.333   6.219   7.370 -0.8740 -0.8846  0.0258
   91SAPS  H13S 8874   6.359   6.060   7.407 -1.1409  0.2349 -1.6249
   91SAPS  C214 8875   6.353   6.177   7.581  0.2134 -0.5946  0.8856
   91SAPS  H14R 8876   6.407   6.272   7.589 -0.5783 -0.1741  1.3805
   91SAPS  C215 8877   6.334   6.111   7.692  0.1773 -0.6694 -0.1975
   91SAPS  H15R 8878   6.380   6.139   7.788 -2.8789  2.3511  0.6095
   91SAPS  C216 8879   6.271   5.978   7.702  0.0746 -0.7290  0.2675
   91SAPS  H16R 8880   6.217   5.961   7.607  0.2577  1.1867 -0.2181
   91SAPS  H16S 8881   6.196   5.994   7.783  0.8999  1.1646  0.7149
   91SAPS  C217 8882   6.369   5.860   7.734 -0.1115 -0.0506 -0.4845
   91SAPS  H17R 8883   6.455   5.866   7.664  0.8602  1.0628  0.7659
   91SAPS  H17S 8884   6.305   5.769   7.731  0.6609 -0.6681  0.8801
   91SAPS  C218 8885   6.432   5.882   7.881  0.0207  0.2971  0.6189
   91SAPS  H18R 8886   6.339   5.889   7.942 -0.9678 -2.8665 -0.3126
   91SAPS  H18S 8887   6.483   5.981   7.876 -0.4710  0.5304  0.0382
   91SAPS  C219 8888   6.515   5.759   7.923  0.1741  0.5495 -0.6611
   91SAPS  H19R 8889   6.566   5.732   7.828  0.9197  0.1996 -0.1777
   91SAPS  H19S 8890   6.449   5.673   7.949 -2.4292  2.2090 -1.4347
   91SAPS  C220 8891   6.613   5.783   8.037  0.5836 -1.0137 -0.7061
   91SAPS  H20R 8892   6.575   5.735   8.130 -0.6716 -0.4663 -0.9085
   91SAPS  H20S 8893   6.616   5.891   8.064  0.6045 -1.0015 -0.7583
   91SAPS  H20T 8894   6.713   5.737   8.027  1.1227 -0.3796  1.2850
   91SAPS   C33 8895   5.987   6.438   7.048  0.5534  0.2100 -0.4477
   91SAPS   H3X 8896   5.905   6.511   7.030 -1.6966 -2.3099 -1.0360
   91SAPS   H3Y 8897   6.077   6.481   7.000  1.9594 -0.7070  1.2741
   91SAPS   C34 8898   6.005   6.428   7.203  0.0793  0.3585  0.1914
   91SAPS   H4X 8899   6.102   6.380   7.226  0.1874 -0.6008 -2.0252
   91SAPS   H4Y 8900   5.921   6.371   7.247  0.8433 -0.6885  0.3337
   91SAPS   C35 8901   6.031   6.571   7.256  1.2551  0.7938 -0.1848
   91SAPS   H5X 8902   5.933   6.624   7.255  1.1523  0.5967 -0.8811
   91SAPS   H5Y 8903   6.092   6.628   7.183 -2.1389  2.6844 -1.8309
   91SAPS   C36 8904   6.093   6.576   7.392  0.1876 -0.7470  0.0860
   91SAPS   H6X 8905   6.099   6.682   7.424  0.9263 -0.6350 -0.3959
   91SAPS   H6Y 8906   6.197   6.539   7.386  0.5280 -0.0185  1.1319
   91SAPS   C37 8907   6.014   6.489   7.491 -0.4831 -0.2430  0.9936
   91SAPS   H7X 8908   6.024   6.384   7.456 -0.6318 -0.1073  0.5269
   91SAPS   H7Y 8909   5.905   6.508   7.500 -0.5390 -0.9539  1.9669
   91SAPS   C38 8910   6.059   6.501   7.636 -0.1772  0.3270  0.0348
   91SAPS   H8X 8911   6.065   6.608   7.663 -0.7335  0.3975 -0.1101
   91SAPS   H8Y 8912   6.165   6.468   7.645  0.0149  1.5907  3.8162
   91SAPS   C39 8913   5.978   6.423   7.738  1.1152  0.4062  0.1964
   91SAPS   H9X 8914   5.962   6.324   7.689  1.7464  1.0771 -1.4494
   91SAPS   H9Y 8915   5.883   6.480   7.752  1.3844  0.7132  0.7840
   91SAPS  C310 8916   6.057   6.409   7.866 -0.0322 -0.2687  0.0594
   91SAPS  H10X 8917   6.074   6.510   7.907  0.3148  0.5814 -2.0466
   91SAPS  H10Y 8918   6.157   6.364   7.844 -1.8209 -3.9216 -1.4468
   91SAPS  C311 8919   5.986   6.335   7.979 -0.0169  0.7031 -0.1455
   91SAPS  H11X 8920   5.948   6.241   7.933  0.4678  1.2453 -1.7025
   91SAPS  H11Y 8921   5.901   6.399   8.011  0.0820  0.4189  0.7273
   91SAPS  C312 8922   6.068   6.314   8.111  0.7734  0.7037  1.4828
   91SAPS  H12X 8923   6.073   6.412   8.163 -1.0734  2.1218 -0.8489
   91SAPS  H12Y 8924   6.162   6.272   8.068 -0.4816  1.3466 -2.2116
   91SAPS  C313 8925   6.006   6.210   8.205 -0.1396  0.0495  0.5052
   91SAPS  H13X 8926   5.922   6.250   8.266 -0.3805  0.7647 -0.2609
   91SAPS  H13Y 8927   6.088   6.181   8.273  0.0147 -2.3691 -0.6193
   91SAPS  C314 8928   5.968   6.075   8.146  0.4812  0.7176  1.1729
   91SAPS  H14X 8929   6.067   6.041   8.109  0.3417  1.2705  0.2586
   91SAPS  H14Y 8930   5.889   6.084   8.068 -0.1718 -1.5176  1.5079
   91SAPS  C315 8931   5.930   5.971   8.244 -0.7020  0.0991 -0.3229
   91SAPS  H15X 8932   5.963   5.991   8.348  0.6903 -1.8285 -0.3307
   91SAPS  H15Y 8933   5.994   5.883   8.223 -2.3882 -0.8051 -1.9090
   91SAPS  C316 8934   5.783   5.921   8.235  0.3755 -0.5220  0.1116
   91SAPS  H16X 8935   5.769   5.888   8.130  0.1191 -1.8589  0.5376
   91SAPS  H16Y 8936   5.703   5.992   8.265  0.7578  0.0326 -0.1605
   91SAPS  C317 8937   5.761   5.789   8.316 -0.0207 -0.1810  0.0944
   91SAPS  H17X 8938   5.749   5.822   8.421  1.4518  0.2190  0.1632
   91SAPS  H17Y 8939   5.849   5.720   8.322 -1.2129 -1.8560 -0.9023
   91SAPS  C318 8940   5.640   5.713   8.268 -0.0434 -0.1873 -0.0918
   91SAPS  H18X 8941   5.599   5.637   8.339 -1.4331  0.1676 -0.4884
   91SAPS  H18Y 8942   5.681   5.656   8.181 -0.5824 -0.7589  0.0235
   91SAPS  H18Z 8943   5.549   5.772   8.244 -0.1507 -1.3185 -2.9118
   92SAPS     N 8944   2.594   3.871   6.374 -1.2500 -0.0051 -0.6494
   92SAPS   HN1 8945   2.559   3.947   6.436  0.2854  0.1252  0.1065
   92SAPS   HN2 8946   2.519   3.823   6.320 -1.8326 -0.8921  0.8990
   92SAPS   HN3 8947   2.642   3.805   6.437  0.3144  1.4018 -0.3033
   92SAPS   C12 8948   2.694   3.938   6.298  0.4819  0.2011  0.0554
   92SAPS  H12A 8949   2.731   3.871   6.221  0.1066 -0.0115  0.0596
   92SAPS   C13 8950   2.646   4.056   6.207  0.1523  0.0909  0.1817
   92SAPS  O13A 8951   2.535   4.109   6.226 -0.1761  0.1995  0.6015
   92SAPS  O13B 8952   2.730   4.109   6.131 -0.3834  0.1669  0.4670
   92SAPS   C11 8953   2.805   3.988   6.392  0.8513 -0.1686 -0.1988
   92SAPS  H11A 8954   2.757   4.058   6.463 -1.6671 -1.0275 -0.9624
   92SAPS  H11B 8955   2.880   4.050   6.337  2.3798 -2.2294 -0.5607
   92SAPS     P 8956   2.993   3.937   6.550  0.0053 -0.1712 -0.0976
   92SAPS   O13 8957   3.047   3.826   6.637 -0.0366 -0.6184 -0.5244
   92SAPS   O14 8958   3.085   4.002   6.452 -0.2667  0.0562 -0.0810
   92SAPS   O12 8959   2.873   3.885   6.468  0.4903 -0.2103  0.8158
   92SAPS   O11 8960   2.937   4.046   6.644  0.3732 -0.5112 -0.6145
   92SAPS    C1 8961   2.841   4.004   6.742 -0.3109 -0.4616 -0.6563
   92SAPS    HA 8962   2.770   3.930   6.698  2.2935 -2.0945 -2.3680
   92SAPS    HB 8963   2.894   3.958   6.828 -0.1062  1.1812  0.1394
   92SAPS    C2 8964   2.751   4.116   6.793  0.1193  0.3909 -0.1299
   92SAPS    HS 8965   2.690   4.169   6.717 -0.7953  0.3287  0.5314
   92SAPS   O21 8966   2.824   4.205   6.872 -0.2711 -1.1556 -0.0365
   92SAPS   C21 8967   2.772   4.320   6.889 -0.5040  0.1071 -0.0640
   92SAPS   O22 8968   2.674   4.369   6.837  0.1661  0.8833  0.1598
   92SAPS   C22 8969   2.875   4.400   6.963 -0.3832  0.6204  0.4310
   92SAPS   H2R 8970   2.973   4.356   6.991 -1.2372 -2.2045 -0.7647
   92SAPS   H2S 8971   2.893   4.493   6.905  2.8152  0.0697  0.3607
   92SAPS    C3 8972   2.637   4.059   6.882  0.0971  0.5950  0.0769
   92SAPS    HX 8973   2.571   3.987   6.829 -0.0124  1.3149 -0.7756
   92SAPS    HY 8974   2.575   4.147   6.908  0.5618  1.6664 -2.2757
   92SAPS   O31 8975   2.698   3.999   7.000  0.6555  0.2742 -0.3568
   92SAPS   C31 8976   2.610   3.920   7.073 -0.6925 -0.0496 -0.6993
   92SAPS   O32 8977   2.506   3.878   7.028 -0.2195  0.2825 -0.0873
   92SAPS   C32 8978   2.663   3.883   7.207  0.2531 -0.2936 -0.5502
   92SAPS   H2X 8979   2.716   3.979   7.227  0.8477 -0.5398 -0.8996
   92SAPS   H2Y 8980   2.733   3.797   7.199  1.2016  0.4034 -0.0259
   92SAPS   C23 8981   2.811   4.443   7.098 -0.2561  0.6000 -0.5768
   92SAPS   H3R 8982   2.716   4.495   7.077 -0.3689  0.9259  0.6929
   92SAPS   H3S 8983   2.879   4.519   7.141  1.0737 -0.2861 -1.0333
   92SAPS   C24 8984   2.807   4.323   7.193 -0.5325 -0.1313  0.5571
   92SAPS   H4R 8985   2.755   4.241   7.139 -0.0106 -0.3336  0.3584
   92SAPS   H4S 8986   2.748   4.356   7.281  1.0314  0.1997  1.5253
   92SAPS   C25 8987   2.946   4.272   7.233 -0.5704  0.6641 -0.8370
   92SAPS   H5R 8988   3.010   4.231   7.153  2.0941  3.3333 -0.2569
   92SAPS   C26 8989   2.997   4.261   7.358 -1.4216 -0.8990 -0.8431
   92SAPS   H6R 8990   3.106   4.248   7.367 -1.4547 -1.8184 -1.5623
   92SAPS   C27 8991   2.931   4.316   7.486 -0.4615 -0.0021  0.4287
   92SAPS   H7R 8992   3.009   4.312   7.565 -0.8546 -3.3335  0.7878
   92SAPS   H7S 8993   2.866   4.236   7.528 -1.2764  0.8641  0.8569
   92SAPS   C28 8994   2.863   4.448   7.482  0.3951 -0.0393  0.0534
   92SAPS   H8R 8995   2.867   4.504   7.387  1.9747 -1.1107 -0.5537
   92SAPS   C29 8996   2.798   4.502   7.589 -0.3382 -0.3223  0.8841
   92SAPS   H9R 8997   2.752   4.602   7.583 -0.6071 -0.5055 -0.3037
   92SAPS  C210 8998   2.782   4.443   7.726 -0.0056 -0.4752  0.6929
   92SAPS  H10R 8999   2.812   4.336   7.731  1.2324 -0.2288 -0.7340
   92SAPS  H10S 9000   2.673   4.429   7.737 -0.2248 -2.5904 -2.6107
   92SAPS  C211 9001   2.856   4.514   7.837 -0.4525 -0.4773 -0.5033
   92SAPS  H11R 9002   2.961   4.542   7.817 -0.1459 -0.9816  0.3286
   92SAPS  C212 9003   2.821   4.528   7.962 -0.4894 -0.3222  0.2610
   92SAPS  H12R 9004   2.879   4.595   8.028  0.5860  0.9724 -1.8545
   92SAPS  C213 9005   2.688   4.485   8.028  0.2362  0.7814 -0.6520
   92SAPS  H13R 9006   2.623   4.432   7.955  0.6972 -0.3682 -0.2582
   92SAPS  H13S 9007   2.628   4.578   8.042 -1.0308  0.0484 -1.0189
   92SAPS  C214 9008   2.695   4.404   8.155 -0.6603  0.4775  0.1199
   92SAPS  H14R 9009   2.726   4.298   8.156 -0.6488  0.4573 -0.8608
   92SAPS  C215 9010   2.676   4.455   8.278  0.5830  0.3164  0.8889
   92SAPS  H15R 9011   2.669   4.389   8.366 -2.0877  1.2205  1.4495
   92SAPS  C216 9012   2.645   4.596   8.310  0.0967 -0.2420  0.2290
   92SAPS  H16R 9013   2.563   4.601   8.385 -1.2691 -2.6049 -0.9712
   92SAPS  H16S 9014   2.613   4.657   8.223  1.5614 -1.1575 -1.0125
   92SAPS  C217 9015   2.773   4.661   8.361  0.2763  0.2113  0.1440
   92SAPS  H17R 9016   2.854   4.642   8.286 -0.0874 -2.6214  0.3569
   92SAPS  H17S 9017   2.814   4.609   8.451  1.9691  2.2538  0.6427
   92SAPS  C218 9018   2.756   4.812   8.382  0.8755 -0.5521  0.0423
   92SAPS  H18R 9019   2.679   4.823   8.461  1.0130  2.2618 -0.1364
   92SAPS  H18S 9020   2.715   4.860   8.291  1.8336 -0.6221 -0.4430
   92SAPS  C219 9021   2.878   4.890   8.424  0.0458  0.3446 -1.2051
   92SAPS  H19R 9022   2.844   4.996   8.424  0.4192  0.4738 -0.6063
   92SAPS  H19S 9023   2.970   4.875   8.365  1.0208  0.0070  0.3411
   92SAPS  C220 9024   2.929   4.857   8.568  0.0450  0.0434  0.5241
   92SAPS  H20R 9025   2.961   4.751   8.570 -0.4648 -0.1078  0.8844
   92SAPS  H20S 9026   2.842   4.869   8.637  0.6890 -1.4578  1.6398
   92SAPS  H20T 9027   3.006   4.933   8.593 -0.1588  1.1358 -1.8918
   92SAPS   C33 9028   2.551   3.868   7.303  0.7161  0.5521  0.2244
   92SAPS   H3X 9029   2.498   3.772   7.287  0.1630  0.9039 -0.0994
   92SAPS   H3Y 9030   2.470   3.944   7.304 -1.1510 -1.3006 -1.4936
   92SAPS   C34 9031   2.601   3.854   7.451 -0.3710 -0.1743  0.3229
   92SAPS   H4X 9032   2.670   3.940   7.471 -0.3470  0.8161 -3.2651
   92SAPS   H4Y 9033   2.658   3.759   7.461 -0.6014 -0.3113  0.3188
   92SAPS   C35 9034   2.491   3.853   7.555  0.3279  0.6707  0.4752
   92SAPS   H5X 9035   2.412   3.776   7.538 -0.5483  1.8976 -1.3027
   92SAPS   H5Y 9036   2.434   3.948   7.543 -1.4949 -0.6115 -1.9219
   92SAPS   C36 9037   2.546   3.831   7.692 -0.1613 -0.2484 -0.2376
   92SAPS   H6X 9038   2.611   3.921   7.705  2.2465 -2.0345  0.9098
   92SAPS   H6Y 9039   2.617   3.747   7.704  0.3962  0.4277  1.4157
   92SAPS   C37 9040   2.437   3.821   7.803 -0.5399  0.5208  0.4259
   92SAPS   H7X 9041   2.366   3.744   7.768  1.8745 -2.1514  0.9997
   92SAPS   H7Y 9042   2.380   3.916   7.813 -0.0057  0.6496  3.0225
   92SAPS   C38 9043   2.491   3.781   7.940 -0.2779  0.5927  0.6804
   92SAPS   H8X 9044   2.592   3.740   7.919 -0.8023  0.1091 -1.0823
   92SAPS   H8Y 9045   2.431   3.706   7.995 -1.2909  0.4930 -0.5191
   92SAPS   C39 9046   2.513   3.902   8.038  0.4043  0.3403  0.2390
   92SAPS   H9X 9047   2.420   3.960   8.058 -0.8478 -1.0646 -1.1569
   92SAPS   H9Y 9048   2.584   3.969   7.986  1.0996 -1.4783 -1.2787
   92SAPS  C310 9049   2.570   3.856   8.172  0.2104  0.1550  0.3456
   92SAPS  H10X 9050   2.664   3.800   8.157  0.5945  0.7940  0.3461
   92SAPS  H10Y 9051   2.500   3.797   8.236  0.1745 -0.7967 -0.5461
   92SAPS  C311 9052   2.616   3.970   8.262 -0.4430  0.6327  0.0683
   92SAPS  H11X 9053   2.529   4.037   8.278 -0.0356  0.7950  1.7716
   92SAPS  H11Y 9054   2.698   4.028   8.215  0.0607 -1.8853 -2.4724
   92SAPS  C312 9055   2.660   3.907   8.391 -0.3861 -0.3294  0.4510
   92SAPS  H12X 9056   2.749   3.848   8.362 -1.0747 -0.3322 -1.9454
   92SAPS  H12Y 9057   2.584   3.836   8.430 -1.0943  0.8986  1.3872
   92SAPS  C313 9058   2.679   4.009   8.507  0.4467  0.5126  0.4988
   92SAPS  H13X 9059   2.579   4.039   8.546  0.3364  2.9734 -1.3960
   92SAPS  H13Y 9060   2.726   4.098   8.460  1.2796  0.9034  1.9934
   92SAPS  C314 9061   2.763   3.959   8.625 -0.1503 -0.5874  0.3634
   92SAPS  H14X 9062   2.709   3.865   8.651  0.7875 -1.0544  0.6511
   92SAPS  H14Y 9063   2.757   4.016   8.720 -0.1011 -0.7822  0.4867
   92SAPS  C315 9064   2.907   3.927   8.593  0.7742  0.4602  0.2831
   92SAPS  H15X 9065   2.968   4.019   8.580  0.6965  0.4728 -0.0082
   92SAPS  H15Y 9066   2.923   3.885   8.491  2.3346  0.5437  0.4774
   92SAPS  C316 9067   2.970   3.836   8.688  0.1133  0.4343 -0.3079
   92SAPS  H16X 9068   2.918   3.738   8.682  0.4184  0.3615 -2.7664
   92SAPS  H16Y 9069   2.952   3.882   8.787  0.6842  0.3087 -0.1397
   92SAPS  C317 9070   3.125   3.825   8.678 -0.0702 -0.5925 -0.1324
   92SAPS  H17X 9071   3.166   3.927   8.670  0.8547 -1.1074 -3.3546
   92SAPS  H17Y 9072   3.163   3.780   8.583 -0.8765 -0.0479 -0.7275
   92SAPS  C318 9073   3.181   3.746   8.788 -0.0350 -1.1406 -0.1631
   92SAPS  H18X 9074   3.151   3.640   8.777 -3.4086 -0.5514  1.7882
   92SAPS  H18Y 9075   3.129   3.771   8.883  1.0608 -1.9930  0.6778
   92SAPS  H18Z 9076   3.290   3.748   8.810  0.0245  1.9149 -0.2526
   93SAPS     N 9077   5.439   6.118   6.044  0.4536  0.9212 -0.7484
   93SAPS   HN1 9078   5.486   6.210   6.048 -0.8579  1.5833  0.1122
   93SAPS   HN2 9079   5.496   6.058   6.107 -0.3487  1.1123  0.1953
   93SAPS   HN3 9080   5.436   6.071   5.951  0.4590  0.1467 -0.3680
   93SAPS   C12 9081   5.293   6.130   6.092 -0.3016 -0.5493  0.3479
   93SAPS  H12A 9082   5.248   6.205   6.029 -1.3552 -0.7022  0.9092
   93SAPS   C13 9083   5.210   6.002   6.066 -0.1605  1.2491 -0.0711
   93SAPS  O13A 9084   5.258   5.893   6.105  0.1541  0.8248 -0.5765
   93SAPS  O13B 9085   5.086   6.024   6.053  0.4819  0.3776  0.0709
   93SAPS   C11 9086   5.290   6.162   6.246  1.0598 -0.3052 -0.1506
   93SAPS  H11A 9087   5.320   6.077   6.310 -1.1314 -2.1162 -1.3875
   93SAPS  H11B 9088   5.184   6.184   6.269  1.7070  1.3239  1.5494
   93SAPS     P 9089   5.342   6.394   6.367  0.2668  0.2467 -0.4649
   93SAPS   O13 9090   5.436   6.507   6.345  0.4168 -0.7743  0.8669
   93SAPS   O14 9091   5.194   6.414   6.380 -0.0127 -0.7533 -0.1932
   93SAPS   O12 9092   5.372   6.277   6.270 -0.0836 -0.0076  0.0313
   93SAPS   O11 9093   5.392   6.329   6.507  0.3475 -0.5331  0.1461
   93SAPS    C1 9094   5.516   6.263   6.506 -0.3641 -0.0110  0.4871
   93SAPS    HA 9095   5.512   6.175   6.439  2.1660 -1.0004  1.5174
   93SAPS    HB 9096   5.604   6.323   6.473  0.4835  0.7944  3.8297
   93SAPS    C2 9097   5.557   6.210   6.655  1.2562 -0.1494 -0.0804
   93SAPS    HS 9098   5.647   6.146   6.651  1.4724  0.0631  1.1506
   93SAPS   O21 9099   5.449   6.136   6.711  0.3825  0.0479  0.0058
   93SAPS   C21 9100   5.412   6.027   6.655  0.6091  0.2149  0.1547
   93SAPS   O22 9101   5.469   5.969   6.562 -0.1040 -0.1776  0.0612
   93SAPS   C22 9102   5.275   5.980   6.715 -0.2986 -0.7512  0.3281
   93SAPS   H2R 9103   5.279   5.987   6.826 -0.0269 -3.5691  0.5795
   93SAPS   H2S 9104   5.188   6.036   6.676  0.0012 -0.5512 -0.0599
   93SAPS    C3 9105   5.596   6.327   6.747  0.8266 -0.1832 -0.0940
   93SAPS    HX 9106   5.502   6.385   6.738  0.6102 -0.5613 -0.3149
   93SAPS    HY 9107   5.679   6.384   6.699  0.8598 -0.5103 -0.4245
   93SAPS   O31 9108   5.631   6.269   6.873 -0.8378  0.4827 -0.6067
   93SAPS   C31 9109   5.538   6.293   6.971 -0.7296  0.6882 -0.5135
   93SAPS   O32 9110   5.449   6.376   6.961 -0.2137  0.0128 -0.1043
   93SAPS   C32 9111   5.568   6.212   7.095  0.4520  0.2969  0.3728
   93SAPS   H2X 9112   5.653   6.142   7.082  2.3851  2.5206  0.4520
   93SAPS   H2Y 9113   5.477   6.153   7.121  1.1696 -0.8009  0.4703
   93SAPS   C23 9114   5.245   5.838   6.678  0.1289  0.0419 -0.4723
   93SAPS   H3R 9115   5.334   5.775   6.698  2.1322  2.6596 -0.7124
   93SAPS   H3S 9116   5.247   5.827   6.567  3.3636 -2.6309 -0.2865
   93SAPS   C24 9117   5.130   5.769   6.746 -0.2933  0.3585  0.8428
   93SAPS   H4R 9118   5.109   5.668   6.706 -2.0236  0.9380  0.2017
   93SAPS   H4S 9119   5.043   5.833   6.719  0.4940  0.8643 -0.6559
   93SAPS   C25 9120   5.153   5.760   6.892  0.7817 -0.4040  0.3495
   93SAPS   H5R 9121   5.171   5.844   6.960  0.8195 -2.0712  2.4776
   93SAPS   C26 9122   5.176   5.645   6.952  0.5174 -0.2224 -0.8394
   93SAPS   H6R 9123   5.197   5.653   7.060 -0.0353  1.3774 -0.8387
   93SAPS   C27 9124   5.186   5.502   6.899  0.2969 -0.4793 -0.4534
   93SAPS   H7R 9125   5.111   5.503   6.817  0.6840 -0.7421 -0.8169
   93SAPS   H7S 9126   5.142   5.434   6.975  0.0324  1.8461  1.6015
   93SAPS   C28 9127   5.313   5.463   6.833 -0.3654 -0.1184 -0.4046
   93SAPS   H8R 9128   5.357   5.519   6.749  1.0237 -3.1958 -1.8967
   93SAPS   C29 9129   5.380   5.346   6.856 -0.0500 -0.4184  0.2057
   93SAPS   H9R 9130   5.471   5.321   6.799 -0.9916 -2.5020 -0.5039
   93SAPS  C210 9131   5.344   5.240   6.953 -0.1155  0.0662  0.6694
   93SAPS  H10R 9132   5.293   5.159   6.897 -2.2293  1.9957 -0.3507
   93SAPS  H10S 9133   5.283   5.287   7.033 -0.8617  0.8206 -0.3297
   93SAPS  C211 9134   5.458   5.162   7.014 -0.5674 -0.9121 -0.5850
   93SAPS  H11R 9135   5.515   5.105   6.939  0.4486 -0.7785  0.0807
   93SAPS  C212 9136   5.515   5.168   7.135 -0.3283 -0.0873  1.1222
   93SAPS  H12R 9137   5.610   5.115   7.154  0.1282  0.9492  1.8381
   93SAPS  C213 9138   5.478   5.267   7.240  0.3927  0.4383 -0.6810
   93SAPS  H13R 9139   5.378   5.310   7.220 -0.1392  0.0304  0.9523
   93SAPS  H13S 9140   5.553   5.349   7.239 -0.6882  1.4713 -2.3950
   93SAPS  C214 9141   5.479   5.198   7.378 -0.6737 -0.4982 -0.2485
   93SAPS  H14R 9142   5.453   5.091   7.385 -1.8473 -0.2809 -1.0572
   93SAPS  C215 9143   5.519   5.257   7.492  0.1697 -0.3085  0.2998
   93SAPS  H15R 9144   5.494   5.198   7.582 -0.7561  0.6193  0.6674
   93SAPS  C216 9145   5.570   5.396   7.519 -0.3387 -0.0768 -0.1011
   93SAPS  H16R 9146   5.528   5.477   7.456  0.6406  0.2280 -0.3844
   93SAPS  H16S 9147   5.678   5.403   7.491 -0.2823 -1.3907 -0.2698
   93SAPS  C217 9148   5.540   5.432   7.667  0.4753 -0.6101  0.6185
   93SAPS  H17R 9149   5.435   5.406   7.694  0.4031 -1.5683 -0.4995
   93SAPS  H17S 9150   5.551   5.542   7.665  0.0607 -0.5362 -2.4996
   93SAPS  C218 9151   5.646   5.369   7.760  0.0967 -0.4136  0.0815
   93SAPS  H18R 9152   5.737   5.382   7.697  0.2385  1.2799  0.5849
   93SAPS  H18S 9153   5.645   5.259   7.777 -1.5658 -0.3877  0.3662
   93SAPS  C219 9154   5.659   5.442   7.891 -0.0203 -0.0549  0.2874
   93SAPS  H19R 9155   5.562   5.434   7.945 -0.0796  0.5680  0.2804
   93SAPS  H19S 9156   5.707   5.540   7.870  2.9620 -1.3026  0.8449
   93SAPS  C220 9157   5.771   5.378   7.974  0.9292  0.7092 -0.1941
   93SAPS  H20R 9158   5.832   5.314   7.907  1.1569 -1.4265  1.9228
   93SAPS  H20S 9159   5.721   5.303   8.039  0.8161  0.6635 -0.3346
   93SAPS  H20T 9160   5.831   5.452   8.032  1.5029  1.0065 -1.1433
   93SAPS   C33 9161   5.594   6.306   7.216 -0.3153  0.0069  0.4513
   93SAPS   H3X 9162   5.513   6.382   7.216  0.8283  1.2961 -0.8027
   93SAPS   H3Y 9163   5.694   6.348   7.194  1.7794 -2.7203  3.8003
   93SAPS   C34 9164   5.593   6.237   7.349 -0.1993  0.1178 -0.7132
   93SAPS   H4X 9165   5.676   6.163   7.348 -0.2393 -0.0849  2.2035
   93SAPS   H4Y 9166   5.497   6.188   7.374 -1.3610  2.3764 -0.4397
   93SAPS   C35 9167   5.625   6.343   7.450 -0.0316  0.2676 -0.8132
   93SAPS   H5X 9168   5.542   6.416   7.454 -0.5462 -0.3088 -0.9221
   93SAPS   H5Y 9169   5.713   6.396   7.407 -0.0399  1.9263  1.0830
   93SAPS   C36 9170   5.660   6.297   7.596 -0.2286  0.2609  0.3990
   93SAPS   H6X 9171   5.718   6.383   7.637 -0.6489  2.5301 -3.2614
   93SAPS   H6Y 9172   5.729   6.211   7.595  0.0159  0.4510  0.8194
   93SAPS   C37 9173   5.535   6.269   7.671  0.8437  0.2524 -0.5184
   93SAPS   H7X 9174   5.482   6.196   7.606  0.6982  0.7770 -0.9912
   93SAPS   H7Y 9175   5.478   6.364   7.680  1.7114  0.8413 -1.1148
   93SAPS   C38 9176   5.550   6.218   7.820 -0.1068  0.3203  0.5252
   93SAPS   H8X 9177   5.623   6.135   7.821  1.8002  1.8935 -0.4653
   93SAPS   H8Y 9178   5.452   6.187   7.861 -1.2156  0.4600 -1.8523
   93SAPS   C39 9179   5.597   6.331   7.911  0.2192  0.4651  0.4221
   93SAPS   H9X 9180   5.538   6.425   7.905 -3.0424 -1.4918 -1.2246
   93SAPS   H9Y 9181   5.699   6.366   7.883  0.5558  1.3840  2.5748
   93SAPS  C310 9182   5.610   6.296   8.062  0.0534  0.4632 -0.1391
   93SAPS  H10X 9183   5.675   6.370   8.113 -0.0832  1.4356 -1.3185
   93SAPS  H10Y 9184   5.669   6.203   8.070  1.1646  1.0291 -1.3665
   93SAPS  C311 9185   5.470   6.298   8.125  0.3711  0.4133  0.1814
   93SAPS  H11X 9186   5.403   6.222   8.079 -0.7019  2.4808 -1.8678
   93SAPS  H11Y 9187   5.411   6.391   8.116 -1.4725 -0.7032  0.2981
   93SAPS  C312 9188   5.471   6.272   8.279 -0.4606 -0.1149  0.3910
   93SAPS  H12X 9189   5.535   6.182   8.296  1.1082  1.1342  1.3966
   93SAPS  H12Y 9190   5.367   6.251   8.312 -2.1396  1.4813 -3.3409
   93SAPS  C313 9191   5.542   6.384   8.356 -0.1748  0.4066 -0.7868
   93SAPS  H13X 9192   5.652   6.370   8.364 -0.3213  0.2132  3.1778
   93SAPS  H13Y 9193   5.517   6.384   8.465 -0.3255 -0.4875 -0.8127
   93SAPS  C314 9194   5.492   6.529   8.317  0.0490  0.0448 -0.1058
   93SAPS  H14X 9195   5.380   6.528   8.316 -0.0246  2.5425 -0.9795
   93SAPS  H14Y 9196   5.537   6.559   8.220  0.8724 -0.1731  0.2059
   93SAPS  C315 9197   5.547   6.639   8.410 -0.6739  0.0710 -0.3214
   93SAPS  H15X 9198   5.523   6.745   8.386  1.1081  1.0816  1.9888
   93SAPS  H15Y 9199   5.657   6.639   8.397 -0.5160 -0.0625  0.9164
   93SAPS  C316 9200   5.533   6.620   8.558 -0.1491 -0.3803  1.3597
   93SAPS  H16X 9201   5.591   6.537   8.605  0.0308 -0.7016  0.5891
   93SAPS  H16Y 9202   5.428   6.598   8.586 -0.9527 -1.8973 -2.2760
   93SAPS  C317 9203   5.565   6.758   8.624  0.2483  1.4103 -0.2528
   93SAPS  H17X 9204   5.581   6.754   8.734 -0.1942 -0.1142 -0.2220
   93SAPS  H17Y 9205   5.474   6.821   8.619  0.2610  1.4121 -0.4791
   93SAPS  C318 9206   5.682   6.834   8.561  0.3324 -0.1938 -0.3771
   93SAPS  H18X 9207   5.693   6.929   8.618 -0.2743 -1.7353  2.4823
   93SAPS  H18Y 9208   5.649   6.873   8.463 -3.6620  0.2037  0.9401
   93SAPS  H18Z 9209   5.781   6.783   8.552 -0.0224 -0.7985 -0.9030
   94SAPS     N 9210   4.824   0.959   6.174 -0.0280 -0.1673 -0.3824
   94SAPS   HN1 9211   4.839   1.062   6.178 -1.2672  0.0064  0.0085
   94SAPS   HN2 9212   4.760   0.943   6.254  0.6987  3.3054  1.0657
   94SAPS   HN3 9213   4.917   0.914   6.190  0.0199  0.2140  0.4814
   94SAPS   C12 9214   4.746   0.912   6.054 -0.2515  0.3490  0.0934
   94SAPS  H12A 9215   4.814   0.922   5.971 -1.0570 -0.6557 -0.7101
   94SAPS   C13 9216   4.710   0.767   6.053 -0.2065 -0.2021  0.2401
   94SAPS  O13A 9217   4.751   0.692   6.149 -0.0287 -0.3080 -0.3186
   94SAPS  O13B 9218   4.649   0.726   5.948  0.1369  0.1242 -0.1155
   94SAPS   C11 9219   4.628   1.002   6.031  0.6274 -0.0991  0.3260
   94SAPS  H11A 9220   4.561   0.997   6.119 -1.0530 -1.4242 -0.9483
   94SAPS  H11B 9221   4.566   0.969   5.945  1.6405 -0.0498 -0.4520
   94SAPS     P 9222   4.556   1.239   5.966  0.4122  0.2616 -0.1654
   94SAPS   O13 9223   4.616   1.369   5.936 -0.5670  0.3086 -1.0641
   94SAPS   O14 9224   4.478   1.173   5.862  0.0676 -0.5226 -0.7401
   94SAPS   O12 9225   4.664   1.140   6.014  0.1889  0.4325  0.2677
   94SAPS   O11 9226   4.477   1.248   6.100  0.6791 -0.0657  0.0163
   94SAPS    C1 9227   4.548   1.287   6.222  0.1323 -0.0698  0.0962
   94SAPS    HA 9228   4.649   1.242   6.231  0.5119  0.8189  0.3589
   94SAPS    HB 9229   4.563   1.396   6.238  2.7691 -0.3202 -0.2453
   94SAPS    C2 9230   4.460   1.230   6.336 -0.3413 -0.3892  0.3075
   94SAPS    HS 9231   4.439   1.125   6.309 -1.5102  0.6565 -3.4619
   94SAPS   O21 9232   4.338   1.316   6.337  0.1723  0.2581  0.3759
   94SAPS   C21 9233   4.247   1.273   6.417  0.0724  0.1533  0.3786
   94SAPS   O22 9234   4.245   1.163   6.477  0.3032  0.9396  0.3641
   94SAPS   C22 9235   4.125   1.362   6.405 -0.7666 -0.6978  0.1324
   94SAPS   H2R 9236   4.167   1.459   6.371 -1.9883 -0.7155 -1.5297
   94SAPS   H2S 9237   4.058   1.327   6.324 -0.6982 -0.7102  0.0814
   94SAPS    C3 9238   4.522   1.234   6.475 -0.0282  0.3899 -0.1245
   94SAPS    HX 9239   4.627   1.200   6.461  0.0711  1.5231 -2.6341
   94SAPS    HY 9240   4.465   1.163   6.539 -0.2963 -1.3930 -2.2274
   94SAPS   O31 9241   4.521   1.365   6.523  0.1514  0.3375 -0.5329
   94SAPS   C31 9242   4.624   1.447   6.500 -0.3901 -0.2611  0.3003
   94SAPS   O32 9243   4.719   1.428   6.429  0.3153  0.3460 -0.0784
   94SAPS   C32 9244   4.603   1.574   6.587  0.1971 -0.1537 -0.4749
   94SAPS   H2X 9245   4.621   1.530   6.687 -1.4044 -0.2077 -0.1934
   94SAPS   H2Y 9246   4.501   1.614   6.570  0.6864  0.6164 -1.7597
   94SAPS   C23 9247   4.046   1.383   6.531 -0.0795  0.2623  0.6076
   94SAPS   H3R 9248   4.066   1.298   6.599 -0.4367 -0.8167 -0.6038
   94SAPS   H3S 9249   3.936   1.369   6.517 -0.2987  1.3072  1.0908
   94SAPS   C24 9250   4.071   1.521   6.592  0.7617  0.3042  0.2272
   94SAPS   H4R 9251   3.990   1.536   6.665 -1.8918  0.5988 -2.5752
   94SAPS   H4S 9252   4.056   1.590   6.506 -0.2321 -0.6618 -0.4043
   94SAPS   C25 9253   4.209   1.547   6.642  0.2203  0.3528  0.0630
   94SAPS   H5R 9254   4.283   1.583   6.570 -1.1818  1.1655 -1.0323
   94SAPS   C26 9255   4.240   1.530   6.775  0.0471 -0.7935  0.5933
   94SAPS   H6R 9256   4.341   1.571   6.791  0.0255 -0.1765 -0.7097
   94SAPS   C27 9257   4.158   1.492   6.896 -0.0771  0.4696  1.1036
   94SAPS   H7R 9258   4.188   1.393   6.938 -3.0240 -1.4240 -0.8200
   94SAPS   H7S 9259   4.049   1.480   6.875 -0.2919  0.6354  2.0794
   94SAPS   C28 9260   4.177   1.612   6.986  0.1188 -0.5702  0.6312
   94SAPS   H8R 9261   4.144   1.707   6.942 -1.7969 -0.8822  1.3012
   94SAPS   C29 9262   4.220   1.617   7.113 -0.1619  0.3597  0.0562
   94SAPS   H9R 9263   4.235   1.713   7.163  1.5553  0.0270  0.2598
   94SAPS  C210 9264   4.250   1.496   7.202  0.2231 -0.5260  0.5685
   94SAPS  H10R 9265   4.197   1.407   7.161  0.3405 -0.4180  0.1801
   94SAPS  H10S 9266   4.199   1.514   7.298 -1.4729  0.4808 -0.4716
   94SAPS  C211 9267   4.401   1.472   7.207  0.0054  0.2727 -0.0488
   94SAPS  H11R 9268   4.460   1.491   7.116  1.5250  0.2910  0.9096
   94SAPS  C212 9269   4.472   1.417   7.312 -0.3107  0.2194 -0.7903
   94SAPS  H12R 9270   4.582   1.425   7.318 -0.0970 -2.3268 -0.0933
   94SAPS  C213 9271   4.401   1.377   7.443  0.1607 -0.1486 -0.3246
   94SAPS  H13R 9272   4.292   1.355   7.435  0.0157  0.8024 -1.0874
   94SAPS  H13S 9273   4.401   1.471   7.502 -3.3551 -0.7100  0.8039
   94SAPS  C214 9274   4.474   1.258   7.506 -1.0769  0.2849  0.0265
   94SAPS  H14R 9275   4.446   1.154   7.487  3.2549 -1.1349  0.2160
   94SAPS  C215 9276   4.592   1.280   7.563 -0.4540  0.0404  0.0401
   94SAPS  H15R 9277   4.641   1.191   7.606  2.8515  0.1284 -3.0733
   94SAPS  C216 9278   4.655   1.412   7.592  0.0610 -0.8615  0.0488
   94SAPS  H16R 9279   4.656   1.470   7.498 -0.8980 -1.4049 -0.3115
   94SAPS  H16S 9280   4.764   1.398   7.605  0.1851  0.8814  1.3125
   94SAPS  C217 9281   4.596   1.499   7.706  0.0160  0.0301 -0.5028
   94SAPS  H17R 9282   4.485   1.491   7.705  0.0814 -1.2705  0.3010
   94SAPS  H17S 9283   4.628   1.605   7.705  0.2733 -0.0072  1.1960
   94SAPS  C218 9284   4.645   1.447   7.841  0.0426  0.5643  0.2397
   94SAPS  H18R 9285   4.750   1.483   7.842  0.6724 -1.0308 -1.5477
   94SAPS  H18S 9286   4.655   1.336   7.839  0.2808  0.5212  2.3110
   94SAPS  C219 9287   4.570   1.493   7.966 -0.6110  0.3461  0.0995
   94SAPS  H19R 9288   4.627   1.438   8.044 -1.2292 -1.2925 -0.5652
   94SAPS  H19S 9289   4.466   1.459   7.951 -0.1976 -0.0097 -2.3852
   94SAPS  C220 9290   4.576   1.646   7.987 -0.4221 -0.1512  0.0204
   94SAPS  H20R 9291   4.527   1.669   8.084 -2.3523  0.2915 -1.0087
   94SAPS  H20S 9292   4.513   1.698   7.911 -0.2965 -0.8891 -0.6037
   94SAPS  H20T 9293   4.678   1.689   7.987 -0.8454  0.9868  2.0047
   94SAPS   C33 9294   4.701   1.687   6.565  0.1072  0.0117 -0.4513
   94SAPS   H3X 9295   4.678   1.747   6.474  0.9888  1.0637 -0.0157
   94SAPS   H3Y 9296   4.800   1.640   6.547  0.6049  1.4312 -1.6103
   94SAPS   C34 9297   4.708   1.785   6.686  0.0432 -0.2829 -0.0729
   94SAPS   H4X 9298   4.618   1.849   6.673 -0.4384 -0.5257  1.7408
   94SAPS   H4Y 9299   4.794   1.853   6.667  0.1271  0.0739  1.3985
   94SAPS   C35 9300   4.732   1.731   6.827  0.3559 -0.8645 -0.0712
   94SAPS   H5X 9301   4.822   1.666   6.817  0.2484 -1.1210  0.5968
   94SAPS   H5Y 9302   4.643   1.688   6.877 -0.1645  0.4523  0.1714
   94SAPS   C36 9303   4.774   1.848   6.926  0.5878 -0.0955  0.3202
   94SAPS   H6X 9304   4.695   1.925   6.926 -0.4202 -1.0925  1.5105
   94SAPS   H6Y 9305   4.858   1.904   6.878 -0.8588  0.0357 -2.2182
   94SAPS   C37 9306   4.801   1.801   7.067 -1.4595  0.2765 -0.2943
   94SAPS   H7X 9307   4.869   1.875   7.115 -0.9272 -1.6888  2.1743
   94SAPS   H7Y 9308   4.866   1.711   7.057  0.8853  1.7483  0.6756
   94SAPS   C38 9309   4.677   1.774   7.150 -0.1340  0.3359 -0.3784
   94SAPS   H8X 9310   4.629   1.684   7.106  0.0422 -1.2986  2.4903
   94SAPS   H8Y 9311   4.605   1.859   7.147  0.6946  1.0313 -0.8161
   94SAPS   C39 9312   4.705   1.731   7.301 -0.0790  0.1968 -0.4086
   94SAPS   H9X 9313   4.767   1.639   7.292  1.8899  1.3488  0.6243
   94SAPS   H9Y 9314   4.602   1.719   7.341 -0.0461  1.0057 -0.0620
   94SAPS  C310 9315   4.774   1.838   7.378 -0.2530  0.5152  0.4671
   94SAPS  H10X 9316   4.713   1.931   7.387  0.4888  1.0554  0.0638
   94SAPS  H10Y 9317   4.871   1.862   7.330  0.8267 -2.8526  0.7250
   94SAPS  C311 9318   4.814   1.789   7.518 -0.4697 -0.0942 -0.1206
   94SAPS  H11X 9319   4.865   1.690   7.518  3.7848  1.8730 -1.6397
   94SAPS  H11Y 9320   4.718   1.776   7.573 -0.0971 -1.8276  0.1879
   94SAPS  C312 9321   4.917   1.872   7.604  0.2259 -0.2279 -0.0190
   94SAPS  H12X 9322   4.891   1.975   7.635  0.6863 -0.1089 -0.0267
   94SAPS  H12Y 9323   5.013   1.883   7.550  1.3090  0.9741  2.0354
   94SAPS  C313 9324   4.963   1.803   7.734  0.8056 -0.8106 -0.5343
   94SAPS  H13X 9325   4.977   1.693   7.727 -0.9106 -0.9968 -1.9048
   94SAPS  H13Y 9326   4.892   1.828   7.815  0.9815  0.5740 -0.7776
   94SAPS  C314 9327   5.101   1.860   7.777  0.1592 -0.0271  0.5866
   94SAPS  H14X 9328   5.104   1.969   7.755 -2.5892  0.1039  0.5445
   94SAPS  H14Y 9329   5.177   1.822   7.704 -1.5656  1.3014 -2.0459
   94SAPS  C315 9330   5.150   1.820   7.919  0.1790 -0.1665  0.1034
   94SAPS  H15X 9331   5.261   1.829   7.930  0.2986 -1.9202  0.5603
   94SAPS  H15Y 9332   5.122   1.713   7.928 -0.2212 -0.0288  0.4863
   94SAPS  C316 9333   5.086   1.889   8.032 -0.2526  0.1631 -0.3570
   94SAPS  H16X 9334   4.977   1.892   8.012 -0.6580 -0.3767  1.5931
   94SAPS  H16Y 9335   5.111   1.998   8.033 -0.1326  0.1453  1.1700
   94SAPS  C317 9336   5.096   1.831   8.179 -0.8104  0.2796 -0.4781
   94SAPS  H17X 9337   5.052   1.910   8.245  1.4390 -0.5395  2.2124
   94SAPS  H17Y 9338   5.205   1.832   8.204 -0.9204  4.0954  0.6091
   94SAPS  C318 9339   5.033   1.692   8.203  0.2474  0.2686 -0.1510
   94SAPS  H18X 9340   4.990   1.703   8.305  0.2832 -0.3392 -0.0716
   94SAPS  H18Y 9341   5.105   1.609   8.187  0.0308 -0.2137  1.2262
   94SAPS  H18Z 9342   4.954   1.676   8.126  0.6533 -2.0551 -0.1511
   95SAPS     N 9343   2.639   6.506   6.423  0.0178 -0.3675  0.0615
   95SAPS   HN1 9344   2.542   6.541   6.436 -0.5634 -1.0773 -1.9832
   95SAPS   HN2 9345   2.691   6.488   6.510 -0.8608 -2.4406  0.2119
   95SAPS   HN3 9346   2.701   6.573   6.373 -1.6155 -0.5838 -2.4673
   95SAPS   C12 9347   2.630   6.382   6.335 -0.2582 -0.4220  0.2911
   95SAPS  H12A 9348   2.570   6.396   6.247 -0.3501 -2.4386 -0.0005
   95SAPS   C13 9349   2.764   6.331   6.285  0.1376 -0.3715  0.8325
   95SAPS  O13A 9350   2.863   6.406   6.299  0.1885  0.2797  0.2125
   95SAPS  O13B 9351   2.768   6.219   6.230 -0.6123 -0.1277 -0.0324
   95SAPS   C11 9352   2.561   6.268   6.421  0.5097 -0.5294 -0.1632
   95SAPS  H11A 9353   2.629   6.229   6.500 -0.8903  0.4725  1.6216
   95SAPS  H11B 9354   2.535   6.187   6.350  2.6302  0.1155 -1.7650
   95SAPS     P 9355   2.294   6.303   6.457  0.2849 -0.2613  0.1023
   95SAPS   O13 9356   2.226   6.432   6.487 -0.2679 -0.3062  0.0134
   95SAPS   O14 9357   2.295   6.269   6.314 -0.2487 -0.1109 -0.4177
   95SAPS   O12 9358   2.449   6.312   6.498 -0.0537 -0.4073 -0.6598
   95SAPS   O11 9359   2.242   6.184   6.552 -0.3170  0.0722 -0.1915
   95SAPS    C1 9360   2.324   6.100   6.632  0.5040 -0.0154  0.0706
   95SAPS    HA 9361   2.281   5.998   6.627 -1.3885  0.7794 -1.9581
   95SAPS    HB 9362   2.429   6.090   6.596  1.3620  3.4671  1.2170
   95SAPS    C2 9363   2.304   6.145   6.777  0.4038  0.1906  1.2504
   95SAPS    HS 9364   2.348   6.059   6.833  1.6483 -0.2123 -0.2740
   95SAPS   O21 9365   2.160   6.168   6.804  0.6583  0.1199  0.3077
   95SAPS   C21 9366   2.089   6.055   6.816 -0.0898  0.2466  0.6553
   95SAPS   O22 9367   2.134   5.941   6.828 -0.0958  0.2040 -0.5937
   95SAPS   C22 9368   1.941   6.098   6.837 -0.2406  0.0797  0.9735
   95SAPS   H2R 9369   1.917   6.184   6.771 -0.0712  0.0518  0.8733
   95SAPS   H2S 9370   1.886   6.014   6.790 -2.6060  1.2420  1.5032
   95SAPS    C3 9371   2.380   6.269   6.809 -0.7424 -0.2957  0.6394
   95SAPS    HX 9372   2.355   6.347   6.734 -0.2533 -1.8538 -1.2181
   95SAPS    HY 9373   2.485   6.239   6.787 -1.2117 -1.6615  0.1595
   95SAPS   O31 9374   2.355   6.325   6.938 -0.2537 -0.7480 -0.1453
   95SAPS   C31 9375   2.423   6.293   7.049 -0.0735  0.2456  0.9452
   95SAPS   O32 9376   2.513   6.210   7.054  0.1958  0.7965 -0.4013
   95SAPS   C32 9377   2.346   6.354   7.172  0.6623  0.2414  0.5900
   95SAPS   H2X 9378   2.239   6.338   7.146  0.6405  0.4533  0.5483
   95SAPS   H2Y 9379   2.354   6.465   7.173 -0.5812  0.3434  0.1672
   95SAPS   C23 9380   1.896   6.126   6.983  0.1050 -0.9314  0.5354
   95SAPS   H3R 9381   1.792   6.165   6.974  0.1161 -0.5969  1.7049
   95SAPS   H3S 9382   1.961   6.201   7.033  0.6763  0.8461 -2.6147
   95SAPS   C24 9383   1.888   5.991   7.063  0.0398  0.2626 -0.1705
   95SAPS   H4R 9384   1.863   5.913   6.988 -2.4779  0.2090  0.5998
   95SAPS   H4S 9385   1.812   5.995   7.144 -0.1645 -0.1912 -0.3389
   95SAPS   C25 9386   2.014   5.954   7.134  0.0839 -0.6876 -0.1349
   95SAPS   H5R 9387   2.086   5.897   7.074 -0.5739 -0.7929 -0.8332
   95SAPS   C26 9388   2.051   5.977   7.264  0.1264  0.4679  0.1208
   95SAPS   H6R 9389   2.154   5.952   7.292  0.3949  0.0444 -1.1542
   95SAPS   C27 9390   1.960   6.047   7.368 -0.3981 -0.0570  0.1777
   95SAPS   H7R 9391   1.855   6.036   7.335  0.2706  0.0933 -2.2246
   95SAPS   H7S 9392   1.996   6.152   7.374 -0.0242 -0.2064  0.5943
   95SAPS   C28 9393   1.979   5.971   7.494  0.2260 -0.5759 -0.3022
   95SAPS   H8R 9394   1.932   5.872   7.507 -1.9832  0.6564  1.6634
   95SAPS   C29 9395   2.041   6.002   7.604 -0.4594 -0.1064 -0.1387
   95SAPS   H9R 9396   2.045   5.934   7.690 -0.4148  1.8178  1.4446
   95SAPS  C210 9397   2.118   6.124   7.645 -1.3923  0.2342  0.6973
   95SAPS  H10R 9398   2.101   6.165   7.747  1.3620 -1.4402  1.9493
   95SAPS  H10S 9399   2.087   6.208   7.579 -4.4677 -0.7489  0.7651
   95SAPS  C211 9400   2.265   6.100   7.628 -0.2266 -0.2361  0.0310
   95SAPS  H11R 9401   2.297   6.052   7.534 -1.0001  2.6026 -1.8242
   95SAPS  C212 9402   2.360   6.160   7.707 -0.7218  0.1027  0.3407
   95SAPS  H12R 9403   2.465   6.138   7.683 -0.3743 -0.8121  2.5153
   95SAPS  C213 9404   2.332   6.235   7.833  0.6021 -0.5551  0.2335
   95SAPS  H13R 9405   2.275   6.168   7.900 -3.0381  1.1899 -0.8472
   95SAPS  H13S 9406   2.281   6.333   7.821 -1.9525 -1.6308  1.6857
   95SAPS  C214 9407   2.457   6.264   7.911 -0.6578 -0.1343 -0.1332
   95SAPS  H14R 9408   2.534   6.311   7.848 -1.8023  1.0368 -0.7112
   95SAPS  C215 9409   2.486   6.236   8.041 -0.0393  0.2590  0.7013
   95SAPS  H15R 9410   2.586   6.258   8.082 -0.0334 -0.7047  1.2572
   95SAPS  C216 9411   2.387   6.180   8.143 -0.8704 -0.2197  0.0881
   95SAPS  H16R 9412   2.336   6.094   8.095  0.4895 -1.9520  1.5857
   95SAPS  H16S 9413   2.307   6.253   8.168 -2.0342 -1.0204 -1.1811
   95SAPS  C217 9414   2.449   6.131   8.278  0.0229  0.2530 -0.2723
   95SAPS  H17R 9415   2.474   6.226   8.331  1.5575 -0.9014  1.1543
   95SAPS  H17S 9416   2.541   6.076   8.251 -0.0735 -1.0240  1.8180
   95SAPS  C218 9417   2.365   6.042   8.365 -0.0997  0.0258  0.0437
   95SAPS  H18R 9418   2.426   6.008   8.451 -0.5383 -3.0079 -0.7024
   95SAPS  H18S 9419   2.339   5.950   8.308  0.6232 -1.1592  1.5649
   95SAPS  C219 9420   2.231   6.098   8.428 -0.2207  0.6133  1.2910
   95SAPS  H19R 9421   2.192   6.008   8.480  0.7314 -0.7301 -0.2247
   95SAPS  H19S 9422   2.166   6.107   8.338  3.1240 -1.0363 -1.5432
   95SAPS  C220 9423   2.241   6.212   8.524 -0.4718 -0.6589 -0.5065
   95SAPS  H20R 9424   2.252   6.315   8.482 -1.0565 -0.2170  0.3720
   95SAPS  H20S 9425   2.329   6.200   8.591 -1.7584 -1.7785  1.0827
   95SAPS  H20T 9426   2.154   6.211   8.594  0.2901 -3.2275  0.5022
   95SAPS   C33 9427   2.366   6.287   7.309 -0.0213 -0.3215  0.2671
   95SAPS   H3X 9428   2.415   6.188   7.293  1.0657 -0.2258  2.5960
   95SAPS   H3Y 9429   2.275   6.269   7.370 -1.0122  1.4430 -0.6239
   95SAPS   C34 9430   2.471   6.367   7.383  0.3045 -0.4219  0.1658
   95SAPS   H4X 9431   2.551   6.401   7.314 -0.5704  2.7419  0.5878
   95SAPS   H4Y 9432   2.529   6.309   7.459  0.8747  0.4847  0.4333
   95SAPS   C35 9433   2.413   6.493   7.455 -0.5754  0.5115 -0.1197
   95SAPS   H5X 9434   2.334   6.457   7.524  1.5512 -1.1069  1.6143
   95SAPS   H5Y 9435   2.368   6.573   7.392 -2.6588  2.1443  3.1015
   95SAPS   C36 9436   2.518   6.570   7.546 -0.3710  0.5816  0.3061
   95SAPS   H6X 9437   2.469   6.625   7.629 -0.3341 -0.4507  1.0407
   95SAPS   H6Y 9438   2.568   6.632   7.469 -1.5633 -0.1985 -1.1497
   95SAPS   C37 9439   2.611   6.483   7.616 -0.4778  0.0498 -0.8581
   95SAPS   H7X 9440   2.685   6.436   7.548 -1.4105 -0.3016 -1.6451
   95SAPS   H7Y 9441   2.556   6.403   7.669 -0.8898 -1.5320 -3.4895
   95SAPS   C38 9442   2.701   6.551   7.725  0.5239 -0.1700  0.2954
   95SAPS   H8X 9443   2.632   6.576   7.809 -2.4442  0.8610 -2.2811
   95SAPS   H8Y 9444   2.718   6.653   7.685 -1.4054  0.1997  0.2882
   95SAPS   C39 9445   2.825   6.463   7.756  0.3568  0.0444 -0.2585
   95SAPS   H9X 9446   2.866   6.425   7.660  0.4315 -0.3119 -0.0905
   95SAPS   H9Y 9447   2.802   6.374   7.819 -0.2345  0.3159 -0.0910
   95SAPS  C310 9448   2.925   6.532   7.854  0.5923 -0.2957 -0.3280
   95SAPS  H10X 9449   2.966   6.622   7.803  2.7237  0.1432  1.9751
   95SAPS  H10Y 9450   3.004   6.456   7.874  1.5076  0.9227  0.8806
   95SAPS  C311 9451   2.859   6.581   7.984  0.2444  0.1881 -0.3554
   95SAPS  H11X 9452   2.759   6.534   7.991  1.1351 -2.5507 -3.1969
   95SAPS  H11Y 9453   2.847   6.691   7.978  0.2048  0.2712  1.0989
   95SAPS  C312 9454   2.954   6.564   8.108  0.1739 -0.2019 -0.6361
   95SAPS  H12X 9455   3.058   6.598   8.089  0.4054  0.3929  1.4218
   95SAPS  H12Y 9456   2.958   6.456   8.134  1.0158 -0.2091 -0.7634
   95SAPS  C313 9457   2.886   6.631   8.234  0.0160 -0.1143  0.2796
   95SAPS  H13X 9458   2.776   6.620   8.227 -0.1612  1.4864  0.1239
   95SAPS  H13Y 9459   2.905   6.739   8.220 -0.0052 -0.3031 -1.3646
   95SAPS  C314 9460   2.954   6.586   8.366  0.2779 -0.2819  0.1948
   95SAPS  H14X 9461   3.059   6.622   8.367  0.3183 -0.3026  2.3846
   95SAPS  H14Y 9462   2.958   6.475   8.372  1.9537 -0.1692  2.7324
   95SAPS  C315 9463   2.876   6.641   8.489 -0.5142  0.6853  1.0311
   95SAPS  H15X 9464   2.767   6.638   8.472 -0.4958 -0.7133  1.1044
   95SAPS  H15Y 9465   2.900   6.748   8.509 -1.4461  0.9922  0.5774
   95SAPS  C316 9466   2.877   6.557   8.619 -0.1966 -0.2680 -1.0951
   95SAPS  H16X 9467   2.984   6.531   8.637 -0.3573 -0.8361 -0.9369
   95SAPS  H16Y 9468   2.839   6.453   8.611  0.6832 -0.7910  0.8472
   95SAPS  C317 9469   2.813   6.618   8.744 -0.2903  1.0475 -0.4018
   95SAPS  H17X 9470   2.702   6.613   8.745 -0.2388 -1.7299 -0.0828
   95SAPS  H17Y 9471   2.841   6.725   8.738 -1.4793  1.2976 -2.4672
   95SAPS  C318 9472   2.856   6.553   8.875  0.0016 -0.0111 -0.3130
   95SAPS  H18X 9473   2.847   6.442   8.874 -1.6247  0.0976  0.1606
   95SAPS  H18Y 9474   2.793   6.589   8.960  0.9370 -0.3390  0.5463
   95SAPS  H18Z 9475   2.963   6.578   8.891 -0.0151 -0.6321  0.9047
   96SAPS     N 9476   2.434   0.903   6.342 -0.7392 -0.3021  0.0392
   96SAPS   HN1 9477   2.478   0.832   6.281  1.3904  1.0002 -0.0354
   96SAPS   HN2 9478   2.374   0.852   6.410  0.8597 -1.3549  0.7163
   96SAPS   HN3 9479   2.374   0.966   6.285  0.8541  1.0455 -0.2242
   96SAPS   C12 9480   2.541   0.971   6.418  0.0581  0.0892 -0.2827
   96SAPS  H12A 9481   2.581   0.909   6.497  1.0879  1.8208  0.6226
   96SAPS   C13 9482   2.658   1.011   6.332  0.3731  0.4502 -0.0607
   96SAPS  O13A 9483   2.668   0.998   6.206 -0.5809 -0.2390 -0.5692
   96SAPS  O13B 9484   2.762   1.045   6.393  0.0268  0.2533  0.5539
   96SAPS   C11 9485   2.468   1.090   6.490  0.0415  0.1699 -0.4612
   96SAPS  H11A 9486   2.546   1.151   6.540  1.0453 -1.5989  0.2358
   96SAPS  H11B 9487   2.406   1.051   6.573  1.0347 -0.5298 -0.0260
   96SAPS     P 9488   2.344   1.307   6.386  0.2077  0.0848 -0.2744
   96SAPS   O13 9489   2.462   1.378   6.344  0.3858 -0.2984  0.1866
   96SAPS   O14 9490   2.219   1.330   6.313 -0.0259  0.3348  0.0935
   96SAPS   O12 9491   2.386   1.157   6.393  0.7405  0.4837 -0.2772
   96SAPS   O11 9492   2.320   1.343   6.544 -0.0598 -0.1531  0.0735
   96SAPS    C1 9493   2.373   1.463   6.611 -0.2672  0.0870 -0.5202
   96SAPS    HA 9494   2.370   1.552   6.545 -1.3602  0.6451  0.2545
   96SAPS    HB 9495   2.311   1.485   6.700 -1.0513 -0.8058 -0.8276
   96SAPS    C2 9496   2.522   1.435   6.661  0.7497 -0.0498  0.1723
   96SAPS    HS 9497   2.579   1.413   6.569  0.6549  0.8055 -0.0985
   96SAPS   O21 9498   2.540   1.331   6.756  0.3897  0.0990 -0.3646
   96SAPS   C21 9499   2.659   1.275   6.765 -0.3964 -0.3610  0.2831
   96SAPS   O22 9500   2.749   1.282   6.684 -0.0371  0.3417  0.3632
   96SAPS   C22 9501   2.688   1.214   6.901  0.3638 -0.0013  0.2614
   96SAPS   H2R 9502   2.659   1.291   6.976  0.1012 -1.0003  1.2129
   96SAPS   H2S 9503   2.616   1.130   6.908 -1.2799  1.4285  1.3674
   96SAPS    C3 9504   2.589   1.564   6.721 -0.0061 -0.0050 -0.0843
   96SAPS    HX 9505   2.603   1.633   6.635 -0.4053 -0.2242 -0.3289
   96SAPS    HY 9506   2.692   1.556   6.763 -0.1654 -0.7381  0.1878
   96SAPS   O31 9507   2.514   1.630   6.822 -0.5769 -0.3193 -0.1520
   96SAPS   C31 9508   2.449   1.742   6.781  0.7332  0.1619 -0.0328
   96SAPS   O32 9509   2.458   1.802   6.678  0.1745  0.0626  0.0029
   96SAPS   C32 9510   2.348   1.779   6.894 -0.3170  0.4892  0.1135
   96SAPS   H2X 9511   2.361   1.701   6.972  1.4947 -1.0837 -1.6424
   96SAPS   H2Y 9512   2.243   1.780   6.856  0.5964  0.1654 -2.6289
   96SAPS   C23 9513   2.835   1.168   6.917  0.1578  0.0668 -0.6689
   96SAPS   H3R 9514   2.912   1.245   6.894  1.1638 -0.5881  0.3923
   96SAPS   H3S 9515   2.857   1.080   6.852 -1.0170  0.3341 -1.4590
   96SAPS   C24 9516   2.849   1.115   7.065  0.1395 -0.7074  0.6825
   96SAPS   H4R 9517   2.947   1.062   7.069 -0.0301 -0.9555  1.8641
   96SAPS   H4S 9518   2.768   1.039   7.071 -0.1188 -0.7720 -2.2495
   96SAPS   C25 9519   2.841   1.212   7.174  0.7077 -0.1172 -0.1966
   96SAPS   H5R 9520   2.874   1.311   7.140  0.0705  0.0920 -0.2181
   96SAPS   C26 9521   2.809   1.189   7.301 -0.2583 -0.3100 -1.1749
   96SAPS   H6R 9522   2.826   1.274   7.370  1.6618 -2.2627  0.8981
   96SAPS   C27 9523   2.781   1.058   7.364 -0.3891 -0.7334 -1.3528
   96SAPS   H7R 9524   2.775   0.970   7.296 -0.4865 -2.5599  0.8865
   96SAPS   H7S 9525   2.680   1.067   7.410  0.0193 -1.7633 -0.1943
   96SAPS   C28 9526   2.889   1.035   7.470  0.3776 -0.1316  0.5837
   96SAPS   H8R 9527   2.980   0.994   7.425 -1.4975 -0.6233 -3.1892
   96SAPS   C29 9528   2.884   1.040   7.607 -0.0939  0.4543  0.1940
   96SAPS   H9R 9529   2.979   1.022   7.660 -0.4345 -0.2119  0.5947
   96SAPS  C210 9530   2.763   1.073   7.694  0.8236  0.4712 -0.4937
   96SAPS  H10R 9531   2.692   0.989   7.705  1.5038  0.1585  2.0517
   96SAPS  H10S 9532   2.703   1.151   7.642  1.2466  1.5109  0.5332
   96SAPS  C211 9533   2.803   1.132   7.828  0.0013 -0.6436  0.3292
   96SAPS  H11R 9534   2.805   1.055   7.907  0.8429 -0.1462  0.7949
   96SAPS  C212 9535   2.810   1.262   7.859 -0.0495  0.0502  0.2270
   96SAPS  H12R 9536   2.845   1.293   7.959  1.0284 -1.3561  0.3068
   96SAPS  C213 9537   2.787   1.382   7.765 -0.2862 -0.3263 -0.5844
   96SAPS  H13R 9538   2.715   1.453   7.810 -0.7158 -0.8983 -0.3515
   96SAPS  H13S 9539   2.741   1.345   7.670  0.4139  2.0895 -1.9418
   96SAPS  C214 9540   2.917   1.445   7.716 -0.4041  0.4275 -0.3576
   96SAPS  H14R 9541   3.008   1.407   7.765 -0.5890 -0.2904 -0.5555
   96SAPS  C215 9542   2.929   1.523   7.609 -0.0724 -0.4869  0.0424
   96SAPS  H15R 9543   3.021   1.581   7.591 -1.2292  1.5491  0.3246
   96SAPS  C216 9544   2.817   1.569   7.517  0.4013  0.1198 -0.0345
   96SAPS  H16R 9545   2.803   1.678   7.533  0.7652  0.5283 -2.1765
   96SAPS  H16S 9546   2.728   1.505   7.536  1.1621 -1.0395 -0.2850
   96SAPS  C217 9547   2.856   1.568   7.371  0.0401  0.1936  0.3637
   96SAPS  H17R 9548   2.880   1.465   7.337 -1.4512  0.3416 -1.3317
   96SAPS  H17S 9549   2.935   1.639   7.338 -0.6043 -0.6132 -3.4603
   96SAPS  C218 9550   2.730   1.611   7.288 -0.0879 -0.7802 -0.0115
   96SAPS  H18R 9551   2.683   1.696   7.342 -2.9872 -1.4798 -1.2168
   96SAPS  H18S 9552   2.653   1.531   7.293  2.0393 -2.8677  1.1583
   96SAPS  C219 9553   2.755   1.667   7.152  0.1644  0.3973  0.7050
   96SAPS  H19R 9554   2.809   1.764   7.145  0.0147  0.4426  0.0811
   96SAPS  H19S 9555   2.656   1.692   7.106  0.9291  2.8357  0.2140
   96SAPS  C220 9556   2.830   1.560   7.065  0.2855 -0.2157 -0.0524
   96SAPS  H20R 9557   2.927   1.527   7.107  1.9878  1.2412 -2.5287
   96SAPS  H20S 9558   2.835   1.597   6.960 -0.1847 -0.3896 -0.1374
   96SAPS  H20T 9559   2.763   1.471   7.063 -0.2362  0.1787 -1.3065
   96SAPS   C33 9560   2.381   1.923   6.941  0.5331 -0.7680  0.2610
   96SAPS   H3X 9561   2.394   1.991   6.855 -1.2831 -0.0929  0.4883
   96SAPS   H3Y 9562   2.471   1.933   7.006  0.4741  2.3519 -0.0294
   96SAPS   C34 9563   2.277   1.995   7.032 -0.6704 -0.2483  0.5553
   96SAPS   H4X 9564   2.187   2.029   6.977  0.6302 -0.2444 -1.6696
   96SAPS   H4Y 9565   2.322   2.090   7.068  1.6617 -1.5309  1.2038
   96SAPS   C35 9566   2.247   1.925   7.165 -0.2123  0.9055 -0.0752
   96SAPS   H5X 9567   2.207   1.823   7.144  3.2784 -0.9881  1.6291
   96SAPS   H5Y 9568   2.163   1.978   7.215 -0.5977 -1.6969  2.2778
   96SAPS   C36 9569   2.373   1.896   7.261  0.5366  0.2158  1.2043
   96SAPS   H6X 9570   2.413   1.999   7.277 -0.2637  0.4887  1.4990
   96SAPS   H6Y 9571   2.443   1.829   7.207  0.0038  0.9924 -0.5236
   96SAPS   C37 9572   2.358   1.843   7.404 -0.9700 -0.1993 -0.7413
   96SAPS   H7X 9573   2.460   1.806   7.428 -0.1118  3.0036  0.9961
   96SAPS   H7Y 9574   2.296   1.750   7.406  1.4893 -1.9441  1.8408
   96SAPS   C38 9575   2.303   1.935   7.513  0.0897  0.1272 -1.0810
   96SAPS   H8X 9576   2.204   1.973   7.482 -0.8806 -0.5400  1.0571
   96SAPS   H8Y 9577   2.359   2.027   7.485  1.6123  0.3201  2.2081
   96SAPS   C39 9578   2.319   1.896   7.657 -0.0959  0.3301 -0.6337
   96SAPS   H9X 9579   2.426   1.867   7.667  0.2511  1.3890 -1.0763
   96SAPS   H9Y 9580   2.250   1.817   7.692  1.5334  0.7146  4.2546
   96SAPS  C310 9581   2.293   2.018   7.757 -0.1709 -0.1996  0.0412
   96SAPS  H10X 9582   2.193   2.048   7.719  0.7723  0.1425 -2.3984
   96SAPS  H10Y 9583   2.366   2.100   7.738 -1.8462  0.6753 -3.7091
   96SAPS  C311 9584   2.300   1.969   7.904  0.3939 -0.4481  0.3095
   96SAPS  H11X 9585   2.409   1.968   7.925  0.4181 -0.8731  0.1714
   96SAPS  H11Y 9586   2.265   1.864   7.911 -1.2608  0.0521  0.0510
   96SAPS  C312 9587   2.233   2.071   7.991  0.1160  0.8343 -0.3220
   96SAPS  H12X 9588   2.133   2.094   7.949 -1.0558 -2.1112  0.5842
   96SAPS  H12Y 9589   2.298   2.161   7.987  0.4653  0.5631 -0.8462
   96SAPS  C313 9590   2.225   2.041   8.144  0.1834 -0.4046  0.1636
   96SAPS  H13X 9591   2.208   2.140   8.190  2.1111  0.6011 -1.1618
   96SAPS  H13Y 9592   2.323   2.008   8.185  0.0070 -0.1931  0.7741
   96SAPS  C314 9593   2.110   1.949   8.182  0.8702  0.2699  0.0819
   96SAPS  H14X 9594   2.140   1.850   8.141 -0.1004  0.5764 -1.4322
   96SAPS  H14Y 9595   2.017   1.998   8.145  1.7546  0.4705 -2.0120
   96SAPS  C315 9596   2.088   1.929   8.337  0.4446  1.0195  0.9446
   96SAPS  H15X 9597   2.046   2.027   8.365 -1.0924  0.8907 -0.6771
   96SAPS  H15Y 9598   2.185   1.902   8.384  0.7113 -1.1337 -0.6429
   96SAPS  C316 9599   1.985   1.817   8.365  0.1668 -0.0190  0.9048
   96SAPS  H16X 9600   1.991   1.731   8.295 -1.5853 -0.0097  0.7132
   96SAPS  H16Y 9601   1.884   1.860   8.347  0.9062  0.4284 -3.2259
   96SAPS  C317 9602   1.995   1.774   8.510 -0.0511  0.2471 -0.3350
   96SAPS  H17X 9603   2.096   1.727   8.517  1.5010  3.1524 -1.4908
   96SAPS  H17Y 9604   1.918   1.696   8.526 -0.6829  0.2672 -2.7773
   96SAPS  C318 9605   1.984   1.882   8.613  0.3086  0.0382  0.0681
   96SAPS  H18X 9606   2.071   1.951   8.604  2.7251 -2.4541  2.1766
   96SAPS  H18Y 9607   1.995   1.833   8.712 -1.1969 -1.9132 -0.6682
   96SAPS  H18Z 9608   1.885   1.931   8.605  0.2300  0.1201  1.2899
   97SAPS     N 9609   3.349   3.961   6.435  0.4002  0.0435 -0.3851
   97SAPS   HN1 9610   3.411   4.000   6.361 -0.8549  0.0401 -1.4694
   97SAPS   HN2 9611   3.248   3.960   6.412  0.4453 -0.7505 -0.5694
   97SAPS   HN3 9612   3.364   4.017   6.521 -1.2594 -0.6944  0.4329
   97SAPS   C12 9613   3.381   3.822   6.477 -0.7909  0.3800  0.1285
   97SAPS  H12A 9614   3.346   3.811   6.579 -0.9863  4.5265  0.6614
   97SAPS   C13 9615   3.326   3.706   6.380 -0.0044 -0.5346 -0.5929
   97SAPS  O13A 9616   3.239   3.739   6.298 -0.2447  0.1719  0.5810
   97SAPS  O13B 9617   3.333   3.587   6.435  0.5330 -0.0968 -0.1195
   97SAPS   C11 9618   3.540   3.810   6.493  0.2419  0.3886 -0.6207
   97SAPS  H11A 9619   3.563   3.703   6.512 -0.9066  0.4074  1.1897
   97SAPS  H11B 9620   3.564   3.879   6.578  0.1191 -0.5624  0.2044
   97SAPS     P 9621   3.737   3.810   6.324  0.1725 -0.2160 -0.2640
   97SAPS   O13 9622   3.760   3.671   6.363 -0.2575 -0.0708  0.4880
   97SAPS   O14 9623   3.750   3.840   6.179 -0.3504  0.1129 -0.2240
   97SAPS   O12 9624   3.597   3.857   6.371  0.4141  0.0779  0.4124
   97SAPS   O11 9625   3.837   3.901   6.412  0.1131 -0.2731 -0.4111
   97SAPS    C1 9626   3.804   4.039   6.432 -0.7825  0.9117  0.3816
   97SAPS    HA 9627   3.870   4.098   6.365 -1.0940  1.9113  0.9269
   97SAPS    HB 9628   3.700   4.065   6.404 -1.2712 -1.8793 -0.7761
   97SAPS    C2 9629   3.843   4.101   6.574 -0.1019 -0.7448 -0.2717
   97SAPS    HS 9630   3.948   4.079   6.604  0.3019  2.7525  1.4100
   97SAPS   O21 9631   3.754   4.056   6.677 -0.2101  0.7117 -0.4540
   97SAPS   C21 9632   3.790   3.939   6.737 -0.5168  0.0650  1.1749
   97SAPS   O22 9633   3.886   3.875   6.698 -0.6627  0.0014 -0.0106
   97SAPS   C22 9634   3.704   3.902   6.863 -0.0024  0.2937 -0.3435
   97SAPS   H2R 9635   3.738   3.968   6.945  1.4801 -0.6173 -0.1830
   97SAPS   H2S 9636   3.598   3.918   6.832  0.5945  0.9950 -2.2169
   97SAPS    C3 9637   3.834   4.253   6.569  0.0319  0.6902 -0.4093
   97SAPS    HX 9638   3.726   4.276   6.557 -0.1458 -1.1264 -3.8881
   97SAPS    HY 9639   3.877   4.301   6.478  0.0753 -0.2115 -0.8817
   97SAPS   O31 9640   3.886   4.308   6.694  0.8131 -0.6294  0.0926
   97SAPS   C31 9641   4.017   4.306   6.719  0.4198 -0.0195 -0.0482
   97SAPS   O32 9642   4.100   4.244   6.649  0.5120 -0.2954 -0.2336
   97SAPS   C32 9643   4.052   4.365   6.855 -0.0490  0.1395 -0.2933
   97SAPS   H2X 9644   4.040   4.284   6.931  2.9177  1.0842  1.3760
   97SAPS   H2Y 9645   3.989   4.453   6.878  2.1126  1.9553 -0.9389
   97SAPS   C23 9646   3.715   3.755   6.898 -0.4876  0.3301 -0.1773
   97SAPS   H3R 9647   3.823   3.727   6.901 -0.4385 -0.1940 -3.2180
   97SAPS   H3S 9648   3.673   3.693   6.816 -0.3983 -0.0463  0.0586
   97SAPS   C24 9649   3.640   3.734   7.031  0.1008  0.1851 -0.1134
   97SAPS   H4R 9650   3.642   3.625   7.053  0.8264 -0.1866 -1.8624
   97SAPS   H4S 9651   3.534   3.763   7.013  0.0199 -1.7238 -3.5865
   97SAPS   C25 9652   3.706   3.788   7.157  0.0612 -0.8752 -0.0698
   97SAPS   H5R 9653   3.815   3.769   7.163  0.4755  0.5592 -2.0114
   97SAPS   C26 9654   3.642   3.843   7.262  0.8207  0.2247 -0.1539
   97SAPS   H6R 9655   3.700   3.885   7.345  0.0262 -2.3550  1.8294
   97SAPS   C27 9656   3.489   3.856   7.264  0.0429  0.1448  0.4512
   97SAPS   H7R 9657   3.450   3.847   7.367  0.1431 -1.4844  0.3763
   97SAPS   H7S 9658   3.441   3.771   7.209  1.4698 -0.5603  0.2389
   97SAPS   C28 9659   3.430   3.973   7.192  0.8080 -0.3227  0.6617
   97SAPS   H8R 9660   3.452   3.997   7.086 -2.6992  2.9512  0.4350
   97SAPS   C29 9661   3.324   4.042   7.249  0.4571  0.2668 -0.2576
   97SAPS   H9R 9662   3.265   4.112   7.189 -0.9291 -2.4036 -2.2280
   97SAPS  C210 9663   3.250   4.016   7.375  0.6294  0.2644 -0.6316
   97SAPS  H10R 9664   3.234   3.907   7.391 -0.2459  0.8169  3.2526
   97SAPS  H10S 9665   3.146   4.054   7.364  1.0069  1.9994  1.1634
   97SAPS  C211 9666   3.319   4.068   7.496  0.3061 -0.4774  0.1242
   97SAPS  H11R 9667   3.423   4.103   7.486  1.2145 -2.8613  0.4783
   97SAPS  C212 9668   3.264   4.061   7.621  1.2051  0.3883 -0.4807
   97SAPS  H12R 9669   3.325   4.106   7.701  1.2934  1.0931 -0.9376
   97SAPS  C213 9670   3.127   3.997   7.646  0.2056  0.2647 -0.2616
   97SAPS  H13R 9671   3.134   3.899   7.698  1.3943  0.0578 -0.7796
   97SAPS  H13S 9672   3.066   3.989   7.554 -1.6180  0.9161  0.8291
   97SAPS  C214 9673   3.049   4.093   7.733  0.9132 -0.3784 -0.1157
   97SAPS  H14R 9674   3.057   4.201   7.713  2.0855 -0.2478  0.9673
   97SAPS  C215 9675   2.956   4.059   7.821 -0.0502  0.2990 -0.0979
   97SAPS  H15R 9676   2.904   4.146   7.865  1.9343  0.6527  1.7276
   97SAPS  C216 9677   2.918   3.922   7.865  0.7044 -0.1157  0.2916
   97SAPS  H16R 9678   2.982   3.839   7.826 -1.4686 -1.4772 -0.5341
   97SAPS  H16S 9679   2.816   3.903   7.827  0.4875  0.9360  0.3338
   97SAPS  C217 9680   2.930   3.906   8.016 -0.2387  0.2834  0.4674
   97SAPS  H17R 9681   2.900   3.807   8.055  0.7074  1.0457  3.4468
   97SAPS  H17S 9682   2.867   3.986   8.060 -1.3245  0.0881 -0.7012
   97SAPS  C218 9683   3.078   3.916   8.061  0.1187  0.2714  0.3495
   97SAPS  H18R 9684   3.128   4.006   8.020  0.4795 -0.0384  0.0994
   97SAPS  H18S 9685   3.131   3.827   8.022 -0.2272  0.4511 -0.5624
   97SAPS  C219 9686   3.099   3.908   8.212  0.2026 -0.0381  0.0824
   97SAPS  H19R 9687   3.204   3.878   8.231  0.6076  0.6241 -0.9861
   97SAPS  H19S 9688   3.032   3.831   8.256 -1.3237  1.5274  0.6338
   97SAPS  C220 9689   3.059   4.035   8.288 -0.5707  0.7299  0.6933
   97SAPS  H20R 9690   2.950   4.058   8.280 -1.4310 -2.3934  2.1798
   97SAPS  H20S 9691   3.109   4.127   8.250 -1.8429  0.0728 -3.1147
   97SAPS  H20T 9692   3.087   4.027   8.395  1.0732  1.1503  0.3145
   97SAPS   C33 9693   4.195   4.417   6.859 -0.3101 -0.2300 -0.1638
   97SAPS   H3X 9694   4.220   4.449   6.755 -1.7442 -0.3633 -0.5800
   97SAPS   H3Y 9695   4.265   4.337   6.889 -0.8786 -0.2616  1.1571
   97SAPS   C34 9696   4.220   4.528   6.951 -0.3352 -0.1595 -0.3384
   97SAPS   H4X 9697   4.151   4.615   6.945 -1.1891 -0.9150 -2.7389
   97SAPS   H4Y 9698   4.316   4.583   6.933 -0.7182  0.2149 -1.3418
   97SAPS   C35 9699   4.205   4.489   7.100 -0.6286 -0.2402  0.5140
   97SAPS   H5X 9700   4.291   4.420   7.115  0.5612  1.5117  2.3547
   97SAPS   H5Y 9701   4.111   4.431   7.108 -0.0731 -1.3575 -0.6649
   97SAPS   C36 9702   4.215   4.614   7.187  0.8776  0.5089 -0.3061
   97SAPS   H6X 9703   4.113   4.654   7.203  1.5175  1.5278  1.4817
   97SAPS   H6Y 9704   4.272   4.696   7.139  2.7034  0.7196  2.0545
   97SAPS   C37 9705   4.264   4.583   7.333  0.4566 -0.1000 -0.8064
   97SAPS   H7X 9706   4.364   4.536   7.322  1.4104  1.4062  0.9260
   97SAPS   H7Y 9707   4.194   4.519   7.391 -1.9326  2.7498 -0.3125
   97SAPS   C38 9708   4.280   4.708   7.419  0.1020  0.0254 -0.1148
   97SAPS   H8X 9709   4.186   4.765   7.410  0.1581  0.3457  1.1067
   97SAPS   H8Y 9710   4.360   4.773   7.377 -0.6648  0.3856 -1.0399
   97SAPS   C39 9711   4.312   4.677   7.565 -0.1055 -0.5233 -0.4478
   97SAPS   H9X 9712   4.406   4.619   7.575  2.0432  3.0564  2.5378
   97SAPS   H9Y 9713   4.232   4.612   7.606 -1.5387  1.4327  0.0479
   97SAPS  C310 9714   4.314   4.806   7.648  0.4767  0.1590 -1.2103
   97SAPS  H10X 9715   4.218   4.862   7.644  0.6078  0.5736  0.6167
   97SAPS  H10Y 9716   4.388   4.880   7.611  0.9118  0.3412 -0.0249
   97SAPS  C311 9717   4.333   4.782   7.803 -0.5346  0.5561  0.6235
   97SAPS  H11X 9718   4.442   4.766   7.815 -0.4793  0.0595 -0.3780
   97SAPS  H11Y 9719   4.288   4.683   7.829  2.6845 -0.9007  1.2116
   97SAPS  C312 9720   4.259   4.886   7.888  0.1223  0.4620 -0.2637
   97SAPS  H12X 9721   4.155   4.878   7.851 -0.2573 -0.4534  0.9626
   97SAPS  H12Y 9722   4.290   4.990   7.865 -0.8098  1.0996  1.2165
   97SAPS  C313 9723   4.270   4.864   8.038  0.3911 -0.1485 -0.1433
   97SAPS  H13X 9724   4.250   4.758   8.061 -2.1530  0.2719 -0.1750
   97SAPS  H13Y 9725   4.194   4.933   8.082  1.7238  1.9687 -1.0002
   97SAPS  C314 9726   4.410   4.895   8.092  0.0923  0.0994  0.2840
   97SAPS  H14X 9727   4.436   5.003   8.080  1.3304 -0.3390 -1.3666
   97SAPS  H14Y 9728   4.481   4.830   8.038  0.2455 -0.4032  1.0753
   97SAPS  C315 9729   4.428   4.844   8.241  0.4957  0.1794  0.2855
   97SAPS  H15X 9730   4.423   4.733   8.242  1.3864  0.1370  0.4011
   97SAPS  H15Y 9731   4.348   4.879   8.310 -2.3430 -0.5512 -2.3970
   97SAPS  C316 9732   4.563   4.887   8.295 -0.4044 -0.3227  0.3457
   97SAPS  H16X 9733   4.564   4.998   8.284 -2.9292 -0.2331  0.5331
   97SAPS  H16Y 9734   4.653   4.852   8.240  0.9178  2.1246  0.7879
   97SAPS  C317 9735   4.573   4.854   8.442 -0.8366 -0.4880 -0.4043
   97SAPS  H17X 9736   4.476   4.865   8.494 -1.4515  0.4451 -1.6832
   97SAPS  H17Y 9737   4.637   4.933   8.487 -1.1448 -0.4312 -0.0666
   97SAPS  C318 9738   4.633   4.713   8.466 -0.7012  0.1358 -0.9178
   97SAPS  H18X 9739   4.656   4.695   8.574 -0.7092  0.2549 -0.8955
   97SAPS  H18Y 9740   4.737   4.707   8.430  0.2329 -2.2938  1.7717
   97SAPS  H18Z 9741   4.564   4.635   8.427  0.7964 -0.1925 -3.0668
   98SAPS     N 9742   6.714   5.558   6.155 -0.1741  0.5938  0.0883
   98SAPS   HN1 9743   6.782   5.606   6.216  1.4622 -0.4558 -0.8469
   98SAPS   HN2 9744   6.655   5.636   6.119  0.7237  1.9412  1.4163
   98SAPS   HN3 9745   6.660   5.489   6.211 -0.6209 -0.8822 -2.0078
   98SAPS   C12 9746   6.773   5.496   6.039  0.0162  0.1787 -0.1588
   98SAPS  H12A 9747   6.697   5.439   5.987  0.0421 -1.4560  1.4533
   98SAPS   C13 9748   6.838   5.590   5.935  0.3672 -0.0821 -0.1820
   98SAPS  O13A 9749   6.834   5.712   5.945 -0.7102  0.2372  0.3945
   98SAPS  O13B 9750   6.890   5.534   5.833  0.2768  0.3792  0.1488
   98SAPS   C11 9751   6.882   5.396   6.084  0.8896  0.1297  0.0182
   98SAPS  H11A 9752   6.968   5.458   6.120  0.0029  0.2637  2.0671
   98SAPS  H11B 9753   6.922   5.337   5.999  0.5153  1.0711 -0.8362
   98SAPS     P 9754   6.909   5.192   6.260 -0.0588  0.3978 -0.0626
   98SAPS   O13 9755   6.820   5.075   6.267  0.1301 -0.2499  0.2171
   98SAPS   O14 9756   7.040   5.174   6.198 -0.3634 -0.4324  0.0370
   98SAPS   O12 9757   6.827   5.304   6.184  0.2525 -0.3391  0.1341
   98SAPS   O11 9758   6.935   5.254   6.403 -0.1220  0.2530 -0.0683
   98SAPS    C1 9759   6.840   5.262   6.508 -0.6476  0.0554  0.3455
   98SAPS    HA 9760   6.869   5.338   6.583 -1.3226 -1.9968  2.8478
   98SAPS    HB 9761   6.743   5.293   6.465 -0.2512 -1.3215 -1.6628
   98SAPS    C2 9762   6.816   5.140   6.592  0.1400  0.0786 -0.8209
   98SAPS    HS 9763   6.836   5.047   6.535 -1.8871 -0.5919 -0.5296
   98SAPS   O21 9764   6.670   5.152   6.638 -0.0455  0.1931  0.5321
   98SAPS   C21 9765   6.634   5.023   6.677  0.0213  0.5927  0.2107
   98SAPS   O22 9766   6.707   4.927   6.688 -0.0256 -0.1397  0.1488
   98SAPS   C22 9767   6.486   5.027   6.710  0.3978 -0.1153  0.5937
   98SAPS   H2R 9768   6.468   5.123   6.763 -0.2458  0.7877 -1.1663
   98SAPS   H2S 9769   6.425   5.019   6.617  1.6543  1.2645 -0.3963
   98SAPS    C3 9770   6.909   5.134   6.715 -0.4728 -0.7916 -1.5223
   98SAPS    HX 9771   7.011   5.122   6.674  1.6429  2.0416  2.2484
   98SAPS    HY 9772   6.895   5.043   6.777  1.5616 -0.2859 -0.2219
   98SAPS   O31 9773   6.882   5.253   6.796 -0.3455  0.6260  0.1087
   98SAPS   C31 9774   6.987   5.298   6.860  0.4563 -0.0952  0.4573
   98SAPS   O32 9775   7.100   5.250   6.855 -0.4815 -0.2744 -0.5291
   98SAPS   C32 9776   6.959   5.431   6.940 -0.6338  0.6758 -0.4112
   98SAPS   H2X 9777   6.849   5.450   6.945 -0.3808  1.9354  1.6759
   98SAPS   H2Y 9778   6.985   5.520   6.878 -1.8968  2.1098  1.0061
   98SAPS   C23 9779   6.450   4.920   6.816 -0.3544  0.1565  0.0622
   98SAPS   H3R 9780   6.517   4.920   6.905  0.4561 -1.5320 -0.4921
   98SAPS   H3S 9781   6.486   4.826   6.770 -1.4893 -0.9077  1.2773
   98SAPS   C24 9782   6.303   4.932   6.857  0.6418  0.1147 -0.0659
   98SAPS   H4R 9783   6.235   4.926   6.769 -1.0408 -1.5847  1.2391
   98SAPS   H4S 9784   6.290   5.034   6.898  1.5919  0.3996 -0.4465
   98SAPS   C25 9785   6.249   4.825   6.950 -0.5202 -0.4953 -0.4250
   98SAPS   H5R 9786   6.226   4.727   6.905  0.0835 -0.8882  0.0977
   98SAPS   C26 9787   6.221   4.846   7.082 -0.2406 -0.1379 -0.3394
   98SAPS   H6R 9788   6.182   4.763   7.143 -0.8969  1.0502  0.9343
   98SAPS   C27 9789   6.240   4.975   7.162  0.4767 -0.2654  0.1308
   98SAPS   H7R 9790   6.168   4.978   7.246 -0.1425  0.4800 -0.4118
   98SAPS   H7S 9791   6.204   5.054   7.092 -2.1168 -0.5767  1.0163
   98SAPS   C28 9792   6.379   4.983   7.221 -0.6339  0.2238 -0.7369
   98SAPS   H8R 9793   6.463   4.949   7.159 -0.2042 -1.3951  0.6640
   98SAPS   C29 9794   6.420   5.020   7.344 -0.4978 -0.1580  0.5322
   98SAPS   H9R 9795   6.527   5.026   7.369 -0.5258  2.1391  0.3182
   98SAPS  C210 9796   6.334   5.066   7.457  0.0021 -0.2683  0.3971
   98SAPS  H10R 9797   6.264   5.139   7.412  0.3714 -0.2121 -0.1067
   98SAPS  H10S 9798   6.406   5.107   7.530  0.7072 -0.3610 -0.2267
   98SAPS  C211 9799   6.241   4.968   7.517  0.7216 -0.1507  0.1982
   98SAPS  H11R 9800   6.168   4.917   7.452  2.7874 -1.9617 -0.7986
   98SAPS  C212 9801   6.256   4.932   7.648  0.1229  0.3090  0.1364
   98SAPS  H12R 9802   6.181   4.863   7.690 -1.5266  0.2810 -2.5659
   98SAPS  C213 9803   6.365   4.977   7.740 -0.2569  0.4505 -0.4349
   98SAPS  H13R 9804   6.342   5.074   7.789 -0.1770  0.6616 -0.8151
   98SAPS  H13S 9805   6.463   4.984   7.688  0.2798 -0.5818  0.3859
   98SAPS  C214 9806   6.388   4.875   7.843  0.5339 -0.3454  0.0746
   98SAPS  H14R 9807   6.440   4.784   7.810  2.8180  0.1887  1.9643
   98SAPS  C215 9808   6.332   4.861   7.963  0.2503 -0.0343 -0.3187
   98SAPS  H15R 9809   6.369   4.778   8.025 -1.1171  2.2059  3.9116
   98SAPS  C216 9810   6.230   4.963   8.025 -0.3844 -0.2188 -0.5027
   98SAPS  H16R 9811   6.146   4.901   8.064 -1.3374  1.7521  0.6936
   98SAPS  H16S 9812   6.192   5.033   7.948  0.1916 -1.1601 -1.6776
   98SAPS  C217 9813   6.288   5.038   8.149  0.2653 -0.1590  0.6354
   98SAPS  H17R 9814   6.207   5.095   8.199  2.4437  2.9953  0.8472
   98SAPS  H17S 9815   6.357   5.119   8.117  2.2021 -1.8685  0.2701
   98SAPS  C218 9816   6.371   4.950   8.243  0.5159  0.1175 -0.1378
   98SAPS  H18R 9817   6.463   4.916   8.190 -0.4918 -0.6404 -1.4743
   98SAPS  H18S 9818   6.305   4.871   8.284 -2.2139  0.8393 -2.7521
   98SAPS  C219 9819   6.399   5.026   8.366 -0.0025 -0.5303  0.2404
   98SAPS  H19R 9820   6.446   5.117   8.321 -0.9938  0.0794  0.3951
   98SAPS  H19S 9821   6.476   4.971   8.424 -0.3622  0.0738  1.3212
   98SAPS  C220 9822   6.280   5.083   8.450  0.8093 -0.5549  1.1266
   98SAPS  H20R 9823   6.204   5.005   8.467  0.9568 -0.9598 -0.0008
   98SAPS  H20S 9824   6.228   5.167   8.400  0.5234 -2.1168 -1.3358
   98SAPS  H20T 9825   6.322   5.121   8.546  1.4803  1.8991 -0.0467
   98SAPS   C33 9826   7.034   5.442   7.078  0.7906 -0.2425  0.5688
   98SAPS   H3X 9827   7.142   5.438   7.056  1.1307 -0.8710  2.2208
   98SAPS   H3Y 9828   6.998   5.360   7.144 -0.8721  0.8688  1.1234
   98SAPS   C34 9829   6.993   5.578   7.136  0.5125 -0.5379  0.0401
   98SAPS   H4X 9830   6.883   5.589   7.135  0.5154 -0.5216 -0.0900
   98SAPS   H4Y 9831   7.039   5.659   7.076 -1.3843  1.0176  0.6010
   98SAPS   C35 9832   7.042   5.604   7.278 -0.7778 -0.4363  0.0497
   98SAPS   H5X 9833   7.151   5.581   7.281 -0.5942  0.4837  1.2681
   98SAPS   H5Y 9834   6.996   5.540   7.357 -1.0970 -0.8887 -0.4987
   98SAPS   C36 9835   7.020   5.758   7.307  0.2243 -0.4286 -0.6920
   98SAPS   H6X 9836   6.912   5.784   7.302  0.2921 -0.2604 -1.4387
   98SAPS   H6Y 9837   7.064   5.817   7.223 -0.8998 -0.4322 -1.3038
   98SAPS   C37 9838   7.097   5.812   7.430  0.1182  0.0880 -0.0190
   98SAPS   H7X 9839   7.074   5.920   7.440  1.1072  0.3026 -0.0241
   98SAPS   H7Y 9840   7.207   5.811   7.416  0.2152  0.0723  0.7075
   98SAPS   C38 9841   7.063   5.741   7.562  0.1897 -0.5167 -0.4497
   98SAPS   H8X 9842   7.118   5.645   7.566  1.5965  0.3062  0.7424
   98SAPS   H8Y 9843   6.955   5.716   7.570  0.2350 -1.2375 -1.7034
   98SAPS   C39 9844   7.095   5.837   7.670 -0.4921 -0.5691  0.2183
   98SAPS   H9X 9845   7.046   5.932   7.640  0.5049  0.3415  1.3466
   98SAPS   H9Y 9846   7.203   5.862   7.661 -1.0394  1.7280 -0.7080
   98SAPS  C310 9847   7.057   5.792   7.815  0.6014  0.3077  0.0048
   98SAPS  H10X 9848   7.111   5.697   7.838 -0.8316 -0.4107  0.5672
   98SAPS  H10Y 9849   6.948   5.769   7.822  0.9031 -1.2691 -0.1487
   98SAPS  C311 9850   7.093   5.883   7.923  0.5976 -0.0583  0.0151
   98SAPS  H11X 9851   7.039   5.844   8.012  0.6082 -1.5868 -0.6183
   98SAPS  H11Y 9852   7.052   5.985   7.906  1.7998  0.5560  0.6189
   98SAPS  C312 9853   7.239   5.883   7.961 -0.3263 -0.2348 -0.7837
   98SAPS  H12X 9854   7.311   5.918   7.884  0.3922 -2.4818 -1.2042
   98SAPS  H12Y 9855   7.267   5.778   7.984 -2.7775 -0.9269 -0.6857
   98SAPS  C313 9856   7.271   5.949   8.098 -0.5476  0.1581  0.0464
   98SAPS  H13X 9857   7.213   6.043   8.111  0.9789  1.1910 -0.1919
   98SAPS  H13Y 9858   7.376   5.988   8.093 -0.1347 -1.0701 -1.1661
   98SAPS  C314 9859   7.253   5.876   8.232 -0.4121  0.0994 -0.7000
   98SAPS  H14X 9860   7.336   5.802   8.236 -1.4892 -1.0871  0.8705
   98SAPS  H14Y 9861   7.164   5.810   8.230  0.8044 -1.5953 -0.4633
   98SAPS  C315 9862   7.255   5.967   8.361 -0.2852 -0.4403 -0.0430
   98SAPS  H15X 9863   7.203   6.064   8.345  1.6118  0.8283  1.1299
   98SAPS  H15Y 9864   7.360   6.000   8.373  0.8730 -3.6455 -0.4144
   98SAPS  C316 9865   7.191   5.896   8.486 -0.1157  0.1297 -0.1433
   98SAPS  H16X 9866   7.254   5.809   8.511  1.2633  1.4033  1.0206
   98SAPS  H16Y 9867   7.090   5.856   8.466  1.4868 -3.8222 -1.1418
   98SAPS  C317 9868   7.197   5.982   8.613  0.1210  0.0512 -0.7951
   98SAPS  H17X 9869   7.300   6.018   8.632  0.2539 -0.3382 -0.7684
   98SAPS  H17Y 9870   7.161   5.930   8.704 -1.2737  1.5231 -0.4622
   98SAPS  C318 9871   7.119   6.118   8.603  0.4369  0.1656  0.7183
   98SAPS  H18X 9872   7.013   6.105   8.573 -0.3109 -0.1390  3.2021
   98SAPS  H18Y 9873   7.178   6.186   8.539 -0.0929 -0.2854 -0.2633
   98SAPS  H18Z 9874   7.117   6.162   8.705  0.1918  0.3859  0.6219
   99SAPS     N 9875   1.461   6.668   6.226 -0.1202 -0.2591  0.2219
   99SAPS   HN1 9876   1.452   6.726   6.312 -1.6385 -0.2383  0.0794
   99SAPS   HN2 9877   1.370   6.620   6.214  0.3051 -0.9895 -0.1436
   99SAPS   HN3 9878   1.539   6.600   6.239  0.1001  0.1462  1.0586
   99SAPS   C12 9879   1.482   6.750   6.109  0.4425 -0.4330 -0.2190
   99SAPS  H12A 9880   1.568   6.811   6.131 -0.9253  1.0541  1.2240
   99SAPS   C13 9881   1.493   6.674   5.988  0.0892  0.0665  0.1050
   99SAPS  O13A 9882   1.510   6.552   5.982  0.5095 -0.0294 -0.3786
   99SAPS  O13B 9883   1.512   6.729   5.873 -0.0586 -0.0158  0.0661
   99SAPS   C11 9884   1.365   6.857   6.107 -0.0216  0.4592 -0.0150
   99SAPS  H11A 9885   1.266   6.810   6.127  0.0511 -0.3284 -1.3974
   99SAPS  H11B 9886   1.365   6.914   6.012 -0.0735  0.0549 -0.2580
   99SAPS     P 9887   1.467   7.083   6.203 -0.0138 -0.2035  0.1575
   99SAPS   O13 9888   1.614   7.053   6.191 -0.0149 -0.4928  0.3179
   99SAPS   O14 9889   1.402   7.157   6.093  0.2150  0.1482 -0.2759
   99SAPS   O12 9890   1.382   6.947   6.218  0.1009 -0.3431  0.0533
   99SAPS   O11 9891   1.437   7.155   6.335  0.3159 -0.1380 -0.3417
   99SAPS    C1 9892   1.335   7.251   6.345  0.3363 -0.1903  1.3015
   99SAPS    HA 9893   1.348   7.326   6.265  0.3341 -2.3790 -0.8606
   99SAPS    HB 9894   1.233   7.210   6.328  0.3422 -1.1612  3.2846
   99SAPS    C2 9895   1.343   7.328   6.480  0.3387 -0.0160 -0.1051
   99SAPS    HS 9896   1.248   7.381   6.502  0.3554 -0.8715  2.2559
   99SAPS   O21 9897   1.457   7.421   6.489  0.5000 -0.2711  0.1713
   99SAPS   C21 9898   1.436   7.542   6.430 -0.1895  0.2907  0.2116
   99SAPS   O22 9899   1.338   7.569   6.368  0.1528 -0.3689  0.2623
   99SAPS   C22 9900   1.563   7.626   6.454 -0.7321  0.3050 -0.1818
   99SAPS   H2R 9901   1.622   7.570   6.530  0.0243  0.0521 -0.9488
   99SAPS   H2S 9902   1.625   7.639   6.363  0.3823  3.3067  0.8668
   99SAPS    C3 9903   1.363   7.219   6.586 -0.0960 -0.1136 -0.1184
   99SAPS    HX 9904   1.459   7.166   6.573  0.4501  1.0149 -0.7770
   99SAPS    HY 9905   1.288   7.137   6.574 -2.1371  1.4395  1.2708
   99SAPS   O31 9906   1.348   7.268   6.723 -0.1502 -0.3417 -0.2861
   99SAPS   C31 9907   1.463   7.283   6.798 -0.2853  0.6576  0.4120
   99SAPS   O32 9908   1.573   7.246   6.765  0.6134  0.1074  0.5564
   99SAPS   C32 9909   1.425   7.379   6.910 -0.3722  0.5307 -0.7979
   99SAPS   H2X 9910   1.322   7.352   6.942 -0.0106 -0.3378 -0.3547
   99SAPS   H2Y 9911   1.428   7.483   6.870  1.2628  1.1614  0.8251
   99SAPS   C23 9912   1.530   7.775   6.503  0.0126  0.1805  0.3594
   99SAPS   H3R 9913   1.471   7.829   6.426 -2.3541 -2.0993  0.4268
   99SAPS   H3S 9914   1.630   7.825   6.508  1.1249 -1.9286  0.4843
   99SAPS   C24 9915   1.448   7.782   6.638 -0.0335  0.3747  1.2076
   99SAPS   H4R 9916   1.351   7.736   6.610  0.1432  0.9079 -0.4338
   99SAPS   H4S 9917   1.418   7.888   6.657 -1.8471 -0.1761  1.5490
   99SAPS   C25 9918   1.513   7.728   6.759 -0.6415  0.0418 -0.1805
   99SAPS   H5R 9919   1.499   7.619   6.765 -0.5815  0.0604  0.2874
   99SAPS   C26 9920   1.583   7.797   6.852 -0.1618 -0.3865 -0.3409
   99SAPS   H6R 9921   1.629   7.744   6.936  1.7641  1.2815 -0.2436
   99SAPS   C27 9922   1.606   7.949   6.858  0.0145  0.2637 -0.3248
   99SAPS   H7R 9923   1.526   7.995   6.921 -0.3301 -0.1234 -0.4810
   99SAPS   H7S 9924   1.608   7.989   6.754  1.7879  0.2271 -0.3332
   99SAPS   C28 9925   1.744   7.981   6.923  0.4756 -0.0237 -0.7626
   99SAPS   H8R 9926   1.830   7.936   6.871  1.4281  1.1464 -0.2641
   99SAPS   C29 9927   1.759   8.043   7.040  0.2394 -0.5774 -0.0754
   99SAPS   H9R 9928   1.866   8.049   7.066  0.6512  0.0742 -1.8026
   99SAPS  C210 9929   1.654   8.100   7.137  0.5900 -0.1501  0.6444
   99SAPS  H10R 9930   1.569   8.138   7.077  0.8018 -1.6986 -0.7077
   99SAPS  H10S 9931   1.677   8.189   7.200 -3.3491  0.1549  1.9316
   99SAPS  C211 9932   1.604   7.996   7.232  0.4541 -0.5247 -0.8225
   99SAPS  H11R 9933   1.635   7.891   7.230 -2.0732 -1.5272  2.3531
   99SAPS  C212 9934   1.519   8.017   7.332  0.2063 -0.6815  0.1554
   99SAPS  H12R 9935   1.476   7.936   7.392 -2.1210 -0.4457 -1.0741
   99SAPS  C213 9936   1.466   8.156   7.368  0.0390 -0.3083  0.6474
   99SAPS  H13R 9937   1.422   8.196   7.274 -0.2184  0.6188  1.1536
   99SAPS  H13S 9938   1.555   8.220   7.388  1.4951 -0.4451 -4.2210
   99SAPS  C214 9939   1.364   8.159   7.479 -0.5172 -0.0495  0.5435
   99SAPS  H14R 9940   1.262   8.146   7.440  0.1925 -0.3697 -1.3142
   99SAPS  C215 9941   1.397   8.160   7.602  0.8334 -0.4378  0.0203
   99SAPS  H15R 9942   1.319   8.145   7.678  0.0609 -0.5538 -0.7812
   99SAPS  C216 9943   1.533   8.163   7.662 -0.0064 -0.2419 -0.6281
   99SAPS  H16R 9944   1.568   8.264   7.692  1.5919 -1.3143  1.2855
   99SAPS  H16S 9945   1.613   8.141   7.588 -1.1028  0.3076 -2.0278
   99SAPS  C217 9946   1.556   8.059   7.776 -0.1151 -0.3334  0.0711
   99SAPS  H17R 9947   1.663   8.061   7.805 -0.4267  0.6027  1.2025
   99SAPS  H17S 9948   1.533   7.960   7.730  0.2027 -0.9293  1.1508
   99SAPS  C218 9949   1.475   8.060   7.910  0.3096 -0.2628  0.3549
   99SAPS  H18R 9950   1.497   7.979   7.982 -2.5112  0.3016  2.0143
   99SAPS  H18S 9951   1.369   8.045   7.881  0.4408 -0.4627 -0.0240
   99SAPS  C219 9952   1.471   8.200   7.976 -0.3243  0.3987 -0.1745
   99SAPS  H19R 9953   1.462   8.278   7.898  1.6286  0.5205 -0.3350
   99SAPS  H19S 9954   1.566   8.207   8.034 -2.2958  4.6433  3.0519
   99SAPS  C220 9955   1.354   8.203   8.072 -0.1654  0.1831  1.0998
   99SAPS  H20R 9956   1.339   8.103   8.118 -2.2429  0.8952  2.1122
   99SAPS  H20S 9957   1.261   8.237   8.021  0.3226  2.8149  1.7841
   99SAPS  H20T 9958   1.376   8.275   8.154 -2.3013  0.5794  1.3814
   99SAPS   C33 9959   1.535   7.368   7.026 -0.3955  0.1890  1.3829
   99SAPS   H3X 9960   1.635   7.394   6.985 -0.6262 -0.5667  0.2687
   99SAPS   H3Y 9961   1.545   7.262   7.057  1.8832 -0.4850 -1.1589
   99SAPS   C34 9962   1.496   7.462   7.132 -0.0893  0.2655  0.3601
   99SAPS   H4X 9963   1.386   7.457   7.145 -0.4174  0.0632 -1.9767
   99SAPS   H4Y 9964   1.523   7.566   7.103  1.2280 -0.6214 -1.8851
   99SAPS   C35 9965   1.563   7.441   7.275 -0.3121 -0.0617 -0.1155
   99SAPS   H5X 9966   1.668   7.473   7.263 -1.0253  1.9375 -1.5790
   99SAPS   H5Y 9967   1.563   7.334   7.306 -0.8906  0.0449  0.2646
   99SAPS   C36 9968   1.502   7.527   7.384 -0.0980  0.1977 -0.3055
   99SAPS   H6X 9969   1.393   7.520   7.404 -0.2928  3.0481 -0.0144
   99SAPS   H6Y 9970   1.512   7.633   7.353  0.4872  0.7272  1.5645
   99SAPS   C37 9971   1.571   7.515   7.530 -0.0285 -0.1090  0.0787
   99SAPS   H7X 9972   1.678   7.542   7.519 -0.0632 -0.4550 -1.1754
   99SAPS   H7Y 9973   1.569   7.406   7.554 -0.1553  0.0572  0.8449
   99SAPS   C38 9974   1.508   7.596   7.639 -0.0580  0.4306  0.5805
   99SAPS   H8X 9975   1.404   7.560   7.652  0.9638 -2.9988  0.3302
   99SAPS   H8Y 9976   1.505   7.704   7.616  1.9411  0.1256 -1.5170
   99SAPS   C39 9977   1.580   7.573   7.776 -0.3361  0.1037  0.4158
   99SAPS   H9X 9978   1.683   7.614   7.774 -0.3922  0.2145 -0.2113
   99SAPS   H9Y 9979   1.603   7.465   7.765  3.5694  0.9580 -1.5075
   99SAPS  C310 9980   1.505   7.613   7.899 -0.2460 -0.3468  0.3033
   99SAPS  H10X 9981   1.428   7.538   7.925  0.1846 -1.7535 -2.1331
   99SAPS  H10Y 9982   1.447   7.702   7.866  0.2453  0.6009  1.8836
   99SAPS  C311 9983   1.580   7.652   8.024 -0.8254  0.0230  0.5404
   99SAPS  H11X 9984   1.523   7.733   8.076  0.0543  1.4267 -0.6176
   99SAPS  H11Y 9985   1.668   7.707   7.984 -0.8710 -0.8214 -0.7503
   99SAPS  C312 9986   1.631   7.526   8.100  1.1393 -0.6831  0.2817
   99SAPS  H12X 9987   1.675   7.457   8.025  1.4010  0.4786 -0.6728
   99SAPS  H12Y 9988   1.532   7.494   8.139  0.8697 -0.9419 -0.5948
   99SAPS  C313 9989   1.731   7.547   8.210  0.2183  0.3189 -0.4163
   99SAPS  H13X 9990   1.692   7.612   8.292  1.8144  0.0637  0.6028
   99SAPS  H13Y 9991   1.822   7.592   8.163  1.3334 -1.0357  0.3549
   99SAPS  C314 9992   1.774   7.410   8.276 -0.1311  0.0248  0.6421
   99SAPS  H14X 9993   1.870   7.440   8.324  0.4520 -0.4246 -0.2043
   99SAPS  H14Y 9994   1.808   7.339   8.196  1.6992 -1.3734  2.5446
   99SAPS  C315 9995   1.669   7.343   8.369 -0.1132 -0.7529  0.0523
   99SAPS  H15X 9996   1.572   7.323   8.318  0.2819 -1.9177 -0.2742
   99SAPS  H15Y 9997   1.650   7.419   8.448  0.3772 -0.5413 -0.0315
   99SAPS  C316 9998   1.716   7.213   8.436 -0.3861 -0.6048  0.7355
   99SAPS  H16X 9999   1.643   7.179   8.512  1.1254 -0.1536  2.4693
   99SAPS  H16Y10000   1.812   7.218   8.493  0.7113 -0.6129 -1.0474
   99SAPS  C31710001   1.719   7.101   8.329 -0.1523 -0.0179  0.1017
   99SAPS  H17X10002   1.784   7.130   8.244  0.7886 -1.0455  0.4442
   99SAPS  H17Y10003   1.616   7.103   8.288 -0.2143  1.2554  0.2650
   99SAPS  C31810004   1.753   6.965   8.387  0.6824 -0.3450 -0.3288
   99SAPS  H18X10005   1.700   6.952   8.484 -0.8406  2.5664 -0.6890
   99SAPS  H18Y10006   1.864   6.961   8.400  1.0107  0.2692 -2.6286
   99SAPS  H18Z10007   1.720   6.878   8.326 -0.3435 -2.2048  2.6151
  100SAPS     N10008   3.626   4.802   6.442 -0.0002 -0.6473  0.2655
  100SAPS   HN110009   3.530   4.800   6.402 -0.0737 -1.0544  0.4565
  100SAPS   HN210010   3.622   4.752   6.534  0.4212 -0.8055  0.1996
  100SAPS   HN310011   3.650   4.897   6.475 -0.1102 -1.2519  2.2104
  100SAPS   C1210012   3.724   4.748   6.346  0.5910 -0.0250 -0.4860
  100SAPS  H12A10013   3.699   4.787   6.248  0.1606  1.0112  0.0259
  100SAPS   C1310014   3.868   4.784   6.364 -1.0047  0.4181 -0.1034
  100SAPS  O13A10015   3.899   4.870   6.449 -0.0152 -1.3665  0.2388
  100SAPS  O13B10016   3.953   4.755   6.276 -0.3275 -0.9755  0.1595
  100SAPS   C1110017   3.716   4.594   6.334  0.7043  0.0011 -0.6935
  100SAPS  H11A10018   3.754   4.537   6.422  1.0561 -2.2462 -2.2159
  100SAPS  H11B10019   3.782   4.551   6.256  0.2095 -0.8802 -0.6367
  100SAPS     P10020   3.530   4.408   6.326 -0.0479 -0.2023 -0.0090
  100SAPS   O1310021   3.393   4.395   6.264 -0.2284 -0.3055 -0.0595
  100SAPS   O1410022   3.632   4.305   6.281 -0.4716 -0.5950  0.2791
  100SAPS   O1210023   3.583   4.551   6.298 -0.2586  0.1572  0.2227
  100SAPS   O1110024   3.519   4.416   6.483  0.4666 -0.0989  0.0342
  100SAPS    C110025   3.391   4.461   6.535  0.2171 -0.0359  0.6337
  100SAPS    HA10026   3.351   4.550   6.482  3.3342  0.9809 -0.2107
  100SAPS    HB10027   3.318   4.377   6.542  1.2849 -0.8866  1.9930
  100SAPS    C210028   3.395   4.507   6.680  0.0840  0.5435  0.8480
  100SAPS    HS10029   3.452   4.601   6.697 -1.3176  1.2721  1.6807
  100SAPS   O2110030   3.444   4.401   6.764 -0.6345  0.0467 -0.1617
  100SAPS   C2110031   3.532   4.425   6.862  0.2895  0.1674  0.1598
  100SAPS   O2210032   3.566   4.537   6.894 -0.0033 -0.2479 -0.1071
  100SAPS   C2210033   3.584   4.296   6.922 -0.7039 -0.3067 -0.0219
  100SAPS   H2R10034   3.498   4.244   6.971 -2.0403  4.2375  3.0852
  100SAPS   H2S10035   3.615   4.234   6.835 -3.6383 -1.0774 -0.6532
  100SAPS    C310036   3.252   4.537   6.731  0.1689 -0.2756  0.7482
  100SAPS    HX10037   3.201   4.439   6.738 -0.6044 -0.1025 -1.5274
  100SAPS    HY10038   3.194   4.604   6.663  0.0231 -1.0476  0.0932
  100SAPS   O3110039   3.255   4.610   6.855  0.1593  0.3370 -0.5467
  100SAPS   C3110040   3.234   4.546   6.962  1.0781 -0.4091 -0.5689
  100SAPS   O3210041   3.228   4.420   6.975  0.4767 -0.2986  0.4966
  100SAPS   C3210042   3.203   4.645   7.080 -0.0888  0.5476  0.0054
  100SAPS   H2X10043   3.104   4.692   7.064  0.3667  2.6534  2.6422
  100SAPS   H2Y10044   3.273   4.731   7.076  0.1114  0.4131  0.5220
  100SAPS   C2310045   3.711   4.312   7.009  0.2411 -0.3628 -0.1873
  100SAPS   H3R10046   3.764   4.404   6.977 -1.2865  0.7910  0.4275
  100SAPS   H3S10047   3.781   4.227   6.999 -0.7645 -1.1124 -1.1791
  100SAPS   C2410048   3.686   4.332   7.159  0.2300  0.1394  0.0292
  100SAPS   H4R10049   3.628   4.245   7.197 -1.5279  0.9692 -0.6803
  100SAPS   H4S10050   3.628   4.426   7.167  0.1981 -0.0301  4.7557
  100SAPS   C2510051   3.815   4.346   7.235  0.4391  0.5326  0.5060
  100SAPS   H5R10052   3.885   4.423   7.200  0.8245 -0.9101 -2.1380
  100SAPS   C2610053   3.841   4.275   7.348  0.5968 -0.3406 -0.6728
  100SAPS   H6R10054   3.944   4.287   7.386 -0.2687  3.6237  0.8421
  100SAPS   C2710055   3.761   4.176   7.424  0.6478  0.2702  0.1188
  100SAPS   H7R10056   3.835   4.097   7.452  1.8847  1.7505  1.2011
  100SAPS   H7S10057   3.686   4.131   7.355  0.0591  2.1231 -0.4937
  100SAPS   C2810058   3.679   4.225   7.539 -0.3787 -0.3246 -0.3980
  100SAPS   H8R10059   3.605   4.300   7.508  0.7262  0.0147 -2.3449
  100SAPS   C2910060   3.676   4.170   7.663 -0.0900 -0.0902  0.0596
  100SAPS   H9R10061   3.600   4.208   7.733 -0.4287  0.9571 -0.8595
  100SAPS  C21010062   3.758   4.055   7.721  0.3810  0.5825 -0.4970
  100SAPS  H10R10063   3.815   3.989   7.654 -1.4918 -4.5654  2.4124
  100SAPS  H10S10064   3.677   3.985   7.752  0.1602  1.0041 -0.0935
  100SAPS  C21110065   3.859   4.079   7.828  0.6489 -0.0463 -0.4139
  100SAPS  H11R10066   3.946   4.141   7.800 -1.4212  3.1682 -0.2241
  100SAPS  C21210067   3.862   4.025   7.952  0.0440  0.0698  0.6600
  100SAPS  H12R10068   3.948   4.043   8.018  0.1605 -1.8616  1.0889
  100SAPS  C21310069   3.756   3.933   7.997  0.2050 -0.7154 -0.6633
  100SAPS  H13R10070   3.780   3.829   7.967 -2.2046 -1.7034  0.5511
  100SAPS  H13S10071   3.663   3.975   7.953  0.9383 -1.0390 -2.6103
  100SAPS  C21410072   3.736   3.933   8.144 -0.8662  0.1241  0.5940
  100SAPS  H14R10073   3.819   3.902   8.209 -1.9666  1.5534  2.8267
  100SAPS  C21510074   3.639   3.999   8.213  0.0011 -0.2546  0.8242
  100SAPS  H15R10075   3.635   3.975   8.320  0.7247  0.8868  1.1245
  100SAPS  C21610076   3.530   4.083   8.152 -1.1283 -0.1026  0.7045
  100SAPS  H16R10077   3.488   4.033   8.063 -0.4692 -0.7542  0.7527
  100SAPS  H16S10078   3.567   4.186   8.132 -3.1352  0.9985  2.2540
  100SAPS  C21710079   3.417   4.107   8.246 -0.2683 -1.1350 -0.3284
  100SAPS  H17R10080   3.389   4.010   8.291 -1.5459 -0.5759  0.1162
  100SAPS  H17S10081   3.326   4.143   8.193 -0.6359 -2.2217 -0.4575
  100SAPS  C21810082   3.467   4.200   8.356 -0.4263  0.2275 -0.6761
  100SAPS  H18R10083   3.484   4.307   8.329 -2.2471  1.1323  1.3905
  100SAPS  H18S10084   3.553   4.155   8.409 -1.6991 -0.6867  0.6996
  100SAPS  C21910085   3.360   4.205   8.473 -0.4006 -0.5626 -0.6009
  100SAPS  H19R10086   3.335   4.098   8.494  0.2185 -0.4545  0.8379
  100SAPS  H19S10087   3.271   4.256   8.432  0.5225  0.7385 -1.0394
  100SAPS  C22010088   3.403   4.283   8.599 -0.2802  0.3217 -0.1933
  100SAPS  H20R10089   3.448   4.382   8.577  0.1993 -0.4905 -3.2541
  100SAPS  H20S10090   3.477   4.229   8.662 -0.8156  2.1373  2.1762
  100SAPS  H20T10091   3.310   4.286   8.660 -0.1477 -1.2345  0.1331
  100SAPS   C3310092   3.225   4.568   7.213  0.2422 -0.4381 -0.0634
  100SAPS   H3X10093   3.169   4.473   7.209  1.1596 -1.0068  0.2694
  100SAPS   H3Y10094   3.165   4.626   7.287 -1.0116 -0.8763 -0.7045
  100SAPS   C3410095   3.375   4.564   7.263  0.2283 -0.2662 -0.1853
  100SAPS   H4X10096   3.418   4.666   7.264 -0.7662  0.1969  2.5411
  100SAPS   H4Y10097   3.430   4.508   7.184  0.8522  0.8751 -0.5778
  100SAPS   C3510098   3.384   4.505   7.402 -0.4975  0.5613 -0.1912
  100SAPS   H5X10099   3.489   4.472   7.422 -0.4465  1.4059  1.0398
  100SAPS   H5Y10100   3.314   4.420   7.414 -1.1743  1.1044 -0.1985
  100SAPS   C3610101   3.359   4.615   7.516  0.0425 -0.1843  0.3417
  100SAPS   H6X10102   3.259   4.661   7.507  0.9541  1.4790 -3.5537
  100SAPS   H6Y10103   3.435   4.695   7.500 -0.2912  0.1636  0.4814
  100SAPS   C3710104   3.387   4.572   7.655 -0.4516 -1.0796 -0.3431
  100SAPS   H7X10105   3.405   4.660   7.721 -1.3782 -1.0305 -0.1473
  100SAPS   H7Y10106   3.476   4.505   7.663 -0.1883 -0.8581 -1.3360
  100SAPS   C3810107   3.257   4.512   7.723  0.5387 -0.5354  0.5029
  100SAPS   H8X10108   3.219   4.429   7.660 -2.6543  0.3094  1.1374
  100SAPS   H8Y10109   3.180   4.592   7.719  1.7346  0.6261 -1.3269
  100SAPS   C3910110   3.287   4.458   7.863 -0.3891  0.3612  0.1632
  100SAPS   H9X10111   3.375   4.509   7.908  0.9675 -0.8946 -1.0055
  100SAPS   H9Y10112   3.315   4.351   7.867  1.4962  0.8011 -0.5609
  100SAPS  C31010113   3.176   4.480   7.961 -0.1212  0.3372 -0.0492
  100SAPS  H10X10114   3.106   4.398   7.933  0.8260  0.3210 -2.5622
  100SAPS  H10Y10115   3.133   4.579   7.932 -1.0789  0.2719  1.0687
  100SAPS  C31110116   3.215   4.489   8.110 -0.5804 -0.7464  0.3650
  100SAPS  H11X10117   3.297   4.560   8.132 -1.7127  0.3703  1.0833
  100SAPS  H11Y10118   3.245   4.389   8.150  0.7970  0.4905  2.6492
  100SAPS  C31210119   3.091   4.542   8.180  0.1336 -0.4250  0.2403
  100SAPS  H12X10120   3.010   4.469   8.159  0.0132 -0.7566  1.7591
  100SAPS  H12Y10121   3.059   4.645   8.152 -1.1926 -0.1630  2.4914
  100SAPS  C31310122   3.110   4.531   8.334  0.1631  0.0270 -0.4068
  100SAPS  H13X10123   3.069   4.625   8.377  1.1605  0.9851 -1.4915
  100SAPS  H13Y10124   3.220   4.529   8.351  0.1670  0.8213 -0.2810
  100SAPS  C31410125   3.027   4.412   8.392  0.5320 -0.3967  0.0560
  100SAPS  H14X10126   3.058   4.314   8.351 -1.0188 -0.0868 -2.0890
  100SAPS  H14Y10127   2.923   4.440   8.363 -0.1499  1.5272  3.7633
  100SAPS  C31510128   3.027   4.426   8.546  0.8955 -0.1648 -0.2801
  100SAPS  H15X10129   3.032   4.530   8.583  0.6514  0.0607 -0.8633
  100SAPS  H15Y10130   3.123   4.379   8.575  0.9522 -1.5423 -2.4268
  100SAPS  C31610131   2.903   4.354   8.608  0.5002  0.4890 -0.0840
  100SAPS  H16X10132   2.922   4.246   8.592  0.3388  0.2617  1.1783
  100SAPS  H16Y10133   2.800   4.379   8.575 -0.7604 -1.1652  2.3323
  100SAPS  C31710134   2.879   4.364   8.760 -0.2832 -0.3549 -0.3262
  100SAPS  H17X10135   2.971   4.347   8.821  0.5871 -2.8077 -2.1623
  100SAPS  H17Y10136   2.807   4.285   8.791  1.0082 -1.9912 -1.2846
  100SAPS  C31810137   2.816   4.492   8.801 -0.3276 -0.3475  0.1468
  100SAPS  H18X10138   2.724   4.507   8.741  0.0466  0.1800 -0.3015
  100SAPS  H18Y10139   2.880   4.583   8.796 -0.3587 -0.3928 -1.5840
  100SAPS  H18Z10140   2.794   4.486   8.910 -0.6684  2.6675  0.3527
  101OSM      N10141   2.395   1.288  10.897 -0.1401 -0.3239  0.6457
  101OSM    C1510142   2.357   1.162  10.829  0.3517 -0.5277  0.9399
  101OSM   H15A10143   2.386   1.153  10.725 -0.3974  0.4188  0.6477
  101OSM   H15B10144   2.250   1.148  10.830  0.0454  1.1367 -1.1086
  101OSM   H15C10145   2.404   1.087  10.892  1.2257  0.1783  1.1599
  101OSM    C1410146   2.323   1.407  10.841 -0.1734 -0.9471 -0.0468
  101OSM   H14A10147   2.351   1.498  10.892 -0.6318 -0.7792 -0.0976
  101OSM   H14B10148   2.217   1.394  10.828  0.0857 -0.4878 -3.4230
  101OSM   H14C10149   2.357   1.411  10.738 -0.5726 -1.1747 -0.1918
  101OSM    C1310150   2.341   1.287  11.036  0.5011  0.1944  0.5599
  101OSM   H13A10151   2.383   1.211  11.101 -0.4369 -2.5637 -1.8056
  101OSM   H13B10152   2.237   1.257  11.037  1.1010 -2.3065 -1.3445
  101OSM   H13C10153   2.351   1.386  11.076  0.9647  1.2146 -1.9238
  101OSM    C1210154   2.545   1.312  10.899 -0.8165  0.3829 -0.6543
  101OSM   H12A10155   2.607   1.230  10.933  3.3295  2.7603 -1.8366
  101OSM   H12B10156   2.565   1.398  10.962  1.2339  0.6638 -1.6099
  101OSM    C1110157   2.607   1.356  10.764  0.4405 -0.1022  0.0925
  101OSM   H11A10158   2.544   1.423  10.702  1.2580  1.4074  0.8496
  101OSM   H11B10159   2.604   1.269  10.695 -0.0994 -0.2851  0.3392
  101OSM      P10160   2.782   1.540  10.715 -0.1901 -0.2992 -0.2764
  101OSM    O1310161   2.894   1.608  10.786  0.1090  0.2585 -0.5047
  101OSM    O1410162   2.805   1.498  10.575 -0.8095  0.0561  0.2414
  101OSM    O1110163   2.651   1.637  10.717  0.3311 -0.4347  0.4704
  101OSM    O1210164   2.736   1.415  10.793 -0.1721  0.3297 -0.3344
  101OSM    C1S10165   2.644   1.747  10.626  0.3861 -0.6993  0.3092
  101OSM    H1S10166   2.740   1.780  10.581 -0.4239  1.3075 -0.0841
  101OSM    H1T10167   2.619   1.837  10.687 -1.8279 -1.4452  0.5892
  101OSM     NF10168   2.570   1.830  10.397  0.1697 -0.4303  0.6660
  101OSM    HNF10169   2.501   1.896  10.369  0.9248  0.3606  0.6442
  101OSM    C2S10170   2.542   1.733  10.510  0.4118  0.1525 -0.7526
  101OSM    H2S10171   2.547   1.627  10.477  2.1914 -0.1806  0.4533
  101OSM    C3S10172   2.398   1.759  10.571  0.0849 -0.4100 -0.7126
  101OSM    H3S10173   2.403   1.860  10.618  0.1629  0.4843 -2.5706
  101OSM     O310174   2.377   1.674  10.682 -0.0434  0.1352 -0.1573
  101OSM    HO310175   2.460   1.630  10.701  0.0596  0.6427  0.6515
  101OSM    C4S10176   2.280   1.750  10.468 -0.1092 -0.1186 -0.9991
  101OSM    H4S10177   2.241   1.842  10.423 -2.6695 -0.2474  0.7361
  101OSM    C5S10178   2.209   1.636  10.447  0.1430 -0.1087 -0.0773
  101OSM    H5S10179   2.234   1.551  10.512 -1.2343  0.2282  0.9526
  101OSM    C6S10180   2.094   1.619  10.352 -0.1211  0.0678  0.8987
  101OSM    H6S10181   2.005   1.632  10.417 -0.9849  2.6384 -0.6440
  101OSM    H6T10182   2.093   1.515  10.314 -0.8124 -0.1232  1.4278
  101OSM    C7S10183   2.100   1.715  10.229 -0.3529 -0.1450  0.3714
  101OSM    H7S10184   2.095   1.822  10.260 -0.3709  0.1179 -0.5166
  101OSM    H7T10185   2.010   1.690  10.169 -0.9576 -1.7720  1.8641
  101OSM    C8S10186   2.226   1.684  10.148 -0.1977  0.5316  0.2824
  101OSM    H8S10187   2.238   1.576  10.170 -2.4863  0.3847  1.0978
  101OSM    H8T10188   2.319   1.731  10.188 -0.4145 -0.4363  1.9830
  101OSM    C9S10189   2.214   1.693   9.999  0.3888  0.8268  0.1937
  101OSM    H9S10190   2.105   1.685   9.979  0.4839 -4.6865  0.4479
  101OSM    H9T10191   2.247   1.600   9.949 -0.9610  1.6968 -2.5021
  101OSM   C10S10192   2.288   1.809   9.944 -0.2293 -0.7800  0.4289
  101OSM   H10S10193   2.396   1.794   9.961  0.4101  0.8101 -1.8013
  101OSM   H10T10194   2.264   1.906   9.994  1.3462  0.1698 -0.5843
  101OSM   C11S10195   2.284   1.819   9.788 -1.0553  1.6167 -0.6104
  101OSM   H11S10196   2.265   1.717   9.747  1.8988  1.3697 -1.5903
  101OSM   H11T10197   2.383   1.854   9.753  0.0764  0.9436  1.7540
  101OSM   C12S10198   2.194   1.923   9.737  0.2272 -0.5190  0.7251
  101OSM   H12S10199   2.200   2.014   9.801  0.2835 -0.2769  0.3794
  101OSM   H12T10200   2.090   1.885   9.744 -0.0230  0.2764  1.4864
  101OSM   C13S10201   2.211   1.980   9.598  0.0931 -0.0826 -0.0313
  101OSM   H13S10202   2.319   2.003   9.595  0.8382 -2.4875  2.9635
  101OSM   H13T10203   2.148   2.070   9.581  1.3584  0.7401 -0.5160
  101OSM   C14S10204   2.179   1.872   9.489  0.1410 -0.3985  0.4583
  101OSM   H14S10205   2.076   1.845   9.520 -0.0008 -2.6532 -1.6516
  101OSM   H14T10206   2.253   1.790   9.496  0.3750 -0.2870 -0.6231
  101OSM   C15S10207   2.185   1.932   9.346 -0.1594 -0.0509  0.1262
  101OSM   H15S10208   2.291   1.960   9.326  0.1047  0.3359  1.9123
  101OSM   H15T10209   2.122   2.024   9.343 -0.5108 -0.1903  1.9911
  101OSM   C16S10210   2.129   1.840   9.234  0.3374  0.9339  0.5449
  101OSM   H16S10211   2.133   1.891   9.136 -0.3896 -0.4955 -0.2640
  101OSM   H16T10212   2.019   1.839   9.251 -0.2815  0.4572 -2.8736
  101OSM   C17S10213   2.190   1.700   9.220  0.4509  0.3657 -0.1505
  101OSM   H17S10214   2.119   1.648   9.152 -0.2366  1.1237 -0.0413
  101OSM   H17T10215   2.206   1.659   9.322  0.1104  2.9395  1.0258
  101OSM   C18S10216   2.321   1.702   9.147 -0.5536 -0.0438 -0.1242
  101OSM   H18S10217   2.307   1.769   9.059 -1.4908  2.9119  2.1048
  101OSM   H18T10218   2.355   1.600   9.119  0.9341  0.3787  0.0372
  101OSM   H18U10219   2.398   1.755   9.208 -1.2511  0.3638  0.4138
  101OSM    C1F10220   2.678   1.832  10.324  0.0515 -0.5515  0.0568
  101OSM     OF10221   2.766   1.748  10.336 -0.1855  0.1770  0.2617
  101OSM    C2F10222   2.690   1.937  10.221  0.2615 -0.1851  0.6840
  101OSM    H2F10223   2.714   2.029  10.279  1.2274  0.6652 -0.9909
  101OSM    H2G10224   2.595   1.946  10.163  0.7170  1.5575  0.1523
  101OSM    C3F10225   2.821   1.914  10.132 -0.2809  0.1698 -0.2944
  101OSM    H3F10226   2.812   1.810  10.093  1.6148 -0.4133  0.6849
  101OSM    H3G10227   2.908   1.910  10.201  1.1117  0.7242 -1.9379
  101OSM    C4F10228   2.834   2.008  10.011 -0.9493  0.2360  0.5132
  101OSM    H4F10229   2.913   1.974   9.941  0.3875  1.1925  1.4995
  101OSM    H4G10230   2.865   2.107  10.049  1.2153 -0.8494  1.8234
  101OSM    C5F10231   2.703   2.000   9.936 -0.2833 -0.0996 -0.1462
  101OSM    H5F10232   2.632   2.063   9.995 -0.2539 -1.8866  1.9246
  101OSM    H5G10233   2.664   1.897   9.950  2.0685 -0.8058  1.8215
  101OSM    C6F10234   2.717   2.045   9.794  0.0240  0.7337  0.3449
  101OSM    H6F10235   2.766   2.144   9.777  3.5302 -0.6940  1.2566
  101OSM    H6G10236   2.611   2.054   9.762  0.3204  1.2367 -0.5313
  101OSM    C7F10237   2.803   1.952   9.708 -0.1842  0.2382  0.2404
  101OSM    H7F10238   2.760   1.852   9.727 -0.7822  0.8995  2.8285
  101OSM    H7G10239   2.909   1.949   9.743  0.9638  2.5137 -2.6123
  101OSM    C8F10240   2.808   2.002   9.567 -0.2450 -0.0089  0.4125
  101OSM    H8F10241   2.897   1.963   9.511  1.5674  0.8424  2.5600
  101OSM    H8G10242   2.818   2.112   9.570  0.6927 -0.0499 -0.4202
  101OSM    C9F10243   2.674   1.958   9.500 -0.3914 -0.0200  0.4779
  101OSM    H9F10244   2.595   1.918   9.565  0.7227 -1.2281  1.1540
  101OSM   C10F10245   2.650   1.958   9.368 -0.8523 -0.0141 -0.3417
  101OSM   H10F10246   2.555   1.915   9.332 -2.0011  3.5998 -2.0143
  101OSM   C11F10247   2.754   1.994   9.262  0.1745 -0.1145 -0.1355
  101OSM   H11F10248   2.840   2.045   9.311  1.2259 -2.4240  0.5461
  101OSM   H11G10249   2.726   2.066   9.183 -1.2668 -1.1810 -0.6407
  101OSM   C12F10250   2.791   1.859   9.197 -0.0710  0.3314 -0.3735
  101OSM   H12F10251   2.710   1.795   9.157  0.6594 -0.1343 -1.1416
  101OSM   H12G10252   2.839   1.800   9.278 -1.2692 -1.1794 -0.7284
  101OSM   C13F10253   2.890   1.867   9.087 -0.1965 -0.5956  0.0191
  101OSM   H13F10254   2.929   1.763   9.075 -0.7043 -0.7916  0.0401
  101OSM   H13G10255   2.965   1.944   9.115 -1.7439  0.2561  2.1347
  101OSM   C14F10256   2.829   1.915   8.955 -0.5206  0.1630 -0.2618
  101OSM   H14F10257   2.797   2.021   8.964 -0.8947  0.0074  0.3383
  101OSM   H14G10258   2.735   1.861   8.929  0.0755  0.3045 -2.9305
  101OSM   C15F10259   2.919   1.911   8.830  0.5345  0.1777 -0.4784
  101OSM   H15F10260   2.920   1.802   8.807 -0.2764 -0.2614  1.3628
  101OSM   H15G10261   3.021   1.946   8.855  0.6166 -0.6842  0.4663
  101OSM   C16F10262   2.864   1.976   8.704 -0.1859 -0.2069  0.2138
  101OSM   H16F10263   2.892   2.083   8.713 -0.1203 -0.3078  1.2566
  101OSM   H16G10264   2.753   1.976   8.697 -0.1654  0.3441 -0.1770
  101OSM   C17F10265   2.929   1.912   8.578 -0.3362 -0.6257  0.1948
  101OSM   H17F10266   2.913   1.803   8.587 -0.2146 -0.5304  2.0290
  101OSM   H17G10267   3.036   1.942   8.585 -1.1879  3.1528 -0.6202
  101OSM   C18F10268   2.874   1.975   8.440 -0.2341 -0.2279 -0.3296
  101OSM   H18F10269   2.899   2.083   8.424  2.3652 -0.8992 -1.2893
  101OSM   H18G10270   2.765   1.955   8.438 -0.6796  1.9265 -1.9870
  101OSM   H18H10271   2.922   1.925   8.353 -2.1043 -1.2446 -0.8212
  102OSM      N10272   0.441   2.663  11.126  0.2421  0.3712 -0.0840
  102OSM    C1510273   0.588   2.682  11.133 -0.2598  0.0440 -0.2185
  102OSM   H15A10274   0.628   2.751  11.060 -0.2421 -1.1196 -1.3456
  102OSM   H15B10275   0.641   2.590  11.109  2.9967  1.4042  1.1718
  102OSM   H15C10276   0.615   2.719  11.230 -1.1860 -0.9591  0.4465
  102OSM    C1410277   0.397   2.584  11.244  0.0925  0.3191 -0.0970
  102OSM   H14A10278   0.438   2.484  11.244 -1.6013 -0.4131 -0.6880
  102OSM   H14B10279   0.290   2.570  11.244 -0.3000  2.8632 -0.8428
  102OSM   H14C10280   0.421   2.630  11.339 -0.9327 -0.1900  0.4179
  102OSM    C1310281   0.361   2.782  11.115  0.4158 -0.1256  0.3539
  102OSM   H13A10282   0.411   2.849  11.047  1.9740 -0.5121  1.0602
  102OSM   H13B10283   0.349   2.831  11.211  1.7031 -1.0846  1.0446
  102OSM   H13C10284   0.264   2.758  11.074 -0.1164  0.2212  1.3836
  102OSM    C1210285   0.405   2.579  11.005  0.2796 -0.0573  0.6050
  102OSM   H12A10286   0.300   2.565  10.983  1.3100 -2.1494 -4.6349
  102OSM   H12B10287   0.437   2.477  11.021 -1.1653 -0.6823 -0.2094
  102OSM    C1110288   0.464   2.621  10.866 -0.1927  0.2941 -0.5538
  102OSM   H11A10289   0.434   2.551  10.785  0.7653  0.4123 -1.0274
  102OSM   H11B10290   0.571   2.602  10.889 -0.6531  0.7841  2.2370
  102OSM      P10291   0.330   2.821  10.781  0.2173  0.1489  0.2403
  102OSM    O1310292   0.215   2.727  10.775  0.0881  0.1713  0.5790
  102OSM    O1410293   0.322   2.947  10.858  0.3562 -0.5314 -0.2785
  102OSM    O1110294   0.373   2.862  10.636 -0.1228 -0.3362 -0.4698
  102OSM    O1210295   0.455   2.751  10.834 -0.3254 -0.2122  0.5695
  102OSM    C1S10296   0.492   2.934  10.598  0.2077  0.4347 -0.3919
  102OSM    H1S10297   0.580   2.876  10.633 -1.9630 -3.0445 -0.3027
  102OSM    H1T10298   0.487   3.035  10.645  1.0992 -0.1904  1.1299
  102OSM     NF10299   0.648   2.969  10.391 -0.0577  0.5310  0.3437
  102OSM    HNF10300   0.661   3.065  10.369  4.7496  0.0684  0.0585
  102OSM    C2S10301   0.514   2.932  10.443  0.1707 -0.2572  0.0126
  102OSM    H2S10302   0.504   2.824  10.415  3.4724 -0.7465  0.2568
  102OSM    C3S10303   0.397   3.012  10.373 -0.5750 -0.1287 -0.5123
  102OSM    H3S10304   0.406   3.119  10.402  0.5359 -0.2647 -0.3248
  102OSM     O310305   0.264   2.976  10.418 -0.5686  0.5675 -0.1809
  102OSM    HO310306   0.281   2.912  10.487 -0.0303  0.6507 -0.2308
  102OSM    C4S10307   0.407   3.005  10.222  0.0379 -0.9110 -0.0284
  102OSM    H4S10308   0.480   3.076  10.181 -0.4325  1.4512  2.8679
  102OSM    C5S10309   0.339   2.933  10.137 -0.5135  0.2034 -0.1479
  102OSM    H5S10310   0.257   2.871  10.178 -1.8290  2.9941  1.8250
  102OSM    C6S10311   0.358   2.906   9.989  0.5107  0.2214 -0.3822
  102OSM    H6S10312   0.268   2.943   9.936 -0.5040 -0.4360  0.8325
  102OSM    H6T10313   0.372   2.797   9.977 -2.7052 -0.3437  0.2160
  102OSM    C7S10314   0.482   2.977   9.925  0.2508  0.7815 -0.0067
  102OSM    H7S10315   0.574   2.944   9.976  1.1046 -1.9775 -2.9642
  102OSM    H7T10316   0.476   3.084   9.953 -0.5199  0.8895 -0.5322
  102OSM    C8S10317   0.516   2.963   9.774  0.3992  0.5211  0.6658
  102OSM    H8S10318   0.420   2.929   9.729 -0.2662  2.0370  0.8588
  102OSM    H8T10319   0.599   2.895   9.747  0.7082  1.9301 -2.3844
  102OSM    C9S10320   0.561   3.091   9.703  0.1208 -0.8197  0.0154
  102OSM    H9S10321   0.649   3.127   9.761  1.7085 -1.5930 -1.8111
  102OSM    H9T10322   0.483   3.168   9.722  0.8567  0.0286 -0.3389
  102OSM   C10S10323   0.600   3.066   9.558 -0.3940 -0.4256 -0.6166
  102OSM   H10S10324   0.511   3.039   9.498 -0.7108 -3.5361  1.0565
  102OSM   H10T10325   0.672   2.981   9.551  1.6546  0.9763  1.5955
  102OSM   C11S10326   0.664   3.194   9.501 -0.5493 -0.5038 -0.3029
  102OSM   H11S10327   0.761   3.209   9.553 -1.7825  1.2225  1.6477
  102OSM   H11T10328   0.595   3.281   9.506  0.6584  0.6172 -2.0065
  102OSM   C12S10329   0.715   3.159   9.362 -0.2433 -0.5056 -0.3935
  102OSM   H12S10330   0.634   3.106   9.308 -0.8824  3.0998 -3.3146
  102OSM   H12T10331   0.810   3.100   9.364 -0.1420 -0.3340  0.7113
  102OSM   C13S10332   0.737   3.280   9.272  0.5454 -0.0355 -0.7678
  102OSM   H13S10333   0.814   3.349   9.313 -0.3423  0.4223  0.1849
  102OSM   H13T10334   0.654   3.354   9.269  1.5008  1.1993  1.2088
  102OSM   C14S10335   0.748   3.243   9.127 -0.2034  0.0943  0.5500
  102OSM   H14S10336   0.655   3.187   9.103  1.4613 -3.9692  2.6584
  102OSM   H14T10337   0.837   3.179   9.112  1.1037  1.5532  1.6804
  102OSM   C15S10338   0.752   3.357   9.018 -0.4868 -0.5462 -0.7214
  102OSM   H15S10339   0.822   3.440   9.044 -1.2869  0.9191 -2.9060
  102OSM   H15T10340   0.653   3.406   9.004 -1.3762 -1.9025  0.6101
  102OSM   C16S10341   0.805   3.313   8.877  0.7584  0.2524 -0.5699
  102OSM   H16S10342   0.741   3.366   8.804  0.7674  0.9219 -0.1013
  102OSM   H16T10343   0.802   3.203   8.861 -0.8330  0.4663 -2.0429
  102OSM   C17S10344   0.948   3.359   8.857  0.1370 -0.4632 -0.4357
  102OSM   H17S10345   1.013   3.300   8.924 -1.5263 -1.2503  0.5212
  102OSM   H17T10346   0.970   3.467   8.873  0.5193 -0.5213 -0.5576
  102OSM   C18S10347   0.993   3.323   8.718  0.2379  0.4833  0.4888
  102OSM   H18S10348   0.981   3.215   8.697 -1.2308  0.6462  0.4046
  102OSM   H18T10349   1.101   3.340   8.698  0.6128 -0.3944  1.6718
  102OSM   H18U10350   0.930   3.382   8.648  0.0378  1.6237  1.5983
  102OSM    C1F10351   0.754   2.887  10.410  0.7979 -0.0521  0.2172
  102OSM     OF10352   0.741   2.773  10.445  0.2044  0.2585 -0.3727
  102OSM    C2F10353   0.885   2.952  10.383  0.5652  0.1331 -0.1368
  102OSM    H2F10354   0.954   2.866  10.372 -0.1673 -0.6885  1.3638
  102OSM    H2G10355   0.924   3.014  10.467 -2.5797 -0.3957  1.8709
  102OSM    C3F10356   0.894   3.022  10.247  0.7569 -0.5840  0.5910
  102OSM    H3F10357   0.992   3.074  10.247 -0.1311  1.1745 -0.1771
  102OSM    H3G10358   0.817   3.099  10.223  0.0319 -1.4406  0.1074
  102OSM    C4F10359   0.899   2.911  10.141 -0.4260 -0.0818  0.2720
  102OSM    H4F10360   0.816   2.838  10.146  0.2094 -1.0731 -2.0644
  102OSM    H4G10361   1.002   2.868  10.148  1.0269  2.3873 -2.9793
  102OSM    C5F10362   0.905   2.963  10.002  0.0592 -0.4428 -0.0504
  102OSM    H5F10363   0.951   3.062   9.987 -0.0249 -0.2297  1.0214
  102OSM    H5G10364   0.800   2.993   9.982 -1.2508 -2.8044  2.5494
  102OSM    C6F10365   0.961   2.861   9.900 -0.4094 -0.1621 -0.0137
  102OSM    H6F10366   0.925   2.758   9.922 -0.1166 -0.2145  0.2128
  102OSM    H6G10367   1.071   2.864   9.904 -0.4416  2.8722  0.3513
  102OSM    C7F10368   0.911   2.891   9.758 -0.5423 -0.1578  0.2044
  102OSM    H7F10369   0.943   2.994   9.730  0.4846 -0.5352 -0.0687
  102OSM    H7G10370   0.800   2.899   9.760 -0.6918 -0.4491 -2.5748
  102OSM    C8F10371   0.953   2.799   9.644 -0.7494 -0.1603  1.0816
  102OSM    H8F10372   0.883   2.824   9.562  1.5738  1.9515 -0.4182
  102OSM    H8G10373   0.956   2.692   9.672  1.0022  0.3417  3.0885
  102OSM    C9F10374   1.096   2.830   9.599  0.0178 -0.5101  0.2011
  102OSM    H9F10375   1.168   2.797   9.675  0.7321 -2.2706 -1.1764
  102OSM   C10F10376   1.138   2.881   9.482  0.5935  0.2571  1.1721
  102OSM   H10F10377   1.245   2.883   9.459  0.5811  0.6927  1.1513
  102OSM   C11F10378   1.052   2.916   9.362  0.0933  0.6473  0.2656
  102OSM   H11F10379   0.997   3.010   9.385  0.0444  0.7123 -0.0972
  102OSM   H11G10380   0.980   2.832   9.357  0.3407  0.4286  0.3765
  102OSM   C12F10381   1.102   2.928   9.221  0.6135 -0.0870 -0.3455
  102OSM   H12F10382   1.008   2.916   9.163 -1.2456  2.0659  1.9960
  102OSM   H12G10383   1.178   2.853   9.190  0.7702  0.5386 -1.5533
  102OSM   C13F10384   1.162   3.065   9.178 -0.0703  0.1961 -0.6575
  102OSM   H13F10385   1.262   3.082   9.222  0.9198  0.2455 -2.8079
  102OSM   H13G10386   1.095   3.151   9.200 -0.8478 -0.4131 -0.5672
  102OSM   C14F10387   1.163   3.073   9.022 -0.6271  0.1994 -0.0403
  102OSM   H14F10388   1.224   3.157   8.984 -1.3866  0.9660  0.4142
  102OSM   H14G10389   1.057   3.078   8.992  0.0406  0.3615 -2.5500
  102OSM   C15F10390   1.218   2.951   8.949  0.1987  0.4453 -0.2643
  102OSM   H15F10391   1.157   2.869   8.993 -0.6825  1.7355  1.0109
  102OSM   H15G10392   1.324   2.938   8.976 -0.1251  0.0307  0.8454
  102OSM   C16F10393   1.198   2.946   8.798  0.3690  0.3579  0.4949
  102OSM   H16F10394   1.091   2.956   8.774  0.0278 -0.3485  1.6116
  102OSM   H16G10395   1.230   2.843   8.770 -1.0770 -0.0620  0.3127
  102OSM   C17F10396   1.271   3.060   8.728 -0.3792  0.6053  0.6021
  102OSM   H17F10397   1.380   3.044   8.742 -0.0434  1.4337 -0.8269
  102OSM   H17G10398   1.246   3.159   8.773  3.6493  2.3448 -0.5482
  102OSM   C18F10399   1.266   3.050   8.573  0.1635  0.0548  0.1668
  102OSM   H18F10400   1.341   3.112   8.519 -2.3819  1.5545 -1.8930
  102OSM   H18G10401   1.169   3.095   8.543  0.3748  0.2109 -0.2827
  102OSM   H18H10402   1.271   2.945   8.536 -0.8083  0.4026 -1.0057
  103OSM      N10403   4.762   6.035  10.826 -0.5811 -0.6215 -0.6596
  103OSM    C1510404   4.624   6.007  10.872  0.9048 -0.1306  0.1298
  103OSM   H15A10405   4.598   5.902  10.861 -0.6862  0.1881  0.4811
  103OSM   H15B10406   4.553   6.062  10.812  0.2924  0.0173  0.9696
  103OSM   H15C10407   4.614   6.022  10.978  0.0429 -0.5655  0.1249
  103OSM    C1410408   4.851   5.954  10.913 -0.1193 -0.1027  0.4120
  103OSM   H14A10409   4.847   5.981  11.018  0.2312 -0.7007  0.5806
  103OSM   H14B10410   4.956   5.969  10.890 -0.1543 -0.2951  0.1337
  103OSM   H14C10411   4.837   5.847  10.907  0.2508 -0.1037 -0.6679
  103OSM    C1310412   4.774   5.975  10.687 -0.0493 -0.1319 -0.1253
  103OSM   H13A10413   4.870   5.995  10.642 -0.6102 -1.8637 -2.2849
  103OSM   H13B10414   4.690   6.010  10.629 -1.9655 -0.5595  2.2533
  103OSM   H13C10415   4.766   5.869  10.708 -0.7392  0.3482  2.2281
  103OSM    C1210416   4.795   6.183  10.824  0.1888  0.1234 -0.1714
  103OSM   H12A10417   4.726   6.227  10.753  1.2019 -1.2779 -2.0947
  103OSM   H12B10418   4.892   6.205  10.782 -0.8489  3.0397 -1.3539
  103OSM    C1110419   4.786   6.265  10.949  0.4995 -0.0032  0.3295
  103OSM   H11A10420   4.806   6.374  10.938  0.6217  0.4625  4.0144
  103OSM   H11B10421   4.864   6.224  11.016  2.2961  1.9328 -0.4869
  103OSM      P10422   4.536   6.344  11.000  0.0945 -0.0220 -0.0298
  103OSM    O1310423   4.406   6.273  11.029 -0.1878 -0.3311  0.3575
  103OSM    O1410424   4.562   6.466  11.077  0.1174 -0.2218  0.2414
  103OSM    O1110425   4.528   6.378  10.845 -0.0985  0.0753 -0.2576
  103OSM    O1210426   4.657   6.243  11.016  0.4630 -0.5077  0.4367
  103OSM    C1S10427   4.423   6.317  10.770  0.5240  0.6892 -0.3415
  103OSM    H1S10428   4.322   6.352  10.802 -0.3467 -2.0742  0.2130
  103OSM    H1T10429   4.418   6.207  10.782  0.1829  0.7738  0.3654
  103OSM     NF10430   4.309   6.277  10.559  1.1458  0.1262 -0.2940
  103OSM    HNF10431   4.317   6.180  10.536 -0.6690 -0.2967  0.7049
  103OSM    C2S10432   4.418   6.349  10.623  0.0342 -0.3030  0.2252
  103OSM    H2S10433   4.409   6.458  10.602 -0.3171 -0.3472  0.1368
  103OSM    C3S10434   4.550   6.294  10.553 -0.9133  0.2463 -0.1097
  103OSM    H3S10435   4.549   6.191  10.595 -1.5153  0.5523  0.6410
  103OSM     O310436   4.671   6.352  10.607 -0.2285  0.1199  0.0962
  103OSM    HO310437   4.640   6.420  10.668  2.1568  2.4261 -1.0598
  103OSM    C4S10438   4.545   6.297  10.399  0.7696 -0.8048 -0.1429
  103OSM    H4S10439   4.484   6.215  10.356  1.0805 -0.9050 -0.3896
  103OSM    C5S10440   4.605   6.390  10.319 -0.2423 -0.0681  0.6065
  103OSM    H5S10441   4.647   6.479  10.367  0.5404  0.2402 -0.6130
  103OSM    C6S10442   4.598   6.391  10.166  0.4932 -0.0238 -1.0967
  103OSM    H6S10443   4.536   6.483  10.153 -0.1425 -0.4046 -0.8042
  103OSM    H6T10444   4.546   6.300  10.131  1.3059 -0.3087 -1.5817
  103OSM    C7S10445   4.732   6.397  10.099  0.5269  0.2395 -0.0720
  103OSM    H7S10446   4.801   6.324  10.147 -0.1196 -0.3062  0.0321
  103OSM    H7T10447   4.790   6.492  10.100  1.5340 -0.3329 -1.4331
  103OSM    C8S10448   4.723   6.368   9.944  0.6584  0.2011  0.1777
  103OSM    H8S10449   4.684   6.264   9.935 -1.4511  0.9909 -0.2664
  103OSM    H8T10450   4.823   6.374   9.895  1.7860 -3.0050  1.7843
  103OSM    C9S10451   4.633   6.470   9.868 -0.7808  0.2355  0.3040
  103OSM    H9S10452   4.667   6.572   9.895 -0.3340  0.0044  0.6248
  103OSM    H9T10453   4.531   6.462   9.912 -1.8661  0.2504 -2.0801
  103OSM   C10S10454   4.616   6.445   9.719 -0.0866  0.4594 -0.4091
  103OSM   H10S10455   4.723   6.451   9.688 -0.9084  1.5205 -3.4654
  103OSM   H10T10456   4.549   6.514   9.663 -1.6159 -0.3074  0.4152
  103OSM   C11S10457   4.559   6.308   9.676  0.5049 -0.8591 -0.4506
  103OSM   H11S10458   4.451   6.310   9.700  0.8669 -1.6980  1.3963
  103OSM   H11T10459   4.608   6.234   9.743  0.6248 -0.2662  0.1338
  103OSM   C12S10460   4.575   6.293   9.522  1.0098  0.2716 -0.5116
  103OSM   H12S10461   4.680   6.300   9.488  1.2404 -1.1427 -0.1744
  103OSM   H12T10462   4.524   6.377   9.472  1.3134  0.5817 -0.3039
  103OSM   C13S10463   4.513   6.166   9.474  0.0746  0.9406 -0.5384
  103OSM   H13S10464   4.403   6.161   9.491  0.2711 -0.1383  0.5065
  103OSM   H13T10465   4.559   6.073   9.512 -1.7512  0.7332  1.3602
  103OSM   C14S10466   4.528   6.152   9.320 -0.1057  0.7535 -0.0279
  103OSM   H14S10467   4.469   6.064   9.286  0.3228  0.9407 -1.3398
  103OSM   H14T10468   4.634   6.152   9.287 -0.9367 -0.0189 -2.9692
  103OSM   C15S10469   4.467   6.258   9.238  0.0842  0.4753  0.1035
  103OSM   H15S10470   4.531   6.349   9.238 -0.2603  0.7237 -0.2883
  103OSM   H15T10471   4.374   6.286   9.293 -0.6828  1.8130 -1.7628
  103OSM   C16S10472   4.428   6.202   9.094 -0.7415  0.2764  1.2527
  103OSM   H16S10473   4.355   6.121   9.114  0.4941 -1.0719  0.4685
  103OSM   H16T10474   4.526   6.173   9.051 -1.3764  1.4614 -1.1445
  103OSM   C17S10475   4.372   6.322   9.016 -0.0003 -0.0989 -0.0270
  103OSM   H17S10476   4.417   6.419   9.046 -0.5810 -0.0646  0.7628
  103OSM   H17T10477   4.268   6.337   9.051 -0.4058 -0.5468 -0.9963
  103OSM   C18S10478   4.370   6.314   8.862  0.4539 -0.0884 -0.0749
  103OSM   H18S10479   4.341   6.413   8.823 -1.4148 -0.4037  0.4241
  103OSM   H18T10480   4.290   6.246   8.825  0.7986 -0.7774  0.4112
  103OSM   H18U10481   4.463   6.280   8.810 -0.7488 -1.6478 -1.3316
  103OSM    C1F10482   4.185   6.332  10.562 -0.0751 -0.1071 -0.4870
  103OSM     OF10483   4.160   6.431  10.626  0.5028  0.1414 -0.0847
  103OSM    C2F10484   4.080   6.258  10.490 -0.0915 -0.3360  0.3903
  103OSM    H2F10485   3.996   6.234  10.558  0.4478  0.0973  1.2160
  103OSM    H2G10486   4.117   6.158  10.459 -3.0998 -2.2039  2.3382
  103OSM    C3F10487   4.032   6.336  10.369  0.1672  0.1859  0.0651
  103OSM    H3F10488   4.106   6.349  10.288 -0.6167  2.6102 -0.3401
  103OSM    H3G10489   3.995   6.436  10.401  1.7386  1.3768 -1.6983
  103OSM    C4F10490   3.926   6.260  10.294  0.3486  0.7381  0.6564
  103OSM    H4F10491   3.893   6.339  10.223  3.1709  2.2608  0.9231
  103OSM    H4G10492   3.835   6.234  10.352 -0.5593 -0.6750 -1.2661
  103OSM    C5F10493   3.978   6.151  10.203 -0.4624  0.2249  0.0174
  103OSM    H5F10494   4.047   6.085  10.259  0.7742  1.0167 -0.5477
  103OSM    H5G10495   4.050   6.204  10.137  0.4520  1.2409  1.7505
  103OSM    C6F10496   3.868   6.065  10.132 -0.9193 -0.3614 -0.6996
  103OSM    H6F10497   3.799   6.124  10.068 -2.0570 -0.3487  0.5201
  103OSM    H6G10498   3.813   6.014  10.213  0.2456  0.4671  0.6767
  103OSM    C7F10499   3.925   5.964  10.030  0.1368 -0.5837  0.1474
  103OSM    H7F10500   4.004   5.905  10.080 -0.9150 -1.7757  0.4601
  103OSM    H7G10501   3.970   6.012   9.940 -0.7234 -0.9622 -0.5048
  103OSM    C8F10502   3.826   5.850   9.981  0.1235  0.6669  0.1724
  103OSM    H8F10503   3.798   5.776  10.058 -0.0817 -2.9371 -3.0574
  103OSM    H8G10504   3.896   5.800   9.911  1.9051  2.9968  0.1309
  103OSM    C9F10505   3.707   5.907   9.907 -0.4682  1.1029 -0.0132
  103OSM    H9F10506   3.618   5.927   9.968 -2.3204 -0.0470 -2.1825
  103OSM   C10F10507   3.687   5.916   9.778 -0.4181  0.8040 -0.3627
  103OSM   H10F10508   3.586   5.947   9.746 -0.2720  0.5585 -1.0908
  103OSM   C11F10509   3.789   5.877   9.672  0.3104 -0.1223  0.4278
  103OSM   H11F10510   3.845   5.783   9.691 -0.8985 -0.8638  0.4731
  103OSM   H11G10511   3.867   5.956   9.670  0.0893  0.1311  1.4153
  103OSM   C12F10512   3.726   5.854   9.533  0.5033 -0.3191 -0.5647
  103OSM   H12F10513   3.811   5.848   9.462  1.7623 -1.0698  0.9442
  103OSM   H12G10514   3.676   5.952   9.512  0.6104 -0.1520 -0.0494
  103OSM   C13F10515   3.633   5.731   9.509 -0.3197  0.2303 -0.1323
  103OSM   H13F10516   3.707   5.649   9.518 -0.2028  0.4392  0.8107
  103OSM   H13G10517   3.563   5.726   9.595  2.0124 -0.2630  1.8089
  103OSM   C14F10518   3.560   5.729   9.378 -0.2010 -0.1548  0.3864
  103OSM   H14F10519   3.490   5.814   9.365  0.4317  0.0839 -1.8668
  103OSM   H14G10520   3.498   5.636   9.371 -1.1838  0.4917  0.2769
  103OSM   C15F10521   3.652   5.722   9.251  0.0102  0.6251 -0.5988
  103OSM   H15F10522   3.705   5.624   9.254 -0.8539  0.1853  0.9600
  103OSM   H15G10523   3.726   5.805   9.253  0.2893  0.4162  2.6763
  103OSM   C16F10524   3.586   5.737   9.116  0.8713 -0.3128 -0.0655
  103OSM   H16F10525   3.576   5.847   9.100 -4.6254 -0.3541  1.1012
  103OSM   H16G10526   3.482   5.701   9.128  1.3911 -1.4484  1.2633
  103OSM   C17F10527   3.638   5.667   8.994  0.0220  0.4730 -0.6234
  103OSM   H17F10528   3.611   5.560   9.003  2.0845 -0.1251 -1.0285
  103OSM   H17G10529   3.748   5.652   8.983 -0.0717 -0.5550 -0.2910
  103OSM   C18F10530   3.566   5.717   8.862 -0.3566 -0.2560 -0.1955
  103OSM   H18F10531   3.588   5.826   8.863  0.2780 -0.3732  0.8022
  103OSM   H18G10532   3.457   5.701   8.857 -0.0716 -2.3575 -1.0337
  103OSM   H18H10533   3.607   5.663   8.774  1.0683 -3.2180  2.0954
  104OSM      N10534   0.976   5.095  10.953 -0.1948 -0.4403  0.0804
  104OSM    C1510535   1.037   5.228  10.959 -0.0560 -0.2470 -0.3504
  104OSM   H15A10536   0.973   5.294  10.903 -0.1836 -0.3889 -0.3750
  104OSM   H15B10537   1.139   5.219  10.925 -0.1865 -0.7177 -0.6429
  104OSM   H15C10538   1.037   5.270  11.058  2.4916  0.2960 -0.5407
  104OSM    C1410539   1.034   5.015  11.063  0.0201  0.3942 -0.4296
  104OSM   H14A10540   1.000   5.034  11.164 -2.0894  1.4903 -1.2762
  104OSM   H14B10541   1.142   5.012  11.062  0.0235  0.3548 -0.1531
  104OSM   H14C10542   1.001   4.913  11.053  0.4519  0.1166  0.7585
  104OSM    C1310543   0.824   5.099  10.968  0.2464  0.0351  0.4681
  104OSM   H13A10544   0.793   4.996  10.977  1.5604 -0.3556  0.7819
  104OSM   H13B10545   0.771   5.147  10.888  0.7718 -0.6953 -0.3304
  104OSM   H13C10546   0.810   5.148  11.064 -0.3549 -0.8331  0.8325
  104OSM    C1210547   1.005   5.028  10.822  0.3797 -0.0044  0.0465
  104OSM   H12A10548   0.960   5.091  10.747  2.1608  1.2314 -0.0297
  104OSM   H12B10549   0.951   4.934  10.826  0.4903 -0.2169 -2.1610
  104OSM    C1110550   1.152   4.991  10.792  0.0186  0.9336  0.5814
  104OSM   H11A10551   1.157   4.942  10.693  0.0072  0.1441  0.9587
  104OSM   H11B10552   1.188   4.917  10.867  1.0904  0.9819  0.1331
  104OSM      P10553   1.377   5.111  10.847  0.0652  0.2613  0.2498
  104OSM    O1310554   1.438   5.239  10.826  0.1960  0.0278  0.0887
  104OSM    O1410555   1.373   5.056  10.984 -0.5268 -0.4373  0.1850
  104OSM    O1110556   1.470   4.995  10.771  0.1204 -0.1939 -0.5184
  104OSM    O1210557   1.231   5.107  10.782 -0.1175 -0.6740 -0.2964
  104OSM    C1S10558   1.484   4.981  10.633 -0.7428 -0.7661 -0.2995
  104OSM    H1S10559   1.410   5.042  10.577  0.5657  0.2946 -0.9382
  104OSM    H1T10560   1.459   4.876  10.607  0.4515 -1.6788  1.9694
  104OSM     NF10561   1.652   4.972  10.469 -0.1748 -0.5254  0.3080
  104OSM    HNF10562   1.719   4.898  10.464  0.2828 -0.2300  1.6588
  104OSM    C2S10563   1.628   5.007  10.606 -0.0240 -0.3303 -0.2335
  104OSM    H2S10564   1.656   5.114  10.606 -1.6942  0.1480  0.5425
  104OSM    C3S10565   1.718   4.927  10.706  0.6322 -0.7381  0.2850
  104OSM    H3S10566   1.669   4.828  10.715 -2.4893  0.7330  0.6172
  104OSM     O310567   1.724   4.988  10.835 -0.7848 -0.0743  0.8164
  104OSM    HO310568   1.692   5.077  10.817  2.3232  1.3478  1.7781
  104OSM    C4S10569   1.859   4.906  10.651 -0.1291 -0.0482 -0.6902
  104OSM    H4S10570   1.918   4.998  10.641 -0.2239  0.0715 -0.1695
  104OSM    C5S10571   1.902   4.786  10.606  0.4241  0.4120 -0.1229
  104OSM    H5S10572   1.830   4.703  10.601  0.5869  0.2019  0.8342
  104OSM    C6S10573   2.033   4.750  10.544 -0.1824 -0.2289 -0.1363
  104OSM    H6S10574   2.036   4.639  10.532 -0.0212 -0.2332 -0.0575
  104OSM    H6T10575   2.114   4.775  10.615 -1.3635 -0.7429  1.4434
  104OSM    C7S10576   2.079   4.816  10.416  0.3735  0.2421  0.0264
  104OSM    H7S10577   2.171   4.761  10.387  0.2754 -0.2069  0.5406
  104OSM    H7T10578   2.102   4.924  10.426 -1.9997  0.7067  1.2083
  104OSM    C8S10579   1.981   4.782  10.300 -0.1255 -0.4028 -0.3158
  104OSM    H8S10580   1.878   4.817  10.318  0.8189  2.0095  0.8358
  104OSM    H8T10581   1.976   4.672  10.284  2.5779 -0.5405 -0.6619
  104OSM    C9S10582   2.031   4.858  10.175  0.1711 -0.5853  0.4909
  104OSM    H9S10583   2.140   4.845  10.162  0.7142  1.4527  2.3580
  104OSM    H9T10584   2.011   4.967  10.183 -0.6083 -0.6471 -0.4133
  104OSM   C10S10585   1.964   4.802  10.041 -0.3217  0.0015 -0.0487
  104OSM   H10S10586   1.853   4.798  10.041 -0.4000  1.3190  1.0875
  104OSM   H10T10587   1.987   4.694  10.029  0.7462  0.4079 -2.0112
  104OSM   C11S10588   2.006   4.877   9.916 -0.7780 -0.5889  0.4216
  104OSM   H11S10589   2.115   4.896   9.920 -0.5699 -1.9756  2.1971
  104OSM   H11T10590   1.957   4.977   9.921 -0.8412 -0.5489 -0.7327
  104OSM   C12S10591   1.966   4.793   9.792 -0.0769 -0.2454 -0.0531
  104OSM   H12S10592   1.855   4.805   9.788  0.0640  0.8648 -1.2947
  104OSM   H12T10593   1.997   4.686   9.797  0.1857 -0.1195  2.6099
  104OSM   C13S10594   2.019   4.863   9.671 -0.0175 -0.1451  0.0941
  104OSM   H13S10595   2.012   4.972   9.688 -3.0390 -0.3125  0.3009
  104OSM   H13T10596   1.955   4.844   9.582  0.0403  2.1533 -0.4931
  104OSM   C14S10597   2.170   4.832   9.650 -0.3072  0.4624  1.1874
  104OSM   H14S10598   2.188   4.733   9.698 -1.0569  0.3817  1.3211
  104OSM   H14T10599   2.228   4.910   9.703  0.5326  0.1391  0.7601
  104OSM   C15S10600   2.221   4.823   9.503 -0.0275 -0.1409  0.2574
  104OSM   H15S10601   2.327   4.788   9.498 -0.5833 -1.7950 -0.6149
  104OSM   H15T10602   2.205   4.920   9.450 -0.1136 -0.0296  0.4818
  104OSM   C16S10603   2.146   4.723   9.408  0.1836 -0.6037 -0.7125
  104OSM   H16S10604   2.037   4.732   9.389  0.2474 -1.5734 -1.6321
  104OSM   H16T10605   2.165   4.618   9.438  0.9081 -0.5451 -0.9455
  104OSM   C17S10606   2.199   4.730   9.262 -0.4366  0.0966 -0.4771
  104OSM   H17S10607   2.309   4.715   9.263  0.0670  3.0657  2.0586
  104OSM   H17T10608   2.172   4.832   9.230 -3.3256 -0.7421 -1.0321
  104OSM   C18S10609   2.125   4.635   9.156  0.1940 -0.5618  0.1481
  104OSM   H18S10610   2.136   4.670   9.051  1.1951 -1.6392 -0.1178
  104OSM   H18T10611   2.019   4.619   9.186 -0.1918  0.7818 -0.4076
  104OSM   H18U10612   2.178   4.538   9.158 -2.0593 -1.8696  2.5877
  104OSM    C1F10613   1.601   5.031  10.363  0.7672 -0.2248 -0.4003
  104OSM     OF10614   1.532   5.129  10.383  0.3558 -0.1003  0.0144
  104OSM    C2F10615   1.623   4.971  10.220  0.1319 -0.0563 -0.4397
  104OSM    H2F10616   1.557   4.882  10.210  1.4490 -1.1636  0.4330
  104OSM    H2G10617   1.724   4.925  10.213  0.0167 -0.9331  2.3687
  104OSM    C3F10618   1.593   5.071  10.102  0.3942 -0.1867 -0.2818
  104OSM    H3F10619   1.666   5.155  10.105 -1.7354  1.9127 -2.4066
  104OSM    H3G10620   1.490   5.114  10.105  0.7429  0.8279 -1.5690
  104OSM    C4F10621   1.596   5.005   9.964 -0.1505  0.3179 -0.2313
  104OSM    H4F10622   1.539   4.910   9.963  0.0584  0.1817  0.4804
  104OSM    H4G10623   1.704   4.987   9.944  0.6109  2.4022  1.5569
  104OSM    C5F10624   1.544   5.082   9.839  0.5785  0.3055  0.2630
  104OSM    H5F10625   1.590   5.182   9.829 -2.1591  1.4812 -1.7919
  104OSM    H5G10626   1.435   5.100   9.848  0.2409 -2.1603  2.6155
  104OSM    C6F10627   1.578   5.003   9.708  0.3055  0.0077 -0.1208
  104OSM    H6F10628   1.535   4.901   9.712  0.3801 -0.1239 -1.7608
  104OSM    H6G10629   1.687   4.986   9.693  0.1486 -0.7050 -0.4594
  104OSM    C7F10630   1.507   5.060   9.583  0.0865 -0.3240 -0.5347
  104OSM    H7F10631   1.552   5.155   9.546 -0.5169  0.1872  0.0300
  104OSM    H7G10632   1.398   5.065   9.600  0.2666  1.2908  0.3607
  104OSM    C8F10633   1.519   4.960   9.465 -0.3789  0.0219  0.4048
  104OSM    H8F10634   1.476   4.861   9.490  0.6443 -0.8397 -1.0624
  104OSM    H8G10635   1.626   4.929   9.463 -1.3263 -3.7924 -1.0216
  104OSM    C9F10636   1.475   5.005   9.329 -0.4297  0.3152 -0.0119
  104OSM    H9F10637   1.463   5.114   9.315 -0.5855  0.4834  1.2930
  104OSM   C10F10638   1.461   4.927   9.223 -0.7631 -0.1947  0.3468
  104OSM   H10F10639   1.453   4.961   9.119 -1.7349  0.2786  0.5677
  104OSM   C11F10640   1.463   4.772   9.224 -0.3604 -0.3797  0.9753
  104OSM   H11F10641   1.527   4.732   9.305  3.0167  1.0917 -0.7473
  104OSM   H11G10642   1.507   4.726   9.133 -1.6825  1.6913 -0.8273
  104OSM   C12F10643   1.325   4.708   9.228  0.5414  0.3293 -0.5417
  104OSM   H12F10644   1.249   4.729   9.150 -1.8088 -2.8727  0.6435
  104OSM   H12G10645   1.280   4.738   9.325 -1.1961 -2.7365 -0.2460
  104OSM   C13F10646   1.349   4.556   9.231 -0.2076 -0.0547 -0.4984
  104OSM   H13F10647   1.443   4.531   9.287 -0.3471 -2.0367 -1.0571
  104OSM   H13G10648   1.367   4.517   9.129 -0.7165 -1.1520 -0.1904
  104OSM   C14F10649   1.231   4.487   9.307  0.4884  0.3393 -0.1347
  104OSM   H14F10650   1.132   4.521   9.268  0.3260 -0.2214 -0.2129
  104OSM   H14G10651   1.239   4.515   9.415  1.6809 -3.1740  0.8059
  104OSM   C15F10652   1.231   4.329   9.295 -1.2653  0.3321 -0.5046
  104OSM   H15F10653   1.149   4.289   9.358 -1.9413 -0.0550 -1.5987
  104OSM   H15G10654   1.329   4.295   9.334 -2.5395 -2.5229  0.4354
  104OSM   C16F10655   1.212   4.271   9.153  0.1725 -0.0377 -0.2852
  104OSM   H16F10656   1.286   4.325   9.089  1.6420 -1.0281  0.5353
  104OSM   H16G10657   1.110   4.280   9.110  0.3191  1.1660 -0.4269
  104OSM   C17F10658   1.240   4.119   9.146 -0.4736 -0.3586 -0.5484
  104OSM   H17F10659   1.344   4.107   9.184 -1.0151  1.3325  1.6853
  104OSM   H17G10660   1.239   4.075   9.044  1.2037 -1.1264 -0.2620
  104OSM   C18F10661   1.140   4.042   9.230  0.1105 -0.4685 -0.6539
  104OSM   H18F10662   1.142   3.932   9.214 -3.0257 -0.6550 -0.4814
  104OSM   H18G10663   1.034   4.069   9.210 -0.1915 -0.4934  0.8017
  104OSM   H18H10664   1.175   4.073   9.331 -1.9237 -0.0072 -0.0335
  105OSM      N10665   0.621   4.440  11.029 -0.1209 -0.1804  0.5169
  105OSM    C1510666   0.502   4.354  11.029 -0.3190 -0.2340  0.9257
  105OSM   H15A10667   0.535   4.261  10.986  1.3321  1.2607 -1.2641
  105OSM   H15B10668   0.416   4.382  10.969 -1.8017 -3.1404  1.5123
  105OSM   H15C10669   0.469   4.332  11.129 -0.1719 -0.0529  1.0130
  105OSM    C1410670   0.587   4.571  11.104  0.5173  0.1636  0.3988
  105OSM   H14A10671   0.660   4.650  11.100  1.5864 -0.8047 -2.6879
  105OSM   H14B10672   0.568   4.549  11.208 -0.3528 -3.7778 -0.4184
  105OSM   H14C10673   0.501   4.609  11.051 -0.5339 -2.2722  0.1942
  105OSM    C1310674   0.734   4.360  11.102  0.2495 -1.0960  0.1266
  105OSM   H13A10675   0.821   4.424  11.103 -0.8525  0.4793  0.9094
  105OSM   H13B10676   0.755   4.265  11.055 -0.4886 -2.2492  2.0254
  105OSM   H13C10677   0.705   4.338  11.204  0.7379 -2.4448 -0.0107
  105OSM    C1210678   0.669   4.466  10.888  0.2824  0.1131 -0.1066
  105OSM   H12A10679   0.698   4.379  10.832  0.0316  0.3660 -0.6369
  105OSM   H12B10680   0.761   4.522  10.886  1.4904 -1.6421  2.2369
  105OSM    C1110681   0.566   4.534  10.790 -0.2822 -0.4409  0.0107
  105OSM   H11A10682   0.497   4.456  10.753 -0.5803  0.2445 -0.9311
  105OSM   H11B10683   0.622   4.575  10.703 -0.7032  0.9502  0.3676
  105OSM      P10684   0.340   4.662  10.830 -0.0946  0.1599  0.2711
  105OSM    O1310685   0.262   4.559  10.901 -0.6157  0.4516 -0.8132
  105OSM    O1410686   0.315   4.799  10.876  0.4435 -0.2410  0.9240
  105OSM    O1110687   0.305   4.647  10.675  0.7441  0.2356 -0.6758
  105OSM    O1210688   0.494   4.635  10.853 -0.0758 -0.4201  0.4989
  105OSM    C1S10689   0.364   4.742  10.583 -0.0373  0.7905  0.0417
  105OSM    H1S10690   0.471   4.713  10.585 -0.3677 -0.5775 -1.0205
  105OSM    H1T10691   0.353   4.848  10.615 -1.5679  0.5645  0.3375
  105OSM     NF10692   0.395   4.780  10.347 -0.3023  0.8441 -0.4791
  105OSM    HNF10693   0.368   4.863  10.300 -1.2937  0.0522 -1.3750
  105OSM    C2S10694   0.304   4.724  10.443 -0.2187  0.1982 -0.3865
  105OSM    H2S10695   0.303   4.614  10.429 -0.7723  0.2291 -0.6398
  105OSM    C3S10696   0.164   4.773  10.440 -0.1957 -0.1720  0.2193
  105OSM    H3S10697   0.168   4.883  10.454 -0.8626 -0.0168 -0.7073
  105OSM     O310698   0.085   4.715  10.548 -0.6348 -0.1339 -0.3530
  105OSM    HO310699   0.150   4.716  10.619 -0.3760 -2.4109 -0.4758
  105OSM    C4S10700   0.103   4.736  10.303 -0.5918  0.0192 -0.2181
  105OSM    H4S10701   0.083   4.831  10.250 -0.7047  0.0113 -0.1897
  105OSM    C5S10702   0.069   4.620  10.251  0.0877 -0.7872  0.5673
  105OSM    H5S10703   0.094   4.527  10.304 -1.2817 -1.9445 -0.7186
  105OSM    C6S10704   0.011   4.607  10.111 -0.4160 -0.3886  0.9578
  105OSM    H6S10705   0.053   4.529  10.044  0.0516  2.5993 -2.5441
  105OSM    H6T10706   0.034   4.698  10.052  0.3198 -1.0970  0.1254
  105OSM    C7S10707  -0.141   4.568  10.121 -0.3243 -0.2245  1.1771
  105OSM    H7S10708  -0.188   4.636  10.195  0.9504 -0.5524  2.3414
  105OSM    H7T10709  -0.153   4.469  10.171  0.7163 -0.8883  0.1660
  105OSM    C8S10710  -0.221   4.588   9.988  0.3094  0.5453  0.2503
  105OSM    H8S10711  -0.324   4.549  10.000  0.3863  0.8267  2.2215
  105OSM    H8T10712  -0.176   4.530   9.904  0.8771  0.9376  0.2784
  105OSM    C9S10713  -0.234   4.738   9.950 -0.3270  0.3009  0.9443
  105OSM    H9S10714  -0.127   4.768   9.948 -0.2262 -0.0312  1.2950
  105OSM    H9T10715  -0.274   4.798  10.034 -1.3396 -1.8224  2.0285
  105OSM   C10S10716  -0.303   4.763   9.815 -0.5980  0.0168 -0.1480
  105OSM   H10S10717  -0.359   4.859   9.812 -1.0978 -0.2576  0.2709
  105OSM   H10T10718  -0.365   4.672   9.794  1.3608 -1.0671 -1.6029
  105OSM   C11S10719  -0.197   4.763   9.699  0.1718  0.3025  0.2844
  105OSM   H11S10720  -0.125   4.680   9.713 -1.9911 -1.6421  0.5611
  105OSM   H11T10721  -0.144   4.860   9.698  0.8569 -0.0445  1.2500
  105OSM   C12S10722  -0.253   4.751   9.562 -0.6174  0.1909 -0.1523
  105OSM   H12S10723  -0.349   4.807   9.553 -1.6304 -1.4587  0.0519
  105OSM   H12T10724  -0.292   4.650   9.539  2.0800 -0.5674 -1.7576
  105OSM   C13S10725  -0.152   4.779   9.448 -0.6957  0.3549 -0.5678
  105OSM   H13S10726  -0.068   4.711   9.472  1.1743  1.8744 -2.4432
  105OSM   H13T10727  -0.125   4.885   9.466 -1.0155  0.4400 -0.5674
  105OSM   C14S10728  -0.220   4.756   9.310 -0.7379 -0.4843 -0.1362
  105OSM   H14S10729  -0.285   4.844   9.289  2.2344  1.3217 -2.6502
  105OSM   H14T10730  -0.282   4.664   9.311  0.6818 -1.4739  0.6681
  105OSM   C15S10731  -0.112   4.735   9.198  0.1906 -0.3263 -0.0066
  105OSM   H15S10732  -0.073   4.631   9.201  2.4288  0.3988 -1.3993
  105OSM   H15T10733  -0.038   4.818   9.203  1.0772 -1.0561 -0.7200
  105OSM   C16S10734  -0.182   4.743   9.058  0.6222 -0.0299  0.0444
  105OSM   H16S10735  -0.186   4.849   9.023 -1.5367 -0.1976 -0.3505
  105OSM   H16T10736  -0.280   4.698   9.086  0.6723 -1.8799 -2.3820
  105OSM   C17S10737  -0.135   4.654   8.939  1.0217  0.7459 -0.1869
  105OSM   H17S10738  -0.139   4.557   8.992  0.6555  2.1133  2.4719
  105OSM   H17T10739  -0.031   4.679   8.912  1.5664 -1.9957 -0.8698
  105OSM   C18S10740  -0.221   4.659   8.817 -0.2416  0.0901  0.7001
  105OSM   H18S10741  -0.170   4.596   8.741 -0.8337 -0.0007  0.3748
  105OSM   H18T10742  -0.213   4.765   8.787  2.6367 -0.2819 -0.2187
  105OSM   H18U10743  -0.321   4.630   8.855  0.8147 -2.5331  1.7703
  105OSM    C1F10744   0.515   4.729  10.330  0.5101  0.3307  0.0069
  105OSM     OF10745   0.550   4.622  10.376  0.2613  1.0788  0.0837
  105OSM    C2F10746   0.609   4.805  10.254  0.3377 -0.1979 -0.2037
  105OSM    H2F10747   0.715   4.796  10.288 -0.0848  1.0168  1.6030
  105OSM    H2G10748   0.583   4.913  10.257  1.6692  0.1210  0.9287
  105OSM    C3F10749   0.600   4.757  10.109 -0.2384 -0.4228  0.1593
  105OSM    H3F10750   0.501   4.783  10.066 -0.4082 -0.3438  0.5943
  105OSM    H3G10751   0.605   4.646  10.104  1.9555 -0.4957  1.9741
  105OSM    C4F10752   0.708   4.811  10.024  0.1755 -0.7617 -0.2961
  105OSM    H4F10753   0.805   4.782  10.068  0.2633 -1.4284 -0.9053
  105OSM    H4G10754   0.703   4.922  10.028  1.2508 -0.7517  1.7567
  105OSM    C5F10755   0.702   4.758   9.890  0.3545 -0.5980 -0.0551
  105OSM    H5F10756   0.601   4.778   9.848 -1.0132 -0.1430  3.1847
  105OSM    H5G10757   0.713   4.648   9.904  1.7347 -0.2678  1.8649
  105OSM    C6F10758   0.800   4.828   9.797  0.9637 -0.5566  0.1505
  105OSM    H6F10759   0.904   4.796   9.817  0.7404 -0.3477  1.7636
  105OSM    H6G10760   0.802   4.936   9.824  1.5241 -1.0817  2.3985
  105OSM    C7F10761   0.767   4.814   9.646  0.0919 -0.5168  0.6662
  105OSM    H7F10762   0.855   4.848   9.589  1.1139 -3.1009  0.5674
  105OSM    H7G10763   0.680   4.872   9.608  1.9093 -0.0210 -3.2161
  105OSM    C8F10764   0.741   4.665   9.597 -0.5504 -0.0770  0.2770
  105OSM    H8F10765   0.706   4.608   9.685 -1.3986  2.2406  1.5167
  105OSM    H8G10766   0.842   4.626   9.572 -0.5440  0.9471 -1.5639
  105OSM    C9F10767   0.646   4.646   9.480  0.3142 -0.5213 -0.2199
  105OSM    H9F10768   0.549   4.605   9.513  0.2902 -1.2506 -1.1422
  105OSM   C10F10769   0.661   4.678   9.348  0.3260  0.3924 -0.4373
  105OSM   H10F10770   0.594   4.633   9.273 -2.6531  1.6646  1.3185
  105OSM   C11F10771   0.787   4.736   9.290 -0.2572  0.0976 -0.0136
  105OSM   H11F10772   0.867   4.708   9.362  0.5383  0.1954 -0.8471
  105OSM   H11G10773   0.782   4.847   9.284 -1.8475  0.1363  1.1743
  105OSM   C12F10774   0.824   4.676   9.150 -0.4722  0.1660 -0.2432
  105OSM   H12F10775   0.742   4.684   9.076 -1.0907 -2.1224  0.1106
  105OSM   H12G10776   0.837   4.566   9.158  1.4049  0.3717 -0.0660
  105OSM   C13F10777   0.938   4.757   9.079 -0.2070  0.3317 -0.2875
  105OSM   H13F10778   1.024   4.755   9.149  0.1138 -0.7553 -0.6880
  105OSM   H13G10779   0.903   4.862   9.068 -1.6496 -0.3131 -2.6250
  105OSM   C14F10780   0.968   4.694   8.943  0.5594  0.7042 -0.0938
  105OSM   H14F10781   0.902   4.750   8.873  0.6492 -0.9307 -1.5450
  105OSM   H14G10782   0.944   4.587   8.952 -1.7493  1.3188  1.8782
  105OSM   C15F10783   1.115   4.716   8.904  0.3323  0.2939  0.1174
  105OSM   H15F10784   1.130   4.666   8.806  2.9191  1.1097  0.0078
  105OSM   H15G10785   1.190   4.667   8.970 -0.8552 -2.2798 -0.3394
  105OSM   C16F10786   1.147   4.867   8.893  0.0272  1.1595 -0.5293
  105OSM   H16F10787   1.115   4.919   8.986 -1.5521 -0.6353 -0.0048
  105OSM   H16G10788   1.091   4.903   8.805  2.6576  0.8550 -2.4403
  105OSM   C17F10789   1.292   4.883   8.870  0.1356  0.4573 -0.5557
  105OSM   H17F10790   1.309   4.829   8.774 -0.2804 -1.3050  0.3231
  105OSM   H17G10791   1.353   4.833   8.948  0.6074  0.9175 -0.6227
  105OSM   C18F10792   1.341   5.029   8.863  0.2374  0.2511 -0.6546
  105OSM   H18F10793   1.451   5.042   8.873  0.1706  0.4678 -0.1486
  105OSM   H18G10794   1.318   5.085   8.956 -0.3167 -1.0100 -0.0053
  105OSM   H18H10795   1.308   5.080   8.770  2.3522 -0.5067 -1.8852
  106OSM      N10796   0.282   3.442  10.761 -0.6726 -0.0706 -0.1572
  106OSM    C1510797   0.278   3.403  10.625  0.1377 -0.0928  0.4369
  106OSM   H15A10798   0.375   3.396  10.579 -0.4544 -0.9710 -0.7505
  106OSM   H15B10799   0.219   3.473  10.568  0.4196  1.0131  1.4709
  106OSM   H15C10800   0.230   3.306  10.612  0.0537  0.0982 -0.8843
  106OSM    C1410801   0.336   3.580  10.781 -0.3895  0.4685  0.1924
  106OSM   H14A10802   0.265   3.642  10.730 -1.0386 -1.0627 -0.8200
  106OSM   H14B10803   0.435   3.597  10.742  0.2287  2.0368  2.2517
  106OSM   H14C10804   0.341   3.605  10.886  0.6425  1.2107 -0.0150
  106OSM    C1310805   0.144   3.443  10.818  0.2838  0.3865 -0.1407
  106OSM   H13A10806   0.097   3.347  10.803 -0.8353  0.6745  1.3158
  106OSM   H13B10807   0.083   3.517  10.767  3.4783  2.6329 -1.0081
  106OSM   H13C10808   0.141   3.468  10.923 -2.4695  1.0729 -0.3088
  106OSM    C1210809   0.371   3.349  10.839 -0.9247  0.6008 -0.2025
  106OSM   H12A10810   0.323   3.253  10.830  1.4032 -0.6867  0.3675
  106OSM   H12B10811   0.364   3.362  10.946 -2.6943  0.1778 -0.2357
  106OSM    C1110812   0.519   3.335  10.781 -0.0271 -0.0675 -0.5672
  106OSM   H11A10813   0.512   3.295  10.678 -0.5152 -2.2445  0.2626
  106OSM   H11B10814   0.561   3.255  10.846 -0.4487  0.4703  0.3978
  106OSM      P10815   0.750   3.454  10.723 -0.5999  0.1707  0.0116
  106OSM    O1310816   0.805   3.583  10.754  0.1564 -0.3494  0.4631
  106OSM    O1410817   0.841   3.344  10.762  0.2603 -0.2009 -0.0979
  106OSM    O1110818   0.718   3.449  10.567 -0.7856 -0.3088  0.3026
  106OSM    O1210819   0.598   3.450  10.779 -0.2128  0.0665  0.4345
  106OSM    C1S10820   0.635   3.543  10.505  0.5488  0.0392 -0.8068
  106OSM    H1S10821   0.667   3.640  10.547 -0.0808 -0.2607  0.4227
  106OSM    H1T10822   0.533   3.525  10.547 -0.9198  3.3043 -2.6435
  106OSM     NF10823   0.590   3.655  10.288 -0.6710  0.3083 -0.2310
  106OSM    HNF10824   0.494   3.659  10.262 -0.3760 -1.2364 -1.7498
  106OSM    C2S10825   0.637   3.531  10.353  0.6167 -0.0615 -0.2979
  106OSM    H2S10826   0.742   3.510  10.324  0.5016  1.3870 -1.9226
  106OSM    C3S10827   0.552   3.417  10.311 -0.2980 -0.1481 -0.5584
  106OSM    H3S10828   0.449   3.447  10.339 -0.5815 -0.7932 -0.9002
  106OSM     O310829   0.580   3.299  10.386 -0.4454 -0.7081  0.0510
  106OSM    HO310830   0.655   3.323  10.442  0.0862 -0.8098 -0.6068
  106OSM    C4S10831   0.562   3.398  10.165 -0.1744  0.3992  0.6405
  106OSM    H4S10832   0.654   3.352  10.126 -1.0405 -0.3050 -0.6312
  106OSM    C5S10833   0.460   3.429  10.083 -0.5733  0.2317 -0.0788
  106OSM    H5S10834   0.374   3.482  10.126 -1.6708 -1.2340 -0.3773
  106OSM    C6S10835   0.480   3.420   9.932 -0.3985  0.5103 -0.2436
  106OSM    H6S10836   0.551   3.340   9.903 -1.0517 -0.6121  1.1479
  106OSM    H6T10837   0.520   3.519   9.904  0.0148  0.4684  0.1805
  106OSM    C7S10838   0.348   3.378   9.854 -0.2899 -0.2245 -0.5447
  106OSM    H7S10839   0.268   3.436   9.904  0.9477  1.1393 -0.0475
  106OSM    H7T10840   0.329   3.269   9.868  0.4238 -0.2727  0.1916
  106OSM    C8S10841   0.350   3.418   9.708 -0.0381 -0.0298 -0.7724
  106OSM    H8S10842   0.442   3.386   9.655  0.5131  0.3112 -0.0437
  106OSM    H8T10843   0.352   3.529   9.697 -1.4653  0.1572  0.5551
  106OSM    C9S10844   0.242   3.350   9.629  0.4113  0.2956  0.7947
  106OSM    H9S10845   0.153   3.351   9.695  0.2707 -1.4299  0.6675
  106OSM    H9T10846   0.262   3.244   9.603  0.0131  0.6671 -1.1518
  106OSM   C10S10847   0.218   3.408   9.492 -0.3005  0.4044 -0.3678
  106OSM   H10S10848   0.207   3.518   9.483 -1.2228  0.3705  0.2158
  106OSM   H10T10849   0.114   3.373   9.472 -0.2802  0.1927 -0.1173
  106OSM   C11S10850   0.318   3.352   9.385 -0.2823 -0.3475 -0.9637
  106OSM   H11S10851   0.330   3.242   9.387  1.1294 -0.2135 -1.2919
  106OSM   H11T10852   0.421   3.389   9.401 -0.7652  0.1803  1.3332
  106OSM   C12S10853   0.272   3.378   9.237  0.8644 -0.3923  0.3454
  106OSM   H12S10854   0.249   3.485   9.215  0.5867 -0.5012  0.0878
  106OSM   H12T10855   0.178   3.324   9.214  0.4894  0.4183 -0.0885
  106OSM   C13S10856   0.366   3.315   9.136  0.0959 -0.2243  0.5069
  106OSM   H13S10857   0.391   3.209   9.155 -1.6402 -0.7492  0.0913
  106OSM   H13T10858   0.461   3.371   9.150 -0.0214 -0.5071  2.7565
  106OSM   C14S10859   0.311   3.333   8.999 -0.3521  0.7415  0.2803
  106OSM   H14S10860   0.262   3.431   8.982  0.6942  1.2220 -0.0554
  106OSM   H14T10861   0.230   3.258   8.993  1.3683 -1.3298  1.5478
  106OSM   C15S10862   0.421   3.299   8.894  0.7546 -0.2701  0.4924
  106OSM   H15S10863   0.478   3.207   8.921  0.2401 -0.3928  1.1943
  106OSM   H15T10864   0.489   3.382   8.865 -2.7849  1.9859 -2.1364
  106OSM   C16S10865   0.363   3.252   8.762  0.2460 -0.1158  0.0981
  106OSM   H16S10866   0.321   3.150   8.769 -2.2169  0.7545 -0.8730
  106OSM   H16T10867   0.453   3.234   8.700 -0.4305 -1.0802 -0.6338
  106OSM   C17S10868   0.264   3.344   8.689  0.0367 -0.0290 -0.6848
  106OSM   H17S10869   0.315   3.443   8.697 -0.2870 -0.0135  2.4547
  106OSM   H17T10870   0.166   3.344   8.741  0.2611 -0.5947 -0.2616
  106OSM   C18S10871   0.249   3.309   8.537 -0.3143 -0.4067 -0.2350
  106OSM   H18S10872   0.192   3.393   8.490 -1.6875  0.0405  2.1007
  106OSM   H18T10873   0.200   3.211   8.523  1.6414 -1.3422 -0.8325
  106OSM   H18U10874   0.340   3.293   8.476 -1.6481  0.3567 -2.5901
  106OSM    C1F10875   0.666   3.763  10.285  0.4815 -0.5052  0.1814
  106OSM     OF10876   0.768   3.766  10.340  0.3265 -0.2171 -0.0309
  106OSM    C2F10877   0.610   3.880  10.216  0.6013  0.4506 -0.3822
  106OSM    H2F10878   0.663   3.964  10.266 -2.3632  1.7857  0.7200
  106OSM    H2G10879   0.500   3.881  10.231  0.5814  1.4311 -0.4990
  106OSM    C3F10880   0.638   3.870  10.061  0.6589 -0.3671 -0.2602
  106OSM    H3F10881   0.743   3.838  10.046  0.2314 -1.5764 -0.7941
  106OSM    H3G10882   0.618   3.972  10.020  0.9109 -0.7214 -1.2862
  106OSM    C4F10883   0.545   3.775   9.986 -0.0077  0.1158  0.2637
  106OSM    H4F10884   0.438   3.803   9.999  0.7021  2.7184  1.1122
  106OSM    H4G10885   0.569   3.674  10.026  0.5068  0.2534  0.3142
  106OSM    C5F10886   0.559   3.791   9.834 -0.3142 -0.2118  0.7802
  106OSM    H5F10887   0.528   3.894   9.805 -0.1420 -0.6755 -1.1266
  106OSM    H5G10888   0.496   3.719   9.779  1.5905 -1.0032 -0.4777
  106OSM    C6F10889   0.700   3.768   9.781 -0.8415  0.1894  0.1752
  106OSM    H6F10890   0.737   3.668   9.812 -0.7174 -0.3182 -1.5151
  106OSM    H6G10891   0.781   3.835   9.818  1.2650 -2.6131  0.9391
  106OSM    C7F10892   0.711   3.748   9.629  0.5567 -0.0868 -0.1182
  106OSM    H7F10893   0.817   3.736   9.599  0.7542 -0.1598  0.5801
  106OSM    H7G10894   0.681   3.838   9.572  4.8021 -0.0440 -2.6659
  106OSM    C8F10895   0.627   3.628   9.573 -0.1629  0.1005 -0.1509
  106OSM    H8F10896   0.519   3.652   9.569  0.2729  2.2192 -0.3522
  106OSM    H8G10897   0.645   3.544   9.643 -0.1045  0.0363 -0.2424
  106OSM    C9F10898   0.672   3.590   9.430  0.4441  0.1047 -0.1028
  106OSM    H9F10899   0.759   3.522   9.430  1.1711  0.9925  1.3635
  106OSM   C10F10900   0.613   3.634   9.315 -0.8284  0.1085 -0.5075
  106OSM   H10F10901   0.655   3.603   9.219  0.2177 -1.3385  0.3743
  106OSM   C11F10902   0.499   3.721   9.291  0.3833 -0.3197  0.1186
  106OSM   H11F10903   0.511   3.827   9.320  0.4184 -0.1966 -0.3373
  106OSM   H11G10904   0.418   3.663   9.341  0.9321 -0.3676  0.9625
  106OSM   C12F10905   0.448   3.730   9.141 -0.3675  0.1650 -0.2684
  106OSM   H12F10906   0.350   3.783   9.138  0.9467  2.8651  0.5506
  106OSM   H12G10907   0.435   3.633   9.088  3.2868 -0.7647  0.2557
  106OSM   C13F10908   0.538   3.810   9.039 -0.3478 -0.2580  0.3287
  106OSM   H13F10909   0.538   3.916   9.074 -0.7528  0.1705 -0.9204
  106OSM   H13G10910   0.496   3.810   8.936  3.0817  3.5423 -1.3543
  106OSM   C14F10911   0.682   3.765   9.016  0.2653  0.9387 -0.0800
  106OSM   H14F10912   0.682   3.657   8.989 -3.5186  1.2511 -1.9183
  106OSM   H14G10913   0.745   3.780   9.107  0.4968  1.5783 -0.3379
  106OSM   C15F10914   0.750   3.841   8.897  0.9961 -0.2595 -0.4267
  106OSM   H15F10915   0.743   3.950   8.915 -0.2594 -0.4092  0.0658
  106OSM   H15G10916   0.689   3.823   8.806  0.2773  1.5216 -0.3432
  106OSM   C16F10917   0.900   3.807   8.867  0.3518  0.0998  0.3081
  106OSM   H16F10918   0.903   3.702   8.831  2.8747  0.8720 -2.1171
  106OSM   H16G10919   0.963   3.832   8.954  0.2674  0.7669  0.1916
  106OSM   C17F10920   0.949   3.883   8.738  0.0460  0.0229  0.4080
  106OSM   H17F10921   0.967   3.987   8.771  1.3287  0.4330 -1.4178
  106OSM   H17G10922   0.868   3.890   8.662  0.0934  1.1502  0.4445
  106OSM   C18F10923   1.084   3.819   8.696 -0.0124 -0.8236  0.7889
  106OSM   H18F10924   1.108   3.844   8.590  1.1488 -0.3749  1.1418
  106OSM   H18G10925   1.078   3.708   8.700 -0.1868 -0.8810 -0.5182
  106OSM   H18H10926   1.168   3.861   8.755  0.8219  1.0804 -1.5640
  107OSM      N10927   3.389   5.343  11.391  0.6648 -0.2297  0.3004
  107OSM    C1510928   3.439   5.260  11.270 -0.5100  0.1522 -0.7987
  107OSM   H15A10929   3.524   5.199  11.299 -0.7382  0.0148 -0.4004
  107OSM   H15B10930   3.456   5.316  11.180 -0.8855 -2.4142 -2.5866
  107OSM   H15C10931   3.355   5.198  11.243 -1.3126  2.2380 -3.4978
  107OSM    C1410932   3.370   5.252  11.507  0.0181  0.1960  0.1022
  107OSM   H14A10933   3.337   5.313  11.590  0.2179 -1.0516  1.1181
  107OSM   H14B10934   3.462   5.198  11.525  0.1107 -0.7811 -2.7714
  107OSM   H14C10935   3.299   5.172  11.493 -0.4332  0.2186  2.0123
  107OSM    C1310936   3.498   5.426  11.429  0.9508 -0.3863 -0.6372
  107OSM   H13A10937   3.477   5.479  11.520 -2.3457  0.2906 -1.6652
  107OSM   H13B10938   3.519   5.501  11.354  0.5335  3.5506  2.8107
  107OSM   H13C10939   3.584   5.362  11.441 -0.1302 -1.8050 -0.1897
  107OSM    C1210940   3.270   5.428  11.355  1.1197  1.0345 -0.3701
  107OSM   H12A10941   3.251   5.488  11.443  0.5446 -0.7902  0.8087
  107OSM   H12B10942   3.180   5.372  11.335 -0.4329  1.7809  3.6456
  107OSM    C1110943   3.286   5.533  11.238  0.7533 -0.2133 -0.5997
  107OSM   H11A10944   3.379   5.593  11.252  1.9259 -1.7273 -1.5590
  107OSM   H11B10945   3.200   5.603  11.241  1.2557  0.4004  0.1727
  107OSM      P10946   3.160   5.410  11.051  0.4031 -0.0033 -0.1388
  107OSM    O1310947   3.193   5.309  10.946  0.6413 -0.0705  0.0071
  107OSM    O1410948   3.070   5.358  11.156 -0.0022  0.0172  0.4488
  107OSM    O1110949   3.101   5.540  10.994 -0.0802  0.1186  0.1026
  107OSM    O1210950   3.295   5.463  11.117  0.5199  0.0812  0.0883
  107OSM    C1S10951   3.169   5.617  10.889 -0.2900 -0.8051  0.0692
  107OSM    H1S10952   3.278   5.619  10.907 -0.5479  2.9629  2.4673
  107OSM    H1T10953   3.141   5.723  10.911  3.5457  0.1551  1.0049
  107OSM     NF10954   3.170   5.709  10.666 -1.1108  0.1350  0.1448
  107OSM    HNF10955   3.095   5.766  10.634  0.0451  0.9143 -1.2404
  107OSM    C2S10956   3.140   5.593  10.746 -0.7890  0.2251  0.6233
  107OSM    H2S10957   3.205   5.505  10.724 -0.1459  0.6308  0.8830
  107OSM    C3S10958   2.991   5.545  10.719 -0.5778  0.0838  0.4984
  107OSM    H3S10959   2.931   5.622  10.771  0.9195  2.7934 -1.5673
  107OSM     O310960   2.964   5.417  10.774 -0.3780  0.0888  0.6988
  107OSM    HO310961   3.029   5.400  10.842 -0.0424  2.8428  1.1694
  107OSM    C4S10962   2.960   5.538  10.569 -0.4320 -0.0288  0.4880
  107OSM    H4S10963   3.009   5.453  10.519 -1.9094 -1.0122  0.6348
  107OSM    C5S10964   2.874   5.611  10.495 -0.3311  0.4910  0.0487
  107OSM    H5S10965   2.803   5.689  10.527 -1.9643 -0.2122 -1.6800
  107OSM    C6S10966   2.863   5.593  10.347  0.4412 -0.7230  0.8503
  107OSM    H6S10967   2.822   5.491  10.328 -0.5363 -0.1386 -0.3226
  107OSM    H6T10968   2.967   5.611  10.314  1.0881 -2.1664  2.0341
  107OSM    C7S10969   2.768   5.691  10.274  0.3066  0.0381  0.3563
  107OSM    H7S10970   2.802   5.794  10.297  1.2917 -0.1097 -0.3760
  107OSM    H7T10971   2.665   5.683  10.316  0.5949 -0.9190  0.9054
  107OSM    C8S10972   2.758   5.657  10.128  0.0122 -0.1001  0.2478
  107OSM    H8S10973   2.671   5.706  10.080 -0.3273 -1.6580 -0.8261
  107OSM    H8T10974   2.734   5.549  10.116 -1.6542  0.3076 -0.4481
  107OSM    C9S10975   2.879   5.691  10.032 -0.4855 -0.3669 -0.0868
  107OSM    H9S10976   2.937   5.597  10.020  0.5267  0.3729 -1.1898
  107OSM    H9T10977   2.946   5.768  10.076 -0.4823 -0.6401  0.3895
  107OSM   C10S10978   2.839   5.739   9.892  0.3104  0.5398  0.0820
  107OSM   H10S10979   2.930   5.774   9.837 -0.0130  0.2895 -0.6187
  107OSM   H10T10980   2.758   5.815   9.890 -1.2584 -1.0392  0.8440
  107OSM   C11S10981   2.809   5.606   9.816  0.6198 -0.5275  0.0390
  107OSM   H11S10982   2.731   5.552   9.875 -0.0713  1.3417  0.8911
  107OSM   H11T10983   2.907   5.554   9.810  3.1133  3.5328  1.5747
  107OSM   C12S10984   2.789   5.616   9.665  0.0199  0.5586 -0.2111
  107OSM   H12S10985   2.856   5.695   9.625  1.2843  1.2910  3.0404
  107OSM   H12T10986   2.688   5.651   9.635 -0.5014  0.7121  1.5948
  107OSM   C13S10987   2.821   5.483   9.600  0.1733 -0.0415  0.3504
  107OSM   H13S10988   2.759   5.403   9.646 -1.2179  0.0638 -1.2123
  107OSM   H13T10989   2.924   5.453   9.627  0.2256 -0.9239 -0.7457
  107OSM   C14S10990   2.813   5.490   9.453 -0.0680 -0.5924  0.4240
  107OSM   H14S10991   2.867   5.572   9.401 -0.2489  0.1594  1.3978
  107OSM   H14T10992   2.710   5.524   9.425  0.1684  0.5508  0.8792
  107OSM   C15S10993   2.834   5.364   9.380 -0.3875  0.8616  0.0366
  107OSM   H15S10994   2.764   5.294   9.430  0.1302 -0.1607 -0.6484
  107OSM   H15T10995   2.938   5.326   9.394 -0.1630  1.0197 -1.1009
  107OSM   C16S10996   2.799   5.357   9.230  0.2333  0.5082 -0.0517
  107OSM   H16S10997   2.866   5.432   9.182 -0.2212  1.6535  1.0272
  107OSM   H16T10998   2.696   5.391   9.206  0.8064  0.9513 -2.0531
  107OSM   C17S10999   2.806   5.219   9.174  0.1963 -0.4241 -0.0338
  107OSM   H17S11000   2.746   5.150   9.237 -0.5966  0.3064  0.0379
  107OSM   H17T11001   2.908   5.184   9.148  0.1894  0.8463 -1.9435
  107OSM   C18S11002   2.743   5.208   9.033  0.3068 -0.0171  0.1438
  107OSM   H18S11003   2.808   5.278   8.976  3.2271  1.1374  4.3939
  107OSM   H18T11004   2.639   5.247   9.027  0.6476  0.7203 -3.7001
  107OSM   H18U11005   2.749   5.104   8.995 -0.0206 -0.1922  0.5680
  107OSM    C1F11006   3.293   5.762  10.642  0.2387 -0.1491 -0.8442
  107OSM     OF11007   3.389   5.701  10.685  0.1540  0.0060 -0.1037
  107OSM    C2F11008   3.298   5.904  10.589 -0.3218 -0.2077  0.1145
  107OSM    H2F11009   3.359   5.969  10.655  2.4983 -0.3992 -2.0995
  107OSM    H2G11010   3.195   5.943  10.579 -0.8348 -1.4899  0.1928
  107OSM    C3F11011   3.358   5.907  10.445 -0.6267 -0.4450 -0.1439
  107OSM    H3F11012   3.288   5.865  10.370  0.7870 -1.2876 -1.0255
  107OSM    H3G11013   3.451   5.849  10.456 -0.4457  0.1602  1.8359
  107OSM    C4F11014   3.388   6.052  10.393 -0.1471  0.5086 -0.3189
  107OSM    H4F11015   3.458   6.103  10.464 -2.6939  0.0476  2.7651
  107OSM    H4G11016   3.300   6.114  10.420 -1.0569 -0.4846 -0.9765
  107OSM    C5F11017   3.430   6.058  10.251  0.2228  0.3861 -0.4342
  107OSM    H5F11018   3.356   6.005  10.188  1.8469 -2.0872 -0.3643
  107OSM    H5G11019   3.530   6.012  10.235  0.2987 -1.2225  3.4682
  107OSM    C6F11020   3.455   6.201  10.196  0.0856 -0.5884 -0.4003
  107OSM    H6F11021   3.548   6.235  10.245 -0.4340  1.4619 -0.7653
  107OSM    H6G11022   3.368   6.264  10.225  0.7537 -1.3962  4.1890
  107OSM    C7F11023   3.464   6.202  10.047 -0.2100  0.5881 -0.5391
  107OSM    H7F11024   3.372   6.151  10.011  0.5699 -2.3446  1.2425
  107OSM    H7G11025   3.548   6.136  10.017 -1.5274 -1.4755  0.0891
  107OSM    C8F11026   3.471   6.342   9.992 -0.7413  0.0194  0.0243
  107OSM    H8F11027   3.398   6.394  10.057 -1.5239 -1.2042  0.1616
  107OSM    H8G11028   3.443   6.330   9.885  0.3686 -2.0388 -0.0845
  107OSM    C9F11029   3.614   6.396  10.000  0.0003  0.4220  0.5560
  107OSM    H9F11030   3.633   6.473  10.077  1.8233  2.6527 -1.9410
  107OSM   C10F11031   3.717   6.360   9.915 -0.1175  1.0110  1.1486
  107OSM   H10F11032   3.815   6.408   9.924  1.0021 -0.6661 -1.1589
  107OSM   C11F11033   3.713   6.263   9.803 -0.0684  0.8427  0.1196
  107OSM   H11F11034   3.633   6.189   9.821  0.3464  0.3876  0.1178
  107OSM   H11G11035   3.804   6.211   9.766  1.3302  3.0621  0.2312
  107OSM   C12F11036   3.673   6.349   9.679  0.3729 -0.1158 -0.0631
  107OSM   H12F11037   3.741   6.437   9.673  0.3671 -0.0766  0.4898
  107OSM   H12G11038   3.574   6.394   9.696  1.6754  2.4686  1.1923
  107OSM   C13F11039   3.672   6.264   9.559  0.3590  0.2271 -0.0066
  107OSM   H13F11040   3.660   6.158   9.591  3.7654 -0.7229 -1.3857
  107OSM   H13G11041   3.764   6.260   9.497  0.6732 -0.8586  0.5059
  107OSM   C14F11042   3.562   6.307   9.452 -0.6432 -0.1268 -0.8881
  107OSM   H14F11043   3.573   6.415   9.429 -0.4504  0.8960  3.3415
  107OSM   H14G11044   3.462   6.292   9.499 -0.1431  0.1568  0.2897
  107OSM   C15F11045   3.580   6.229   9.322  0.1706 -0.7941  0.1083
  107OSM   H15F11046   3.555   6.127   9.359  1.4326  0.0342  3.6644
  107OSM   H15G11047   3.688   6.236   9.294  0.0753 -0.2454 -0.1122
  107OSM   C16F11048   3.486   6.265   9.197  0.3379 -0.1422 -0.0068
  107OSM   H16F11049   3.526   6.358   9.150 -2.1521  1.0983  0.1626
  107OSM   H16G11050   3.383   6.283   9.234 -1.0924 -1.9093 -2.7856
  107OSM   C17F11051   3.485   6.150   9.092  0.0720  0.1598  0.5676
  107OSM   H17F11052   3.426   6.183   9.004 -2.3686  0.9350  2.3936
  107OSM   H17G11053   3.449   6.052   9.129  1.4887 -0.2066  1.0624
  107OSM   C18F11054   3.622   6.105   9.037  0.5425  0.3072  0.4922
  107OSM   H18F11055   3.674   6.197   9.001 -2.6087  2.8325  1.8518
  107OSM   H18G11056   3.608   6.023   8.964  1.0578 -1.3060  2.1247
  107OSM   H18H11057   3.683   6.065   9.121 -1.9638  0.1626  2.3383
  108OSM      N11058   6.329   4.329  11.191 -0.2631 -0.4383  0.4770
  108OSM    C1511059   6.454   4.253  11.230  0.0536  0.2076  0.1300
  108OSM   H15A11060   6.432   4.208  11.325  0.8414  0.3418  0.3854
  108OSM   H15B11061   6.533   4.324  11.247 -0.4929  1.4078 -1.9506
  108OSM   H15C11062   6.485   4.176  11.160  2.7045  0.5018  0.8418
  108OSM    C1411063   6.217   4.233  11.194  0.4976 -0.0657  0.5314
  108OSM   H14A11064   6.218   4.160  11.115  2.6057  0.4331  0.0260
  108OSM   H14B11065   6.129   4.293  11.180  1.0822  1.1280  1.7489
  108OSM   H14C11066   6.209   4.182  11.289  0.4641  1.4352  1.3637
  108OSM    C1311067   6.322   4.428  11.300 -0.0459 -0.8124  0.0451
  108OSM   H13A11068   6.237   4.492  11.280  0.6133  0.0991  0.1304
  108OSM   H13B11069   6.411   4.487  11.317 -2.1629  1.8715  3.0459
  108OSM   H13C11070   6.300   4.390  11.399  1.6602  1.6556  1.4716
  108OSM    C1211071   6.342   4.392  11.059  0.0888  0.2745 -0.3538
  108OSM   H12A11072   6.348   4.321  10.977  0.2933 -2.1019  1.6128
  108OSM   H12B11073   6.439   4.440  11.058  0.0836  0.3845  1.4140
  108OSM    C1111074   6.238   4.501  11.032  0.7890 -0.3300 -0.4319
  108OSM   H11A11075   6.282   4.558  10.948 -0.7980  2.2681  0.3580
  108OSM   H11B11076   6.230   4.573  11.117  0.5097 -1.7263  0.7677
  108OSM      P11077   5.988   4.544  10.968  0.0150  0.0488  0.4864
  108OSM    O1311078   5.868   4.463  10.944 -0.1961  0.4696  0.0835
  108OSM    O1411079   5.982   4.632  11.078 -0.0642  0.1055  0.3719
  108OSM    O1111080   6.040   4.625  10.846 -0.0433 -0.8103  0.3562
  108OSM    O1211081   6.110   4.450  10.985  0.0778 -0.3644  0.0253
  108OSM    C1S11082   6.086   4.563  10.724 -0.5662  0.4879 -0.1689
  108OSM    H1S11083   6.010   4.501  10.673 -1.4634 -1.2353  2.9849
  108OSM    H1T11084   6.169   4.490  10.738  0.0577  0.2012 -4.2064
  108OSM     NF11085   6.150   4.613  10.474  0.8171 -1.0663 -0.5012
  108OSM    HNF11086   6.238   4.626  10.428  0.5912 -1.4289 -1.0454
  108OSM    C2S11087   6.131   4.667  10.614  0.7780  0.3339 -0.0343
  108OSM    H2S11088   6.045   4.736  10.600  1.2313  0.8245 -0.4344
  108OSM    C3S11089   6.259   4.736  10.671  0.0451  0.5022  0.6523
  108OSM    H3S11090   6.326   4.653  10.702 -1.5343 -0.5190  1.4978
  108OSM     O311091   6.240   4.804  10.793  0.8148 -0.3330 -0.4730
  108OSM    HO311092   6.158   4.774  10.833  0.8053  0.5816  0.2194
  108OSM    C4S11093   6.327   4.836  10.576  0.1810 -0.3015  0.2853
  108OSM    H4S11094   6.262   4.916  10.538  1.9941  1.3784  0.5759
  108OSM    C5S11095   6.452   4.838  10.521 -0.0025  0.3501 -0.2192
  108OSM    H5S11096   6.510   4.746  10.539 -0.2347  0.1016 -0.7356
  108OSM    C6S11097   6.504   4.948  10.431 -1.0724  0.3576 -0.0479
  108OSM    H6S11098   6.602   4.985  10.467  0.4401 -0.9009 -2.5788
  108OSM    H6T11099   6.436   5.036  10.427 -0.4288  1.2198  4.1788
  108OSM    C7S11100   6.537   4.894  10.289  0.2835 -0.4831 -1.1747
  108OSM    H7S11101   6.441   4.873  10.237 -0.8097 -0.6049  0.8204
  108OSM    H7T11102   6.597   4.801  10.295  1.6438  0.3357 -1.5845
  108OSM    C8S11103   6.607   5.007  10.204 -0.7281  0.2809  0.2249
  108OSM    H8S11104   6.673   4.971  10.123  1.3976  0.3851  1.8206
  108OSM    H8T11105   6.683   5.048  10.274  0.6437  0.1500 -1.1497
  108OSM    C9S11106   6.505   5.121  10.182  0.7380 -0.4865  0.1651
  108OSM    H9S11107   6.479   5.161  10.282 -1.3299 -2.7951  0.6373
  108OSM    H9T11108   6.416   5.066  10.146 -0.2588  0.0765  1.6686
  108OSM   C10S11109   6.557   5.224  10.081 -0.8365  0.2149 -0.5489
  108OSM   H10S11110   6.656   5.262  10.113 -0.8984  0.5887 -0.7918
  108OSM   H10T11111   6.489   5.312  10.085 -0.4300  0.5732 -1.2573
  108OSM   C11S11112   6.558   5.169   9.936 -0.2304  0.4525  0.1488
  108OSM   H11S11113   6.457   5.127   9.918  0.8832 -3.1376  1.4050
  108OSM   H11T11114   6.629   5.085   9.922  0.6971  1.1376  0.5874
  108OSM   C12S11115   6.591   5.278   9.831  0.5878  0.4113 -0.0493
  108OSM   H12S11116   6.699   5.306   9.835  0.2020  1.8928  1.0621
  108OSM   H12T11117   6.530   5.367   9.858  1.7847  0.8654  1.3616
  108OSM   C13S11118   6.538   5.257   9.685  0.0699  0.4171  1.0071
  108OSM   H13S11119   6.518   5.357   9.641 -0.9146 -1.0813 -2.2958
  108OSM   H13T11120   6.439   5.212   9.663 -0.5557  2.0453  0.3334
  108OSM   C14S11121   6.642   5.205   9.593  0.0946  0.3878  0.1900
  108OSM   H14S11122   6.674   5.101   9.619 -1.0437 -0.6256 -2.1500
  108OSM   H14T11123   6.731   5.270   9.581  0.2087  0.5628  1.8426
  108OSM   C15S11124   6.594   5.181   9.444 -0.4210 -0.8123 -0.6986
  108OSM   H15S11125   6.547   5.282   9.436  1.8989  0.3600 -0.5749
  108OSM   H15T11126   6.529   5.092   9.439  0.7196 -1.9878  2.7047
  108OSM   C16S11127   6.701   5.173   9.335 -0.3233 -0.0264 -0.2257
  108OSM   H16S11128   6.751   5.075   9.346 -0.4980  0.0052  0.9635
  108OSM   H16T11129   6.777   5.248   9.364  0.2149 -1.9232  3.9081
  108OSM   C17S11130   6.643   5.178   9.192  0.0347  0.1014  0.1857
  108OSM   H17S11131   6.585   5.084   9.184 -1.8307  1.0942  1.0763
  108OSM   H17T11132   6.724   5.178   9.117  0.7210  0.0666  0.9105
  108OSM   C18S11133   6.556   5.307   9.170 -0.5735  0.7256 -1.1737
  108OSM   H18S11134   6.452   5.298   9.209 -0.0282 -1.0502 -0.0057
  108OSM   H18T11135   6.551   5.334   9.062  1.1143  0.1471 -1.4186
  108OSM   H18U11136   6.606   5.395   9.216  0.5879 -0.8027  0.6536
  108OSM    C1F11137   6.045   4.564  10.405 -0.1711  0.4144 -0.6306
  108OSM     OF11138   5.930   4.592  10.441 -0.2900  0.2302 -0.2544
  108OSM    C2F11139   6.075   4.475  10.292 -0.0220 -0.4642  0.2495
  108OSM    H2F11140   6.080   4.368  10.318 -0.0623 -0.1021  1.8445
  108OSM    H2G11141   6.174   4.511  10.256 -0.4793  0.3479 -0.2186
  108OSM    C3F11142   5.977   4.494  10.179 -0.1491  0.2387 -0.2328
  108OSM    H3F11143   5.948   4.601  10.174 -1.7535 -0.1767 -0.4152
  108OSM    H3G11144   5.880   4.440  10.190 -0.4255  0.8937  0.7121
  108OSM    C4F11145   6.040   4.461  10.043 -0.7358 -0.4128  0.4378
  108OSM    H4F11146   6.072   4.354  10.039  0.8215  0.0687 -2.0791
  108OSM    H4G11147   6.134   4.518  10.026 -0.8866 -0.0540  0.8018
  108OSM    C5F11148   5.943   4.475   9.929 -0.1178  0.2438 -0.1452
  108OSM    H5F11149   5.922   4.583   9.918 -1.9509 -0.0106  0.4592
  108OSM    H5G11150   5.846   4.427   9.955 -0.1198  0.0113 -0.5627
  108OSM    C6F11151   5.983   4.404   9.802 -0.7606 -0.1910  0.4478
  108OSM    H6F11152   5.909   4.443   9.730 -0.7514 -1.8027 -0.4744
  108OSM    H6G11153   5.972   4.295   9.817  1.9559 -0.2948  2.4682
  108OSM    C7F11154   6.112   4.445   9.737  0.4255 -0.5397  0.1087
  108OSM    H7F11155   6.196   4.389   9.783  0.5824 -1.2218 -0.9896
  108OSM    H7G11156   6.134   4.553   9.755  2.3905 -0.8496 -0.2885
  108OSM    C8F11157   6.114   4.426   9.582  0.4504 -0.1441 -0.1780
  108OSM    H8F11158   6.042   4.496   9.536  0.4575 -0.0145  0.0079
  108OSM    H8G11159   6.100   4.319   9.558  3.9097 -0.8000  0.1693
  108OSM    C9F11160   6.249   4.467   9.538 -0.7331  0.1706 -0.4599
  108OSM    H9F11161   6.269   4.574   9.554 -0.5764 -0.1669  1.9790
  108OSM   C10F11162   6.349   4.391   9.488  0.3132 -0.1938 -0.6579
  108OSM   H10F11163   6.442   4.445   9.466  0.6461 -0.8091 -0.7821
  108OSM   C11F11164   6.347   4.243   9.457 -0.2119 -0.8992  0.2170
  108OSM   H11F11165   6.258   4.191   9.497  0.7253 -1.7495  1.2549
  108OSM   H11G11166   6.434   4.187   9.495  0.2030 -1.8507 -1.9471
  108OSM   C12F11167   6.358   4.229   9.306 -0.1059  0.6815 -0.4115
  108OSM   H12F11168   6.266   4.267   9.257  0.3933  1.0688 -1.0635
  108OSM   H12G11169   6.385   4.123   9.284  1.7323  1.2251 -0.9569
  108OSM   C13F11170   6.482   4.300   9.249  0.7761 -0.6532  0.2011
  108OSM   H13F11171   6.566   4.314   9.319 -1.0648  1.9745  2.0976
  108OSM   H13G11172   6.444   4.402   9.227 -0.0862 -0.6701  1.4788
  108OSM   C14F11173   6.545   4.244   9.120 -0.4918 -0.0802 -0.1618
  108OSM   H14F11174   6.581   4.142   9.142  0.5887  0.1076 -1.0181
  108OSM   H14G11175   6.634   4.308   9.102  0.3824 -1.4936 -1.0446
  108OSM   C15F11176   6.446   4.256   9.003 -0.6076 -0.8026 -0.0299
  108OSM   H15F11177   6.411   4.361   8.994  0.9759 -0.2613 -0.1932
  108OSM   H15G11178   6.359   4.190   9.025 -2.1390  1.4611  1.0461
  108OSM   C16F11179   6.512   4.203   8.870  0.0519 -0.0524  0.4275
  108OSM   H16F11180   6.553   4.101   8.886  0.7632  0.0759 -0.4967
  108OSM   H16G11181   6.607   4.259   8.856 -0.4976  0.8839  0.3584
  108OSM   C17F11182   6.423   4.197   8.750  0.4568 -0.6058  0.3055
  108OSM   H17F11183   6.365   4.102   8.750 -1.7109  0.5627 -2.0763
  108OSM   H17G11184   6.468   4.183   8.649 -0.9984  0.0427 -0.4846
  108OSM   C18F11185   6.304   4.300   8.738  0.1198 -0.9533 -0.1040
  108OSM   H18F11186   6.257   4.317   8.639 -1.5276  1.0875  0.9590
  108OSM   H18G11187   6.348   4.399   8.762  1.9232 -1.2390 -1.9113
  108OSM   H18H11188   6.230   4.271   8.816  0.7589 -2.5647 -0.0543
  109OSM      N11189   0.240   5.969  10.664  0.0236 -0.3013  0.2225
  109OSM    C1511190   0.245   5.824  10.666  0.6372  0.5912  0.1379
  109OSM   H15A11191   0.274   5.791  10.568  0.3327  1.2345 -0.1772
  109OSM   H15B11192   0.147   5.782  10.682  0.8967  0.1192  0.5124
  109OSM   H15C11193   0.310   5.796  10.748  0.1297  1.5774  0.9043
  109OSM    C1411194   0.183   6.026  10.793 -0.2543  0.3890 -0.0532
  109OSM   H14A11195   0.077   6.009  10.803 -0.6755  3.3819  2.3977
  109OSM   H14B11196   0.176   6.133  10.777  0.0384  0.5727  0.9774
  109OSM   H14C11197   0.230   5.990  10.883 -0.2172 -0.7524 -0.5186
  109OSM    C1311198   0.377   6.027  10.647 -0.0991  0.7388  0.1113
  109OSM   H13A11199   0.436   6.008  10.735 -1.0561  1.1538  0.8576
  109OSM   H13B11200   0.379   6.130  10.614  0.7187  0.2090 -1.6380
  109OSM   H13C11201   0.422   5.992  10.555  0.4633  1.6003  0.0496
  109OSM    C1211202   0.161   6.009  10.541 -0.2401  0.1339 -0.2903
  109OSM   H12A11203   0.211   5.978  10.451 -0.0687  1.5245 -0.7018
  109OSM   H12B11204   0.150   6.115  10.525 -2.0097 -0.2188 -1.7444
  109OSM    C1111205   0.010   5.968  10.548 -0.7375 -0.0120 -0.3063
  109OSM   H11A11206   0.016   5.862  10.579  0.1686 -0.1727 -0.9937
  109OSM   H11B11207  -0.038   5.960  10.448  1.2165  1.1883 -1.4248
  109OSM      P11208  -0.114   6.190  10.619  0.3789  0.2648 -0.3451
  109OSM    O1311209  -0.226   6.208  10.716  0.0830 -0.2091 -0.0659
  109OSM    O1411210   0.004   6.285  10.636  0.2211  0.5486 -0.1133
  109OSM    O1111211  -0.166   6.185  10.468 -0.1888  0.4363  0.0818
  109OSM    O1211212  -0.063   6.042  10.641 -0.1439 -0.0523 -0.9523
  109OSM    C1S11213  -0.292   6.243  10.441  0.2704 -0.6508  0.7544
  109OSM    H1S11214  -0.287   6.350  10.472  0.4664 -0.4784  0.1440
  109OSM    H1T11215  -0.369   6.184  10.494  0.6032 -0.3185  1.6364
  109OSM     NF11216  -0.470   6.291  10.276 -0.6470  0.5170  0.5403
  109OSM    HNF11217  -0.532   6.213  10.278 -0.3485  0.2967  2.2986
  109OSM    C2S11218  -0.331   6.246  10.281 -0.0382 -0.0140 -0.5580
  109OSM    H2S11219  -0.260   6.320  10.237 -0.7004  0.5978 -0.6248
  109OSM    C3S11220  -0.304   6.109  10.217  0.6475  0.1694  0.0255
  109OSM    H3S11221  -0.355   6.024  10.268  0.3719  0.0270 -0.4797
  109OSM     O311222  -0.169   6.075  10.208 -0.0674 -0.2424 -0.4624
  109OSM    HO311223  -0.110   6.145  10.237 -0.8532  1.4919 -2.7413
  109OSM    C4S11224  -0.356   6.108  10.076  0.1240  0.2602  0.2334
  109OSM    H4S11225  -0.315   6.188  10.012  0.2205  0.7745  0.9258
  109OSM    C5S11226  -0.459   6.036  10.028 -0.0607 -0.9422  0.4808
  109OSM    H5S11227  -0.509   5.968  10.100  0.9764 -0.4928  1.6648
  109OSM    C6S11228  -0.503   6.038   9.884  0.2009 -0.0972  0.1487
  109OSM    H6S11229  -0.598   6.095   9.884  0.6785  0.7174  0.2528
  109OSM    H6T11230  -0.523   5.931   9.862 -1.3473 -0.2954  2.2117
  109OSM    C7S11231  -0.412   6.093   9.776 -0.3462  0.1694  0.0959
  109OSM    H7S11232  -0.310   6.051   9.783 -0.6839 -0.4969  1.4547
  109OSM    H7T11233  -0.401   6.203   9.789  0.3923  0.0622  0.3804
  109OSM    C8S11234  -0.475   6.068   9.639  0.5811  0.5221 -0.0377
  109OSM    H8S11235  -0.572   6.122   9.636 -0.2391 -0.7929  1.2740
  109OSM    H8T11236  -0.488   5.960   9.614 -2.1274  1.1287 -1.6754
  109OSM    C9S11237  -0.386   6.134   9.526 -0.4535 -0.0680  0.0801
  109OSM    H9S11238  -0.290   6.078   9.526 -0.7119 -0.5191  0.3250
  109OSM    H9T11239  -0.369   6.242   9.548  2.9178 -1.1206  3.8769
  109OSM   C10S11240  -0.445   6.117   9.384  0.0736  0.2703  0.3866
  109OSM   H10S11241  -0.550   6.152   9.391 -0.4625 -0.7957 -1.6173
  109OSM   H10T11242  -0.438   6.010   9.353 -0.5798  0.4096 -0.2575
  109OSM   C11S11243  -0.372   6.195   9.274  0.2974 -0.1121 -0.3933
  109OSM   H11S11244  -0.264   6.173   9.271  0.2566 -0.3139 -3.3394
  109OSM   H11T11245  -0.384   6.305   9.290 -0.0849 -0.3501  1.0857
  109OSM   C12S11246  -0.439   6.167   9.140  0.1202  0.3833  0.0636
  109OSM   H12S11247  -0.437   6.056   9.136  3.2526  0.2980  1.2014
  109OSM   H12T11248  -0.374   6.212   9.063 -2.4142  0.7385 -1.9830
  109OSM   C13S11249  -0.583   6.225   9.127  0.3939 -0.2928 -0.4921
  109OSM   H13S11250  -0.574   6.335   9.137  1.3879 -0.2994 -1.1426
  109OSM   H13T11251  -0.639   6.195   9.218  0.1324 -3.1613 -1.4930
  109OSM   C14S11252  -0.652   6.180   9.000 -0.1175  0.0603 -0.1859
  109OSM   H14S11253  -0.688   6.075   9.005 -1.5555  0.4021 -2.1433
  109OSM   H14T11254  -0.582   6.192   8.914 -1.0734  1.9402 -0.7608
  109OSM   C15S11255  -0.780   6.257   8.961 -0.1573  0.9529  0.1286
  109OSM   H15S11256  -0.740   6.361   8.957 -0.3680  1.0125 -0.3902
  109OSM   H15T11257  -0.863   6.252   9.035 -1.1837  1.3273 -0.9777
  109OSM   C16S11258  -0.838   6.207   8.823 -0.6049 -0.1576 -0.6168
  109OSM   H16S11259  -0.927   6.145   8.849  0.0790 -1.1530 -0.5743
  109OSM   H16T11260  -0.765   6.150   8.762  1.4946 -0.9540  2.4031
  109OSM   C17S11261  -0.903   6.319   8.740  0.1117 -0.6607 -0.2555
  109OSM   H17S11262  -0.828   6.401   8.733 -0.5798  0.0830  0.7722
  109OSM   H17T11263  -0.976   6.364   8.811  1.2934 -0.2460  0.7281
  109OSM   C18S11264  -0.976   6.284   8.610  0.2994  0.5934 -0.0295
  109OSM   H18S11265  -0.904   6.235   8.541  0.7516  0.0121  0.8415
  109OSM   H18T11266  -1.017   6.375   8.561 -1.9140 -0.5471 -0.4478
  109OSM   H18U11267  -1.068   6.225   8.628  1.7810 -2.0222 -0.4973
  109OSM    C1F11268  -0.501   6.416  10.284  0.1898  0.1843  0.2972
  109OSM     OF11269  -0.421   6.512  10.286 -0.0730 -0.1086 -0.1035
  109OSM    C2F11270  -0.649   6.432  10.284  0.0271 -0.3456  0.4309
  109OSM    H2F11271  -0.673   6.459  10.389  0.5865 -0.7687  0.6733
  109OSM    H2G11272  -0.692   6.335  10.250  3.4830 -1.3904 -1.4299
  109OSM    C3F11273  -0.715   6.539  10.193  0.3149 -0.1148 -0.4901
  109OSM    H3F11274  -0.667   6.638  10.209 -2.2118  1.3220 -1.3194
  109OSM    H3G11275  -0.824   6.540  10.214  0.8085  1.5414  2.5034
  109OSM    C4F11276  -0.724   6.500  10.045 -0.1625  0.2323 -0.5580
  109OSM    H4F11277  -0.806   6.556   9.994 -0.2445 -1.3256 -2.2582
  109OSM    H4G11278  -0.761   6.395  10.037 -1.5379  0.7118 -0.7400
  109OSM    C5F11279  -0.602   6.517   9.961  0.1387  0.4667 -0.2322
  109OSM    H5F11280  -0.516   6.483  10.023 -0.2970  0.4699  0.3887
  109OSM    H5G11281  -0.592   6.627   9.943 -0.4088  0.3739 -1.1515
  109OSM    C6F11282  -0.613   6.458   9.815 -0.5752 -0.4832  0.5377
  109OSM    H6F11283  -0.645   6.352   9.823  0.0216 -0.6988  0.1544
  109OSM    H6G11284  -0.513   6.454   9.766 -1.5113  2.5525 -1.9416
  109OSM    C7F11285  -0.716   6.528   9.719  0.0899  0.4146  0.0959
  109OSM    H7F11286  -0.689   6.635   9.729 -0.3423  0.3134  3.4947
  109OSM    H7G11287  -0.820   6.513   9.756 -1.0080  2.1482 -2.0726
  109OSM    C8F11288  -0.687   6.467   9.575 -0.1511 -0.8516 -0.1270
  109OSM    H8F11289  -0.692   6.356   9.584 -1.1299 -0.8691 -0.6639
  109OSM    H8G11290  -0.582   6.492   9.549 -0.7438  0.9250 -0.9544
  109OSM    C9F11291  -0.791   6.532   9.482  0.2884 -0.5063  0.0014
  109OSM    H9F11292  -0.893   6.520   9.522  0.5982 -0.2734  0.8701
  109OSM   C10F11293  -0.764   6.609   9.374 -0.6223 -0.0981  0.5659
  109OSM   H10F11294  -0.850   6.642   9.314 -0.6053 -0.9266  0.0578
  109OSM   C11F11295  -0.625   6.642   9.318 -0.0235  0.6850 -0.0489
  109OSM   H11F11296  -0.624   6.691   9.218  0.5383  1.3515  0.2661
  109OSM   H11G11297  -0.550   6.560   9.317 -1.8376 -1.1094  1.7662
  109OSM   C12F11298  -0.564   6.752   9.401  0.0177  0.1351  0.2953
  109OSM   H12F11299  -0.463   6.773   9.361  0.6849  0.4714  2.0412
  109OSM   H12G11300  -0.563   6.719   9.507 -1.9620 -1.2173 -0.0610
  109OSM   C13F11301  -0.644   6.884   9.408 -0.1610  0.2876  0.4476
  109OSM   H13F11302  -0.745   6.857   9.446 -0.4900 -0.0953 -0.6667
  109OSM   H13G11303  -0.663   6.917   9.304 -2.3908 -1.4936  0.2037
  109OSM   C14F11304  -0.590   6.991   9.499 -0.0013  0.0599  0.8002
  109OSM   H14F11305  -0.485   7.017   9.474  0.6720 -0.1822  3.1136
  109OSM   H14G11306  -0.581   6.965   9.607  0.4702  1.4234  1.1154
  109OSM   C15F11307  -0.670   7.120   9.482  0.5276 -0.6429  0.1171
  109OSM   H15F11308  -0.764   7.120   9.542  0.8536  2.5455  0.8101
  109OSM   H15G11309  -0.693   7.129   9.373  2.3179 -0.3729 -0.2579
  109OSM   C16F11310  -0.597   7.244   9.536  1.6505 -0.0269  0.6018
  109OSM   H16F11311  -0.521   7.274   9.461 -1.2214  2.6142 -1.4959
  109OSM   H16G11312  -0.532   7.215   9.622  1.5686 -2.4257 -0.0672
  109OSM   C17F11313  -0.692   7.363   9.559 -0.1597 -0.7401  0.4060
  109OSM   H17F11314  -0.772   7.312   9.617 -1.7186  0.1320 -0.9145
  109OSM   H17G11315  -0.735   7.396   9.462  2.6486 -1.6287 -1.2572
  109OSM   C18F11316  -0.626   7.476   9.641  0.3697  0.0844 -0.3391
  109OSM   H18F11317  -0.701   7.543   9.688  2.4326  1.6195  0.9410
  109OSM   H18G11318  -0.556   7.528   9.572 -0.3169 -1.3985 -2.2439
  109OSM   H18H11319  -0.568   7.430   9.723 -1.2959 -0.6620  0.4793
  110OSM      N11320   1.420   4.667  11.001 -0.3234  0.3796  0.1638
  110OSM    C1511321   1.396   4.530  11.039 -0.7666  0.3901 -0.2831
  110OSM   H15A11322   1.418   4.502  11.141 -2.0156 -0.1785 -0.1561
  110OSM   H15B11323   1.456   4.461  10.982 -0.1976  0.3710  0.3255
  110OSM   H15C11324   1.289   4.516  11.031 -1.0590  2.3633 -0.3762
  110OSM    C1411325   1.571   4.695  10.983  0.1320  0.8478 -0.5376
  110OSM   H14A11326   1.619   4.685  11.079  0.6320  2.6614 -0.5550
  110OSM   H14B11327   1.585   4.794  10.942 -0.1201  0.7650 -0.8287
  110OSM   H14C11328   1.613   4.625  10.913  0.3684  0.6314 -0.1841
  110OSM    C1311329   1.354   4.697  10.871  0.2379 -0.2405 -0.0675
  110OSM   H13A11330   1.254   4.727  10.900 -0.1814 -1.6599  0.0542
  110OSM   H13B11331   1.342   4.619  10.797  2.3804 -0.3873 -0.3073
  110OSM   H13C11332   1.399   4.784  10.825 -0.1855 -0.6573 -1.2936
  110OSM    C1211333   1.360   4.765  11.100 -0.0178 -0.0333 -0.4763
  110OSM   H12A11334   1.366   4.865  11.058 -0.6170  0.2362  0.0690
  110OSM   H12B11335   1.428   4.760  11.184  0.5724 -0.4316 -0.9679
  110OSM    C1111336   1.215   4.731  11.149  0.2195  0.0017 -0.0050
  110OSM   H11A11337   1.178   4.813  11.214 -0.0159  1.9996 -2.5232
  110OSM   H11B11338   1.216   4.638  11.211 -1.9908  0.0998  0.2555
  110OSM      P11339   0.992   4.639  11.045  0.1073 -0.1025 -0.0378
  110OSM    O1311340   0.989   4.537  11.154  0.2999  0.1282 -0.2127
  110OSM    O1411341   0.884   4.735  11.034  0.8180 -0.4018  0.0039
  110OSM    O1111342   1.004   4.571  10.905  0.2807 -0.6011  0.0468
  110OSM    O1211343   1.119   4.724  11.046 -0.1998 -0.5439  0.1731
  110OSM    C1S11344   1.018   4.648  10.782  0.1523  0.0620 -0.1429
  110OSM    H1S11345   1.088   4.734  10.795 -1.6001  1.6950 -0.9253
  110OSM    H1T11346   0.923   4.700  10.755 -0.3201 -1.3151 -1.2191
  110OSM     NF11347   1.061   4.643  10.542 -0.2853  0.0910 -0.5296
  110OSM    HNF11348   0.973   4.666  10.503 -1.7044 -1.7189  1.3728
  110OSM    C2S11349   1.049   4.553  10.654 -0.6055  0.9662 -0.1963
  110OSM    H2S11350   1.138   4.492  10.679 -0.0104  1.0720 -1.9102
  110OSM    C3S11351   0.932   4.450  10.631 -0.7275  0.3411 -0.3150
  110OSM    H3S11352   0.837   4.507  10.620 -0.3870  0.7319 -1.3022
  110OSM     O311353   0.907   4.372  10.742 -0.0372  0.0946  0.4418
  110OSM    HO311354   0.955   4.414  10.814 -2.0233  1.4015  1.0962
  110OSM    C4S11355   0.950   4.371  10.505  0.2620 -0.2624 -0.9219
  110OSM    H4S11356   1.036   4.303  10.506  0.1540 -0.6696  3.5279
  110OSM    C5S11357   0.863   4.355  10.404 -0.1648  0.0746 -0.1604
  110OSM    H5S11358   0.762   4.399  10.410  0.6973  2.0177  1.2348
  110OSM    C6S11359   0.883   4.270  10.282 -0.5327 -0.5302  1.2293
  110OSM    H6S11360   0.844   4.334  10.199 -2.6129 -1.5126  1.3882
  110OSM    H6T11361   0.818   4.181  10.288 -1.7877  0.3802  1.4833
  110OSM    C7S11362   1.020   4.208  10.255  0.5754 -0.5920  0.4007
  110OSM    H7S11363   1.065   4.169  10.348  1.0684  1.8136  1.2536
  110OSM    H7T11364   1.088   4.275  10.198 -0.8890 -0.6249 -1.4946
  110OSM    C8S11365   1.003   4.089  10.164 -0.0331  0.5907 -0.0677
  110OSM    H8S11366   0.968   4.124  10.064 -0.2716 -1.5897 -0.7955
  110OSM    H8T11367   0.922   4.025  10.205  0.0561  0.6784  0.2473
  110OSM    C9S11368   1.134   4.007  10.151  0.5836  0.2531 -0.6012
  110OSM    H9S11369   1.161   3.960  10.248 -0.5172  2.1927  0.7184
  110OSM    H9T11370   1.217   4.079  10.135 -0.1023  1.4172  0.8437
  110OSM   C10S11371   1.138   3.902  10.032  0.1179 -0.2072 -0.0191
  110OSM   H10S11372   1.116   3.952   9.935 -0.0983 -0.1878  0.0398
  110OSM   H10T11373   1.061   3.824  10.048 -1.4106  0.6000 -2.8446
  110OSM   C11S11374   1.273   3.831  10.038  0.2605 -0.2782 -0.2180
  110OSM   H11S11375   1.297   3.806  10.144  0.6394  0.5052 -0.1108
  110OSM   H11T11376   1.352   3.902  10.006 -2.0908  2.1403 -1.0255
  110OSM   C12S11377   1.266   3.709   9.947 -0.1644 -0.6771 -0.0866
  110OSM   H12S11378   1.274   3.741   9.841  4.2526 -0.0815  0.2378
  110OSM   H12T11379   1.181   3.641   9.969 -0.1464 -0.1472  1.8018
  110OSM   C13S11380   1.386   3.624   9.982 -0.1725 -0.1628 -0.4894
  110OSM   H13S11381   1.374   3.574  10.081 -0.6850  2.0797  0.6518
  110OSM   H13T11382   1.470   3.693  10.005  1.4850 -1.6413 -1.8405
  110OSM   C14S11383   1.419   3.521   9.872  0.5760 -0.7915  0.6169
  110OSM   H14S11384   1.420   3.566   9.770  1.0196 -1.8853  0.1227
  110OSM   H14T11385   1.344   3.439   9.862 -0.5299  0.4359 -2.7518
  110OSM   C15S11386   1.552   3.464   9.899 -0.5622  0.5264 -0.0646
  110OSM   H15S11387   1.627   3.542   9.923  0.2724 -0.1576 -0.4016
  110OSM   H15T11388   1.595   3.410   9.812 -1.9126  0.7985 -0.9166
  110OSM   C16S11389   1.533   3.359  10.007 -0.1560 -0.0030 -0.5659
  110OSM   H16S11390   1.462   3.287   9.963 -2.0276  2.4398 -1.8065
  110OSM   H16T11391   1.475   3.396  10.095  1.6770 -2.3570  1.8123
  110OSM   C17S11392   1.661   3.286  10.061 -0.1066 -0.1011  0.4366
  110OSM   H17S11393   1.726   3.371  10.090 -0.7247  0.6716 -0.3996
  110OSM   H17T11394   1.716   3.238   9.977 -0.3268  0.8341 -0.2553
  110OSM   C18S11395   1.654   3.204  10.197  0.2156 -0.1907  0.1325
  110OSM   H18S11396   1.749   3.174  10.246  0.4157  0.6643  0.2829
  110OSM   H18T11397   1.607   3.106  10.173  1.0558 -0.1396 -1.9560
  110OSM   H18U11398   1.593   3.262  10.269  0.7453  0.9482 -0.3210
  110OSM    C1F11399   1.163   4.723  10.514 -0.1790 -0.0981 -0.2658
  110OSM     OF11400   1.272   4.716  10.574  0.7008  0.0433 -0.4430
  110OSM    C2F11401   1.141   4.829  10.413 -0.3794 -0.6117 -0.0546
  110OSM    H2F11402   1.241   4.859  10.373  1.1373 -3.5783  1.1526
  110OSM    H2G11403   1.083   4.911  10.460  0.2499  0.1739 -0.6105
  110OSM    C3F11404   1.064   4.776  10.298 -0.2061  0.2353  0.1838
  110OSM    H3F11405   1.060   4.839  10.206  1.0608 -2.3086 -1.7464
  110OSM    H3G11406   0.958   4.762  10.328 -0.4030  0.4405 -0.3844
  110OSM    C4F11407   1.116   4.650  10.224 -0.3258 -0.0097  0.1289
  110OSM    H4F11408   1.048   4.621  10.141 -0.4987 -1.5496  0.7874
  110OSM    H4G11409   1.123   4.560  10.288 -1.2786 -1.8038 -2.1600
  110OSM    C5F11410   1.268   4.663  10.181 -0.0921  0.4903  0.0866
  110OSM    H5F11411   1.302   4.568  10.133  1.0878 -0.6087  2.8595
  110OSM    H5G11412   1.328   4.679  10.273 -0.8045  0.1442  0.6199
  110OSM    C6F11413   1.304   4.776  10.076 -0.0658  0.6027 -0.1617
  110OSM    H6F11414   1.411   4.762  10.048  0.0931  0.1179  0.6365
  110OSM    H6G11415   1.283   4.875  10.121  0.9321  0.0394  1.6401
  110OSM    C7F11416   1.231   4.775   9.944 -1.0038  0.5758  0.1687
  110OSM    H7F11417   1.259   4.872   9.899 -2.1254  1.6845  1.7335
  110OSM    H7G11418   1.120   4.775   9.952 -0.9229 -0.3679  1.7761
  110OSM    C8F11419   1.292   4.669   9.855 -0.1925 -0.1035  0.3324
  110OSM    H8F11420   1.299   4.577   9.917 -4.0113 -1.1802 -0.5990
  110OSM    H8G11421   1.399   4.700   9.848 -0.3067  1.1938  2.8975
  110OSM    C9F11422   1.220   4.664   9.725  0.2834 -0.0341 -0.7542
  110OSM    H9F11423   1.270   4.731   9.652  0.0960  1.4873  0.4642
  110OSM   C10F11424   1.114   4.594   9.696  0.6035  0.3598  0.9183
  110OSM   H10F11425   1.066   4.607   9.598  0.7617  0.3484  0.8394
  110OSM   C11F11426   1.029   4.504   9.794  0.2855  0.7142  0.5655
  110OSM   H11F11427   0.920   4.519   9.778  0.4510  0.7384 -0.6956
  110OSM   H11G11428   1.061   4.536   9.895  2.8785  0.2637 -0.0503
  110OSM   C12F11429   1.066   4.353   9.788  0.5010  0.0501 -0.1216
  110OSM   H12F11430   0.992   4.289   9.840  1.3670 -1.8890 -1.1752
  110OSM   H12G11431   1.166   4.353   9.837 -1.0250  0.9903  3.3126
  110OSM   C13F11432   1.071   4.298   9.645 -0.1053 -0.0517 -0.3766
  110OSM   H13F11433   1.152   4.347   9.587  0.9814 -0.2417  0.9270
  110OSM   H13G11434   0.971   4.331   9.609  0.4518  0.6749 -1.3158
  110OSM   C14F11435   1.089   4.154   9.627  1.0464  0.6640 -0.1686
  110OSM   H14F11436   1.019   4.128   9.545  0.1844  0.4696  0.6126
  110OSM   H14G11437   1.066   4.088   9.714  2.1463 -0.6530 -0.8338
  110OSM   C15F11438   1.233   4.115   9.586 -0.8115  0.2336 -0.4256
  110OSM   H15F11439   1.308   4.142   9.664  0.4626 -1.5699 -0.9740
  110OSM   H15G11440   1.269   4.157   9.490  1.6426  0.9593  0.7320
  110OSM   C16F11441   1.262   3.964   9.574  0.4845  0.4970 -0.2604
  110OSM   H16F11442   1.199   3.920   9.493  0.1684 -1.2595  0.8932
  110OSM   H16G11443   1.234   3.913   9.668  2.3887 -1.5409 -0.7213
  110OSM   C17F11444   1.405   3.939   9.535 -0.1874  0.1189  0.1258
  110OSM   H17F11445   1.474   3.984   9.609  1.7790  0.2139 -1.6898
  110OSM   H17G11446   1.432   3.989   9.440  0.8879  0.0149  0.3662
  110OSM   C18F11447   1.447   3.789   9.511  0.0177 -0.3809 -0.5258
  110OSM   H18F11448   1.556   3.790   9.487  0.3500  0.0728  0.9202
  110OSM   H18G11449   1.393   3.746   9.424  0.2752 -0.9817 -0.3970
  110OSM   H18H11450   1.436   3.728   9.603 -2.2292  0.0627 -0.4441
  111OSM      N11451   1.667   0.087  11.205  0.0849 -0.0229  0.5284
  111OSM    C1511452   1.739   0.215  11.168  0.1000  0.4870 -0.2138
  111OSM   H15A11453   1.756   0.274  11.257 -0.0705 -0.5503  0.5320
  111OSM   H15B11454   1.699   0.286  11.098  0.8795 -0.3028 -1.4985
  111OSM   H15C11455   1.838   0.189  11.135  0.6349  1.0411  0.9021
  111OSM    C1411456   1.753   0.023  11.312 -0.1607  0.6044 -0.4441
  111OSM   H14A11457   1.853   0.029  11.272 -0.1422 -0.2617 -0.5270
  111OSM   H14B11458   1.725  -0.080  11.323  1.2514  0.2276 -0.0603
  111OSM   H14C11459   1.740   0.081  11.403 -0.9939  0.4510 -0.4617
  111OSM    C1311460   1.535   0.118  11.272 -0.6746  0.7042  0.4174
  111OSM   H13A11461   1.471   0.034  11.295 -0.2023  0.3546  0.4698
  111OSM   H13B11462   1.480   0.184  11.207 -1.2110  0.1389  0.2848
  111OSM   H13C11463   1.553   0.179  11.359  0.1748  0.3809  0.4725
  111OSM    C1211464   1.652   0.006  11.083  0.2406  0.3168  0.4832
  111OSM   H12A11465   1.745   0.011  11.028  0.7042  4.1205  1.2909
  111OSM   H12B11466   1.568   0.053  11.033  1.7892  0.9052 -1.7831
  111OSM    C1111467   1.599  -0.137  11.104  0.5595 -0.2296  0.4945
  111OSM   H11A11468   1.567  -0.170  11.003 -0.4293 -0.2886  0.8108
  111OSM   H11B11469   1.510  -0.133  11.171  0.4466  0.1429  0.3277
  111OSM      P11470   1.826  -0.269  11.086 -0.2150 -0.2606 -0.1328
  111OSM    O1311471   1.899  -0.148  11.053  0.4756 -0.2397 -0.2525
  111OSM    O1411472   1.893  -0.372  11.161 -0.2206 -0.0591  0.1611
  111OSM    O1111473   1.773  -0.326  10.953 -0.7607 -0.1985 -0.1359
  111OSM    O1211474   1.692  -0.224  11.164  0.0213 -0.5762  0.1758
  111OSM    C1S11475   1.698  -0.448  10.956  0.9788 -0.2799  0.4264
  111OSM    H1S11476   1.602  -0.437  11.011 -0.2842  0.8701 -1.8369
  111OSM    H1T11477   1.763  -0.531  10.992  0.7361 -0.4227  0.5422
  111OSM     NF11478   1.579  -0.610  10.830 -0.1779  0.1393 -0.1989
  111OSM    HNF11479   1.633  -0.686  10.795 -1.5763 -0.7712 -0.4548
  111OSM    C2S11480   1.647  -0.488  10.818 -0.2231 -0.5086  0.2053
  111OSM    H2S11481   1.578  -0.407  10.785  2.4568  1.5046 -0.8026
  111OSM    C3S11482   1.755  -0.487  10.708 -0.0375 -0.2234 -0.1362
  111OSM    H3S11483   1.838  -0.546  10.750  1.6606  2.1841  0.1110
  111OSM     O311484   1.809  -0.355  10.682 -0.1229  0.3988 -0.2531
  111OSM    HO311485   1.805  -0.317  10.770 -4.1422 -0.6780  0.2246
  111OSM    C4S11486   1.705  -0.543  10.578 -0.2821  0.3292 -0.2691
  111OSM    H4S11487   1.756  -0.636  10.551  2.0947  1.4821 -0.0195
  111OSM    C5S11488   1.625  -0.492  10.487 -0.0462 -0.6418  0.3676
  111OSM    H5S11489   1.577  -0.395  10.504  1.2841 -0.3085  2.6140
  111OSM    C6S11490   1.584  -0.554  10.354  0.3596  0.2253 -0.1811
  111OSM    H6S11491   1.621  -0.478  10.282 -0.8917  0.1171 -0.9724
  111OSM    H6T11492   1.474  -0.539  10.349  0.1073 -1.3538 -0.1074
  111OSM    C7S11493   1.622  -0.701  10.324 -0.1100  0.5436 -0.0176
  111OSM    H7S11494   1.568  -0.759  10.402  1.4943  0.5523  1.1633
  111OSM    H7T11495   1.733  -0.709  10.337 -0.0920  0.7785 -0.0183
  111OSM    C8S11496   1.577  -0.740  10.186 -0.4330  0.4080 -0.3202
  111OSM    H8S11497   1.466  -0.726  10.180 -0.3099  1.0825 -1.2773
  111OSM    H8T11498   1.593  -0.850  10.180 -1.6615  0.1798  0.2102
  111OSM    C9S11499   1.645  -0.672  10.066  0.2760 -0.3077 -0.3209
  111OSM    H9S11500   1.756  -0.673  10.070  0.2716 -0.8331 -0.2870
  111OSM    H9T11501   1.615  -0.566  10.052  2.6707  0.4821  0.0986
  111OSM   C10S11502   1.597  -0.740   9.935 -0.2962  0.0132 -0.3488
  111OSM   H10S11503   1.487  -0.744   9.923 -0.2424 -0.3459 -0.7638
  111OSM   H10T11504   1.642  -0.841   9.947 -0.4090  0.2846  4.3972
  111OSM   C11S11505   1.648  -0.661   9.820  0.5925 -0.4947  0.5724
  111OSM   H11S11506   1.759  -0.661   9.830  0.7989  1.9687 -0.8154
  111OSM   H11T11507   1.609  -0.557   9.824  2.0627  0.0722  0.7887
  111OSM   C12S11508   1.637  -0.721   9.683  0.4788  0.6732  0.4512
  111OSM   H12S11509   1.725  -0.787   9.672 -0.7489 -1.8375  4.0318
  111OSM   H12T11510   1.651  -0.647   9.602 -1.6751 -1.0813 -1.6803
  111OSM   C13S11511   1.522  -0.819   9.654  0.3536 -1.3441  0.7062
  111OSM   H13S11512   1.422  -0.772   9.664  0.8956  0.6353 -2.1009
  111OSM   H13T11513   1.526  -0.895   9.736  1.6811 -1.6825  0.3414
  111OSM   C14S11514   1.544  -0.899   9.525 -0.1618 -0.8300  0.2270
  111OSM   H14S11515   1.458  -0.969   9.516  1.0105 -2.1621 -1.2358
  111OSM   H14T11516   1.634  -0.964   9.531 -0.4698 -1.4112 -1.0071
  111OSM   C15S11517   1.556  -0.808   9.403 -0.6191  0.0110 -0.3344
  111OSM   H15S11518   1.650  -0.750   9.415 -0.1716 -0.7780  0.1132
  111OSM   H15T11519   1.466  -0.745   9.412  0.0334  1.2823 -2.2034
  111OSM   C16S11520   1.553  -0.884   9.268  0.3021 -0.6475  0.2855
  111OSM   H16S11521   1.449  -0.917   9.249  0.2043  1.3461 -3.5225
  111OSM   H16T11522   1.621  -0.972   9.272  0.0954 -0.7805  0.9375
  111OSM   C17S11523   1.596  -0.798   9.153 -0.7747 -0.2137  0.1683
  111OSM   H17S11524   1.683  -0.734   9.181 -0.3327 -1.2273  1.1945
  111OSM   H17T11525   1.513  -0.727   9.137 -0.5164  0.5122  1.8523
  111OSM   C18S11526   1.614  -0.873   9.021 -0.3865 -0.6035 -0.3321
  111OSM   H18S11527   1.672  -0.966   9.037  0.9105 -0.4929 -3.6459
  111OSM   H18T11528   1.671  -0.811   8.949  0.7667 -0.0497  1.0044
  111OSM   H18U11529   1.514  -0.896   8.977  0.5210 -2.1508 -1.6810
  111OSM    C1F11530   1.464  -0.636  10.881  0.7035 -0.1564 -0.1968
  111OSM     OF11531   1.384  -0.553  10.930 -0.0383  0.2555 -0.1475
  111OSM    C2F11532   1.425  -0.783  10.866  0.1968  0.5165  0.2692
  111OSM    H2F11533   1.391  -0.819  10.965  1.2134  0.6851  0.6927
  111OSM    H2G11534   1.509  -0.844  10.828  0.3946  0.4514  0.8019
  111OSM    C3F11535   1.291  -0.796  10.790  0.0666  0.6503  0.0033
  111OSM    H3F11536   1.220  -0.733  10.848 -0.0221 -0.9283  1.6750
  111OSM    H3G11537   1.268  -0.904  10.796 -1.7590  0.7796 -2.6135
  111OSM    C4F11538   1.313  -0.740  10.646  0.2221  0.8724 -0.1533
  111OSM    H4F11539   1.411  -0.770  10.604  0.2716  0.8638 -0.0323
  111OSM    H4G11540   1.321  -0.630  10.652 -1.8331  1.0542 -0.1880
  111OSM    C5F11541   1.202  -0.770  10.546  0.3543 -0.1341 -0.8732
  111OSM    H5F11542   1.108  -0.722  10.581  1.7878  0.1725  3.0602
  111OSM    H5G11543   1.187  -0.880  10.543  0.9785 -0.2141 -1.4032
  111OSM    C6F11544   1.228  -0.722  10.409  0.2387 -0.3843 -0.5784
  111OSM    H6F11545   1.337  -0.701  10.396  0.0397 -0.1064 -1.9625
  111OSM    H6G11546   1.180  -0.626  10.383  0.9780 -0.2067 -1.3266
  111OSM    C7F11547   1.193  -0.827  10.305  0.0552 -0.5265  0.9508
  111OSM    H7F11548   1.239  -0.925  10.330 -0.2492 -0.4130  2.0078
  111OSM    H7G11549   1.241  -0.793  10.210 -2.3480  0.3426 -0.0171
  111OSM    C8F11550   1.037  -0.837  10.283 -0.9509  0.2365  0.1004
  111OSM    H8F11551   1.004  -0.738  10.245  0.2209  1.2534  1.6130
  111OSM    H8G11552   0.984  -0.858  10.379 -1.6616 -1.0466 -0.5433
  111OSM    C9F11553   1.006  -0.950  10.188  0.6519 -1.1908  0.0132
  111OSM    H9F11554   0.985  -1.045  10.240 -1.1660  0.0171  1.6251
  111OSM   C10F11555   0.972  -0.933  10.057 -0.1430  0.7471  0.0720
  111OSM   H10F11556   0.955  -1.023   9.996 -0.5012  0.8393  0.0349
  111OSM   C11F11557   0.962  -0.804   9.983  0.3637 -0.0883 -0.3955
  111OSM   H11F11558   1.027  -0.723  10.024 -0.1581  1.1560 -1.9089
  111OSM   H11G11559   0.854  -0.781   9.984 -0.3641 -3.0239  1.5431
  111OSM   C12F11560   1.018  -0.824   9.842 -0.0788  0.0021  0.3482
  111OSM   H12F11561   1.126  -0.851   9.848 -0.0483  0.1355  0.3876
  111OSM   H12G11562   1.016  -0.727   9.789 -0.7560 -0.1070  0.1653
  111OSM   C13F11563   0.942  -0.933   9.753  0.3225  0.3750  0.5182
  111OSM   H13F11564   0.836  -0.905   9.768  0.4035  0.5906  0.6969
  111OSM   H13G11565   0.958  -1.032   9.801  0.8943  0.9905  1.6331
  111OSM   C14F11566   0.979  -0.930   9.599  0.7449  0.0976  0.2210
  111OSM   H14F11567   0.943  -0.842   9.541 -0.2259 -0.0427  0.5969
  111OSM   H14G11568   0.934  -1.021   9.553 -2.0138  1.1295  0.6340
  111OSM   C15F11569   1.132  -0.931   9.577  0.3422 -0.1863  0.1690
  111OSM   H15F11570   1.165  -1.007   9.650 -1.4230 -0.9461  0.2286
  111OSM   H15G11571   1.178  -0.837   9.615  0.2215 -0.7117  1.6649
  111OSM   C16F11572   1.171  -0.941   9.428  0.3916  0.6474 -0.6747
  111OSM   H16F11573   1.123  -1.027   9.376 -0.7990  0.3720  0.8226
  111OSM   H16G11574   1.280  -0.956   9.438  0.5397  1.0729 -1.5479
  111OSM   C17F11575   1.135  -0.816   9.344 -0.0152 -0.4697 -0.0282
  111OSM   H17F11576   1.229  -0.796   9.290 -0.0349 -1.7762 -0.5832
  111OSM   H17G11577   1.105  -0.732   9.410  0.8683 -0.1474 -0.0296
  111OSM   C18F11578   1.032  -0.851   9.237 -0.9648 -0.3472  0.2127
  111OSM   H18F11579   1.054  -0.956   9.208 -1.7419 -0.2552 -0.7652
  111OSM   H18G11580   1.037  -0.778   9.154  1.6455  0.5566  1.0660
  111OSM   H18H11581   0.925  -0.846   9.267 -1.3019  0.5500 -1.0462
  112OSM      N11582   2.980   0.793  11.236 -0.1751  0.3073 -0.0232
  112OSM    C1511583   3.055   0.925  11.206  0.1310  0.2195 -0.4096
  112OSM   H15A11584   3.056   0.996  11.288 -0.2789  0.6520 -0.7732
  112OSM   H15B11585   3.002   0.974  11.125 -1.3568  0.8523  0.8832
  112OSM   H15C11586   3.156   0.914  11.169  0.6273  0.1405  0.9340
  112OSM    C1411587   3.070   0.719  11.332 -0.5784  0.0566  0.1987
  112OSM   H14A11588   3.108   0.787  11.407 -0.1965  0.7857 -0.6419
  112OSM   H14B11589   3.153   0.672  11.283 -0.1061  1.3860 -0.3386
  112OSM   H14C11590   3.024   0.643  11.394 -2.5294  1.4766  0.6039
  112OSM    C1311591   2.854   0.823  11.301  0.0072  0.3248 -0.5907
  112OSM   H13A11592   2.863   0.884  11.390  1.3804 -0.6729 -0.0092
  112OSM   H13B11593   2.812   0.730  11.333  1.6430 -0.4436 -0.5662
  112OSM   H13C11594   2.787   0.872  11.232  0.1496  1.3609 -0.0163
  112OSM    C1211595   2.972   0.710  11.115 -0.5379  0.1984 -0.6060
  112OSM   H12A11596   2.933   0.612  11.136 -3.0774  0.8201 -2.0322
  112OSM   H12B11597   3.071   0.691  11.076  0.1245 -1.3176  1.5909
  112OSM    C1111598   2.880   0.746  10.993  0.3223  0.0994  0.6495
  112OSM   H11A11599   2.888   0.665  10.917 -1.9191  0.6190 -0.2080
  112OSM   H11B11600   2.919   0.845  10.962  0.1036 -0.2904 -0.9375
  112OSM      P11601   2.657   0.878  10.987 -0.3805 -0.4446 -0.1322
  112OSM    O1311602   2.516   0.855  11.030  0.3313  0.2217  0.0731
  112OSM    O1411603   2.721   1.007  11.030  0.0051 -0.9142 -0.4387
  112OSM    O1111604   2.663   0.865  10.833  0.2922 -0.4253  0.6630
  112OSM    O1211605   2.752   0.756  11.047  0.4159 -0.5644  0.0309
  112OSM    C1S11606   2.743   0.963  10.758  0.6284 -0.0038 -0.1864
  112OSM    H1S11607   2.849   0.964  10.793 -0.1725 -0.4504  2.4070
  112OSM    H1T11608   2.707   1.063  10.789  0.4043 -0.9812  3.0516
  112OSM     NF11609   2.808   1.054  10.540 -0.6003  0.1228  0.0527
  112OSM    HNF11610   2.770   1.144  10.522  0.2656  0.4988  0.0122
  112OSM    C2S11611   2.721   0.956  10.600 -0.2577  0.0062  0.2353
  112OSM    H2S11612   2.766   0.856  10.578  0.4549 -0.1344  2.1154
  112OSM    C3S11613   2.572   0.961  10.552  0.5499 -0.3695 -0.0320
  112OSM    H3S11614   2.545   1.068  10.541 -0.1262 -0.5968 -0.6353
  112OSM     O311615   2.472   0.901  10.632  0.3626 -0.6297 -0.0556
  112OSM    HO311616   2.514   0.872  10.713  0.7990 -0.9396 -0.3908
  112OSM    C4S11617   2.577   0.899  10.418 -0.1221 -0.0897  0.3889
  112OSM    H4S11618   2.567   0.971  10.335  2.9040 -0.9361 -0.8271
  112OSM    C5S11619   2.563   0.771  10.382  0.5984 -0.8935 -0.0962
  112OSM    H5S11620   2.551   0.700  10.465  0.6353 -0.4200  0.3187
  112OSM    C6S11621   2.558   0.715  10.247 -0.3209  0.4887  0.9772
  112OSM    H6S11622   2.454   0.696  10.214  0.3541 -0.7873 -0.5581
  112OSM    H6T11623   2.603   0.614  10.237 -0.7909  0.4794 -1.4508
  112OSM    C7S11624   2.609   0.802  10.133  0.1262  0.1590 -0.9924
  112OSM    H7S11625   2.709   0.837  10.169 -0.2135 -1.7796  2.2228
  112OSM    H7T11626   2.537   0.883  10.108  0.7848  0.1284 -3.2390
  112OSM    C8S11627   2.621   0.725  10.001  0.4681 -0.6031  0.2662
  112OSM    H8S11628   2.698   0.646  10.014  0.0708 -1.0464 -0.0216
  112OSM    H8T11629   2.648   0.803   9.927 -0.0704 -1.8051 -1.2676
  112OSM    C9S11630   2.494   0.660   9.944  0.2660  0.0435  0.5909
  112OSM    H9S11631   2.407   0.727   9.931 -2.0743 -2.9769 -0.6579
  112OSM    H9T11632   2.462   0.575  10.008 -1.2127  0.4094  0.3773
  112OSM   C10S11633   2.521   0.611   9.789 -0.8172  0.4047 -0.1884
  112OSM   H10S11634   2.582   0.518   9.798 -1.6686 -0.2958 -1.4068
  112OSM   H10T11635   2.573   0.692   9.735 -0.7843 -0.6457 -1.7894
  112OSM   C11S11636   2.388   0.585   9.710  0.4372 -0.5650  0.2035
  112OSM   H11S11637   2.338   0.683   9.692  0.2094 -0.5899  0.6896
  112OSM   H11T11638   2.315   0.520   9.762 -1.9009  3.4477  2.4918
  112OSM   C12S11639   2.428   0.530   9.579  0.5788  0.3858  0.6395
  112OSM   H12S11640   2.512   0.458   9.587  1.4380  1.0963 -1.3227
  112OSM   H12T11641   2.459   0.606   9.504 -2.4477 -0.4628 -1.6662
  112OSM   C13S11642   2.317   0.455   9.503 -0.2825  0.1098 -0.4539
  112OSM   H13S11643   2.217   0.498   9.524  0.3109  2.0753 -1.3883
  112OSM   H13T11644   2.313   0.355   9.552  0.3206  0.0409 -0.5394
  112OSM   C14S11645   2.335   0.454   9.350 -0.0876 -0.1959  0.0655
  112OSM   H14S11646   2.411   0.378   9.322  0.1452  0.1721 -0.3085
  112OSM   H14T11647   2.367   0.556   9.318 -0.1400  0.5198  2.1431
  112OSM   C15S11648   2.222   0.390   9.270 -0.2369  0.3137  0.2797
  112OSM   H15S11649   2.169   0.321   9.341  0.8373 -0.5952  0.2183
  112OSM   H15T11650   2.263   0.327   9.189 -0.3268  0.7014 -0.0679
  112OSM   C16S11651   2.121   0.493   9.226 -0.2108  0.0314  0.0659
  112OSM   H16S11652   2.093   0.563   9.308 -2.5753  0.2802 -0.8605
  112OSM   H16T11653   2.018   0.455   9.210 -0.5814  0.3185  1.5675
  112OSM   C17S11654   2.165   0.568   9.101 -0.1948 -0.5388  0.2995
  112OSM   H17S11655   2.191   0.503   9.015  0.8165  0.4421 -0.1574
  112OSM   H17T11656   2.259   0.618   9.134 -0.1335 -1.7296  2.0808
  112OSM   C18S11657   2.067   0.677   9.056 -0.8588  0.6726  0.3143
  112OSM   H18S11658   1.964   0.638   9.045 -0.8218  0.7527 -0.2984
  112OSM   H18T11659   2.099   0.713   8.956  1.9202  0.2315  0.9519
  112OSM   H18U11660   2.074   0.772   9.113 -0.6948  2.9819 -3.2923
  112OSM    C1F11661   2.941   1.047  10.544  0.1921 -0.3920  0.2219
  112OSM     OF11662   2.993   0.947  10.588 -0.1977  0.0066 -0.6888
  112OSM    C2F11663   3.019   1.166  10.483  0.3525  0.0703 -0.1897
  112OSM    H2F11664   3.095   1.188  10.561  0.8024 -0.5271 -0.4591
  112OSM    H2G11665   2.953   1.253  10.462 -0.6427 -0.5773  0.1652
  112OSM    C3F11666   3.094   1.140  10.350  0.0510 -0.2256  0.7663
  112OSM    H3F11667   3.168   1.058  10.344  0.8650  0.3979  1.9621
  112OSM    H3G11668   3.143   1.232  10.313 -0.0141 -0.6072 -0.3126
  112OSM    C4F11669   2.992   1.126  10.227 -0.1722  0.2600 -0.3675
  112OSM    H4F11670   2.969   1.232  10.203  2.5683  0.8356 -0.7508
  112OSM    H4G11671   2.904   1.071  10.268  0.3496  0.4081  0.9904
  112OSM    C5F11672   3.061   1.060  10.105 -0.1058  0.6164 -0.5786
  112OSM    H5F11673   3.123   0.971  10.128  0.2328  0.5740 -1.5740
  112OSM    H5G11674   3.138   1.117  10.049  0.5798 -1.7851 -2.2473
  112OSM    C6F11675   2.958   1.019  10.007  0.4892 -0.2275  0.3083
  112OSM    H6F11676   2.908   1.104   9.954 -2.7281 -0.5796  2.5183
  112OSM    H6G11677   2.871   0.973  10.059 -0.1159  1.1798  0.5802
  112OSM    C7F11678   3.013   0.935   9.884  0.6225 -0.4110  0.1340
  112OSM    H7F11679   3.051   0.836   9.919 -1.4301 -1.6521 -0.9461
  112OSM    H7G11680   3.102   0.990   9.848 -1.2302  1.0782 -2.4117
  112OSM    C8F11681   2.912   0.897   9.768  0.2379  0.1642 -0.5852
  112OSM    H8F11682   2.813   0.878   9.814 -0.1236  1.7896 -0.6304
  112OSM    H8G11683   2.953   0.801   9.730 -0.3782 -0.3161 -0.0573
  112OSM    C9F11684   2.906   1.006   9.665  0.1464 -0.0382 -0.0274
  112OSM    H9F11685   2.913   1.107   9.709  0.5827  0.5353 -1.3799
  112OSM   C10F11686   2.905   0.986   9.534 -0.8913 -0.4372  0.3969
  112OSM   H10F11687   2.883   1.077   9.477 -2.4705  0.3123  2.1182
  112OSM   C11F11688   2.904   0.856   9.453  0.2385  0.9498 -0.3436
  112OSM   H11F11689   2.955   0.777   9.512 -0.5921  0.0463 -0.8010
  112OSM   H11G11690   2.959   0.881   9.359 -0.1907 -1.6241 -1.3626
  112OSM   C12F11691   2.753   0.826   9.419 -0.1568 -0.2500 -0.7422
  112OSM   H12F11692   2.704   0.915   9.373  1.4554  0.0282 -2.0191
  112OSM   H12G11693   2.688   0.800   9.505 -1.7977 -1.2115 -2.2200
  112OSM   C13F11694   2.746   0.703   9.323  0.7567  0.0219 -1.0899
  112OSM   H13F11695   2.639   0.676   9.309  0.3872  1.0117 -0.2402
  112OSM   H13G11696   2.781   0.617   9.384 -1.0008 -0.1507 -0.2697
  112OSM   C14F11697   2.813   0.710   9.192  0.2343  0.4064 -0.7413
  112OSM   H14F11698   2.812   0.619   9.128  2.0400  0.2861 -0.6474
  112OSM   H14G11699   2.920   0.723   9.219  0.0293  1.9495 -0.5926
  112OSM   C15F11700   2.775   0.836   9.111 -0.0194 -0.0527 -0.2394
  112OSM   H15F11701   2.789   0.921   9.181 -0.6374 -0.4555  0.3816
  112OSM   H15G11702   2.664   0.839   9.099 -0.0030  1.0038 -0.2119
  112OSM   C16F11703   2.865   0.847   8.985 -0.4770 -0.2417 -0.1767
  112OSM   H16F11704   2.829   0.778   8.906  0.5505 -0.0161 -0.8656
  112OSM   H16G11705   2.969   0.810   9.000 -0.5113 -0.2391  0.0793
  112OSM   C17F11706   2.875   0.979   8.915 -0.8752  0.1119  0.3791
  112OSM   H17F11707   2.779   1.015   8.872  0.4003  0.7147 -2.1941
  112OSM   H17G11708   2.931   0.955   8.822  0.5199 -0.8038  1.4188
  112OSM   C18F11709   2.931   1.098   8.990 -0.7083 -0.2737  0.0654
  112OSM   H18F11710   2.872   1.117   9.082 -0.9727 -4.0415  0.8221
  112OSM   H18G11711   2.914   1.190   8.930  0.5234 -0.3155 -0.3649
  112OSM   H18H11712   3.040   1.099   9.009 -0.8062 -1.7935  0.8075
  113OSM      N11713   4.617   3.324  10.718  0.1564 -0.3671  0.5869
  113OSM    C1511714   4.735   3.329  10.622  0.2268  0.5636  0.2407
  113OSM   H15A11715   4.750   3.232  10.577 -1.4801  1.2934 -2.1288
  113OSM   H15B11716   4.829   3.343  10.673  0.7586 -0.6142 -0.3815
  113OSM   H15C11717   4.721   3.390  10.534 -0.6915 -2.4164 -1.8258
  113OSM    C1411718   4.598   3.457  10.780 -0.1439  0.8242 -0.1615
  113OSM   H14A11719   4.691   3.488  10.826  0.8304 -0.8840 -0.9174
  113OSM   H14B11720   4.508   3.475  10.837 -1.0786 -0.6111 -1.1398
  113OSM   H14C11721   4.582   3.525  10.697  0.6603 -0.2411 -1.2189
  113OSM    C1311722   4.492   3.283  10.653  0.4405 -0.3025 -0.0732
  113OSM   H13A11723   4.459   3.355  10.580 -0.1599 -0.6117 -0.1156
  113OSM   H13B11724   4.413   3.284  10.728 -3.3588 -0.8313 -3.6976
  113OSM   H13C11725   4.495   3.187  10.605 -4.7977 -0.2328 -1.1731
  113OSM    C1211726   4.635   3.224  10.836  0.2129  0.5218 -0.4575
  113OSM   H12A11727   4.546   3.233  10.896  2.5893  1.3025  3.2510
  113OSM   H12B11728   4.707   3.260  10.907 -0.8134  0.2056  0.7790
  113OSM    C1111729   4.648   3.079  10.794  0.0038 -0.1966  0.2388
  113OSM   H11A11730   4.731   3.072  10.721  0.4398 -1.8035  0.8487
  113OSM   H11B11731   4.555   3.056  10.738  0.2964 -0.7190 -0.0411
  113OSM      P11732   4.776   2.983  10.997 -0.4431 -0.2447 -0.1575
  113OSM    O1311733   4.772   3.115  11.069  0.1320 -0.2640  0.4308
  113OSM    O1411734   4.757   2.863  11.076  0.0575 -0.0776 -0.3026
  113OSM    O1111735   4.910   2.974  10.911  0.1504  0.2258  0.2833
  113OSM    O1211736   4.662   2.986  10.892  0.3141  0.4025 -0.3966
  113OSM    C1S11737   4.935   2.887  10.803  0.0958 -0.1078 -0.3062
  113OSM    H1S11738   4.849   2.825  10.769 -0.8768  0.3921  1.1383
  113OSM    H1T11739   5.025   2.829  10.833  1.2603  0.8271 -1.8353
  113OSM     NF11740   5.068   2.883  10.592 -0.9566 -0.0211  0.2302
  113OSM    HNF11741   5.164   2.901  10.575 -0.5760 -1.7922  0.2776
  113OSM    C2S11742   4.997   2.967  10.682  0.3375  0.5996 -0.0143
  113OSM    H2S11743   4.925   3.027  10.622  1.1157  1.3604 -0.2141
  113OSM    C3S11744   5.076   3.102  10.727 -0.7731 -0.2661 -0.0220
  113OSM    H3S11745   5.154   3.073  10.800 -0.3213  0.0935 -0.3563
  113OSM     O311746   5.001   3.203  10.794  0.1228  0.3000  0.3330
  113OSM    HO311747   4.907   3.184  10.789 -0.1809  1.9501 -0.8721
  113OSM    C4S11748   5.137   3.167  10.598 -0.2972 -0.2578  0.2659
  113OSM    H4S11749   5.059   3.164  10.521 -1.1923 -0.4213  1.1627
  113OSM    C5S11750   5.262   3.218  10.586 -0.8081 -0.8675 -0.0490
  113OSM    H5S11751   5.333   3.227  10.670 -0.4568  0.7642 -0.4871
  113OSM    C6S11752   5.313   3.270  10.454 -0.0918  0.2554 -0.4153
  113OSM    H6S11753   5.399   3.203  10.430  0.9004  0.8907  1.1926
  113OSM    H6T11754   5.358   3.372  10.459  0.0169  0.1764  0.3048
  113OSM    C7S11755   5.220   3.261  10.328  0.0856  1.0791  0.4404
  113OSM    H7S11756   5.131   3.327  10.338 -0.4111  1.1709 -3.2629
  113OSM    H7T11757   5.176   3.161  10.308 -0.2018  1.3695 -0.4101
  113OSM    C8S11758   5.299   3.293  10.201 -0.9662  0.6646  0.6261
  113OSM    H8S11759   5.362   3.204  10.182 -0.9980 -0.3758  4.5810
  113OSM    H8T11760   5.366   3.380  10.218  0.7625 -0.3290 -0.8581
  113OSM    C9S11761   5.202   3.299  10.080 -0.2242  0.6081  0.4734
  113OSM    H9S11762   5.123   3.367  10.117 -2.8270 -1.9175 -0.0289
  113OSM    H9T11763   5.148   3.202  10.075  0.8546  0.0265 -0.3997
  113OSM   C10S11764   5.272   3.346   9.951 -0.3870 -0.2748  0.5598
  113OSM   H10S11765   5.347   3.266   9.932  0.1426  0.3019  0.1793
  113OSM   H10T11766   5.307   3.446   9.984  0.6087  0.0234 -1.2559
  113OSM   C11S11767   5.176   3.367   9.832  0.4695  0.1419  0.1422
  113OSM   H11S11768   5.109   3.454   9.850 -0.1690 -0.0277 -1.3188
  113OSM   H11T11769   5.114   3.279   9.807  1.3441 -0.0031 -1.6541
  113OSM   C12S11770   5.261   3.420   9.710  0.0560 -0.4426 -0.1527
  113OSM   H12S11771   5.338   3.347   9.678  0.8108  0.9154 -1.5453
  113OSM   H12T11772   5.313   3.514   9.737 -1.2426  0.6441 -1.3083
  113OSM   C13S11773   5.182   3.459   9.587  0.0324 -0.2212  0.5524
  113OSM   H13S11774   5.189   3.569   9.574  1.3295  0.0027  2.6419
  113OSM   H13T11775   5.072   3.441   9.592 -0.0158 -0.0993 -0.0322
  113OSM   C14S11776   5.239   3.396   9.460  0.8962 -0.4566 -0.0037
  113OSM   H14S11777   5.219   3.287   9.466  0.2702 -0.3503 -0.0701
  113OSM   H14T11778   5.349   3.410   9.455  0.7788  1.0322  0.9022
  113OSM   C15S11779   5.162   3.450   9.340  0.0827  0.3962 -0.2753
  113OSM   H15S11780   5.148   3.559   9.355 -0.0823  0.2727  0.5011
  113OSM   H15T11781   5.054   3.425   9.332  0.1622  0.0001 -0.1615
  113OSM   C16S11782   5.221   3.434   9.202 -0.0136 -0.4197 -0.1151
  113OSM   H16S11783   5.216   3.328   9.170  2.6832  0.3196 -3.6968
  113OSM   H16T11784   5.331   3.441   9.219  0.0436 -1.4700  0.0163
  113OSM   C17S11785   5.175   3.527   9.099  0.8179  0.6001 -0.2425
  113OSM   H17S11786   5.166   3.631   9.139  1.7866  0.0060  1.6421
  113OSM   H17T11787   5.071   3.503   9.069  0.8978  1.2888 -1.0918
  113OSM   C18S11788   5.258   3.501   8.975  0.3448 -0.9768  0.7421
  113OSM   H18S11789   5.365   3.508   9.004  0.6444  0.4014 -0.5817
  113OSM   H18T11790   5.240   3.575   8.895  1.0703 -1.5575  0.0343
  113OSM   H18U11791   5.242   3.398   8.939  2.3418 -1.3590  0.8424
  113OSM    C1F11792   5.009   2.773  10.533 -1.4956  0.4091 -0.8789
  113OSM     OF11793   4.891   2.750  10.547 -0.4063 -0.2468  0.4574
  113OSM    C2F11794   5.096   2.684  10.446  0.0499 -0.5728  0.3443
  113OSM    H2F11795   5.123   2.589  10.498  0.3241 -0.5475  0.2467
  113OSM    H2G11796   5.190   2.737  10.420 -0.2151 -0.6307 -0.7552
  113OSM    C3F11797   5.013   2.653  10.321 -0.3997  0.3108 -0.0809
  113OSM    H3F11798   4.999   2.744  10.257  3.9623  0.3070 -1.3816
  113OSM    H3G11799   4.917   2.607  10.352  0.3826  0.4128  2.7513
  113OSM    C4F11800   5.093   2.551  10.233 -0.7031 -0.0122  0.4342
  113OSM    H4F11801   5.122   2.466  10.299  0.1885 -1.3183 -1.5658
  113OSM    H4G11802   5.180   2.604  10.188 -1.2131 -0.1489 -0.7240
  113OSM    C5F11803   5.035   2.492  10.111  0.1147 -0.2387 -0.1189
  113OSM    H5F11804   4.933   2.533  10.098 -0.4919 -0.5754  2.8420
  113OSM    H5G11805   5.027   2.382  10.126 -2.1650 -0.3464 -1.6988
  113OSM    C6F11806   5.109   2.524   9.981 -0.0773 -0.0304  0.3706
  113OSM    H6F11807   5.209   2.474   9.979 -0.6885 -1.4621 -3.5612
  113OSM    H6G11808   5.118   2.634   9.967  2.0839 -0.3588 -1.5237
  113OSM    C7F11809   5.038   2.468   9.861 -0.0876  0.2911 -0.2467
  113OSM    H7F11810   4.933   2.503   9.857 -0.4201 -0.8204 -2.7242
  113OSM    H7G11811   5.044   2.359   9.879 -0.0745  0.3416  0.0554
  113OSM    C8F11812   5.100   2.514   9.726  0.5591 -0.7053  0.5506
  113OSM    H8F11813   5.093   2.625   9.729  0.3817 -0.7128  0.4621
  113OSM    H8G11814   5.027   2.470   9.655  1.3412 -2.7806  0.9691
  113OSM    C9F11815   5.238   2.473   9.690 -0.6759 -0.1246  0.5828
  113OSM    H9F11816   5.308   2.453   9.772 -0.1461  1.3136  0.4981
  113OSM   C10F11817   5.287   2.469   9.567  0.1506 -0.2294 -0.2393
  113OSM   H10F11818   5.395   2.446   9.560  0.3158  0.7369 -1.1538
  113OSM   C11F11819   5.221   2.508   9.438  0.7190  0.2185  0.1593
  113OSM   H11F11820   5.286   2.576   9.379  0.6740  0.7328  0.6881
  113OSM   H11G11821   5.125   2.564   9.441 -0.9958 -2.4691 -1.1987
  113OSM   C12F11822   5.190   2.377   9.356  0.0893 -0.1555 -0.0681
  113OSM   H12F11823   5.129   2.306   9.417 -0.0835  0.6059  0.6719
  113OSM   H12G11824   5.290   2.334   9.333 -0.5275 -1.2518 -0.8209
  113OSM   C13F11825   5.103   2.408   9.232 -0.1695  0.7820  0.8218
  113OSM   H13F11826   5.170   2.481   9.183  3.9065 -4.0727 -1.8500
  113OSM   H13G11827   5.007   2.454   9.266 -0.8827  0.1569 -0.2893
  113OSM   C14F11828   5.092   2.288   9.146 -0.3547  0.1753 -0.3035
  113OSM   H14F11829   5.060   2.197   9.202  0.1966 -1.8441 -3.0550
  113OSM   H14G11830   5.195   2.274   9.108 -0.2618  0.0578 -0.0095
  113OSM   C15F11831   4.997   2.304   9.020 -0.2635 -0.1199  0.0991
  113OSM   H15F11832   4.892   2.319   9.053  0.1266 -1.2523  1.9995
  113OSM   H15G11833   5.001   2.203   8.975  0.0877 -0.4857  0.9240
  113OSM   C16F11834   5.037   2.425   8.931 -0.0528 -0.6746 -0.0527
  113OSM   H16F11835   5.147   2.411   8.920  0.2916  1.1035  0.7684
  113OSM   H16G11836   5.013   2.515   8.991  1.4052 -1.0271  1.1182
  113OSM   C17F11837   4.961   2.429   8.794  1.0378  0.2343  0.3022
  113OSM   H17F11838   4.856   2.441   8.829  1.0691 -0.3252  0.6101
  113OSM   H17G11839   4.963   2.331   8.741 -1.0093  0.7686 -0.8766
  113OSM   C18F11840   5.000   2.539   8.696 -0.3549 -0.0690  0.0078
  113OSM   H18F11841   4.909   2.547   8.632 -0.7582 -2.2255  0.2443
  113OSM   H18G11842   5.095   2.522   8.641  1.1722 -0.3600  2.5925
  113OSM   H18H11843   5.015   2.637   8.746  2.0113 -0.4381  0.1260
  114OSM      N11844   2.006   5.483  11.215 -0.3849  0.2704  0.2044
  114OSM    C1511845   2.121   5.387  11.228 -0.0529  0.6104 -0.0860
  114OSM   H15A11846   2.133   5.323  11.142  0.1999  1.6106 -0.8049
  114OSM   H15B11847   2.085   5.313  11.298 -1.6564  0.2255 -1.2532
  114OSM   H15C11848   2.212   5.434  11.262  0.6019 -0.9109  0.3460
  114OSM    C1411849   1.884   5.404  11.202 -0.1799  0.1956 -0.4804
  114OSM   H14A11850   1.872   5.333  11.282  1.2354 -0.9655 -1.2428
  114OSM   H14B11851   1.898   5.350  11.109  1.4631  0.3834 -0.3684
  114OSM   H14C11852   1.790   5.458  11.204 -0.0773  0.4337 -1.5667
  114OSM    C1311853   2.004   5.559  11.347  0.1741 -0.2999  0.6248
  114OSM   H13A11854   2.104   5.594  11.370  0.8515  0.0600 -2.4505
  114OSM   H13B11855   1.970   5.493  11.425  0.7384 -1.2773  0.0533
  114OSM   H13C11856   1.940   5.644  11.329  0.1210 -0.3795  0.4326
  114OSM    C1211857   2.035   5.574  11.101 -0.0211  0.8687  0.0196
  114OSM   H12A11858   2.126   5.633  11.101  1.0014 -0.6708  0.7914
  114OSM   H12B11859   1.961   5.651  11.116  0.1957  0.5837  2.9624
  114OSM    C1111860   2.005   5.512  10.959 -0.1309  0.6325 -0.1487
  114OSM   H11A11861   2.056   5.414  10.950 -1.6465 -0.3242  1.2102
  114OSM   H11B11862   2.049   5.570  10.875  1.5580 -1.6926 -0.9700
  114OSM      P11863   1.764   5.600  10.903  0.0264 -0.2687  0.1996
  114OSM    O1311864   1.631   5.558  10.954  0.3764  0.1832 -0.1639
  114OSM    O1411865   1.820   5.729  10.951 -0.4861  0.4061 -0.4629
  114OSM    O1111866   1.755   5.602  10.747  0.1711  0.3726  0.0367
  114OSM    O1211867   1.869   5.488  10.938  0.2248  0.0411  0.4737
  114OSM    C1S11868   1.806   5.501  10.658 -0.0174 -0.5950  0.2937
  114OSM    H1S11869   1.813   5.408  10.717 -0.7690 -0.2596  0.9274
  114OSM    H1T11870   1.909   5.538  10.636 -0.2416  0.8057  1.4174
  114OSM     NF11871   1.791   5.418  10.423 -0.1654  0.3063 -0.1175
  114OSM    HNF11872   1.761   5.442  10.331 -0.2154 -0.6739 -0.3702
  114OSM    C2S11873   1.714   5.475  10.531 -0.2481 -0.1656 -0.0209
  114OSM    H2S11874   1.638   5.400  10.560 -0.0019 -0.4283 -0.0526
  114OSM    C3S11875   1.646   5.606  10.487 -0.3651 -0.2218 -0.4868
  114OSM    H3S11876   1.721   5.683  10.460 -0.0035 -0.5680 -0.4770
  114OSM     O311877   1.567   5.665  10.587  0.9417  0.0833  0.6334
  114OSM    HO311878   1.559   5.619  10.671  0.1966 -2.9080 -0.9487
  114OSM    C4S11879   1.563   5.585  10.364 -0.1799  0.1793 -0.5048
  114OSM    H4S11880   1.496   5.498  10.360  0.4315 -0.3300  0.1971
  114OSM    C5S11881   1.553   5.681  10.270  0.0520  0.4628 -0.8075
  114OSM    H5S11882   1.605   5.775  10.293 -1.1992  0.9252  0.2298
  114OSM    C6S11883   1.472   5.660  10.150 -0.3546 -0.6070 -0.1748
  114OSM    H6S11884   1.418   5.755  10.130  1.5604  0.6156  0.1749
  114OSM    H6T11885   1.401   5.575  10.163 -0.2410 -0.5315  1.0748
  114OSM    C7S11886   1.559   5.617  10.024  0.0065  0.2998 -0.3551
  114OSM    H7S11887   1.616   5.525  10.047 -0.0952  0.0044 -1.2370
  114OSM    H7T11888   1.625   5.698   9.986  0.0385  0.5638  0.2505
  114OSM    C8S11889   1.468   5.565   9.907 -0.5524 -0.1589 -0.0373
  114OSM    H8S11890   1.391   5.641   9.881 -0.0770  0.3482  0.0253
  114OSM    H8T11891   1.416   5.478   9.953  0.1201 -0.1670  0.7436
  114OSM    C9S11892   1.540   5.516   9.784 -0.3287  0.2724 -0.2834
  114OSM    H9S11893   1.615   5.436   9.806  0.0283  0.6615 -0.0778
  114OSM    H9T11894   1.605   5.599   9.748  1.4480 -1.1403 -0.4986
  114OSM   C10S11895   1.451   5.477   9.667  0.8836 -0.5727  0.0448
  114OSM   H10S11896   1.358   5.538   9.662  0.0403 -1.6344  1.8287
  114OSM   H10T11897   1.418   5.371   9.667 -1.1556 -0.0257 -2.2636
  114OSM   C11S11898   1.529   5.501   9.535  0.6774 -0.2494  0.3567
  114OSM   H11S11899   1.611   5.426   9.528 -0.9644 -1.9894 -2.2973
  114OSM   H11T11900   1.564   5.606   9.533  0.4870 -0.1632  1.2013
  114OSM   C12S11901   1.442   5.459   9.414 -0.0785  0.0156  0.1176
  114OSM   H12S11902   1.350   5.521   9.413 -1.3959 -1.8697  0.8375
  114OSM   H12T11903   1.413   5.353   9.429 -1.4973  0.2210 -0.9654
  114OSM   C13S11904   1.517   5.476   9.281 -0.5121 -0.0031 -0.5367
  114OSM   H13S11905   1.608   5.413   9.281 -2.4104 -3.1545  2.6227
  114OSM   H13T11906   1.550   5.581   9.264 -0.6261  0.0994 -0.1313
  114OSM   C14S11907   1.434   5.443   9.161  0.3085  0.2708 -0.5342
  114OSM   H14S11908   1.396   5.339   9.165  1.1313 -0.1141 -2.0224
  114OSM   H14T11909   1.506   5.442   9.076  1.3682 -0.6724  0.3395
  114OSM   C15S11910   1.329   5.553   9.138  0.0658  0.3775  0.5235
  114OSM   H15S11911   1.382   5.650   9.129 -2.0006  1.5701  0.4188
  114OSM   H15T11912   1.261   5.559   9.226  0.9433 -1.9466  1.4469
  114OSM   C16S11913   1.246   5.535   9.009 -0.2015  0.0879 -1.2233
  114OSM   H16S11914   1.164   5.462   9.024 -0.7591  0.4152 -2.5115
  114OSM   H16T11915   1.315   5.511   8.926  1.2475  3.1007 -1.0389
  114OSM   C17S11916   1.168   5.654   8.945 -0.0401 -0.4180  0.2569
  114OSM   H17S11917   1.079   5.688   9.002 -0.4806 -0.8676 -0.1526
  114OSM   H17T11918   1.130   5.615   8.848  1.8631 -1.3236 -0.1856
  114OSM   C18S11919   1.257   5.775   8.920  0.3075  0.0878  0.0533
  114OSM   H18S11920   1.196   5.854   8.870  0.4550  0.8270  1.0207
  114OSM   H18T11921   1.347   5.750   8.859  1.4820 -0.6570  2.0238
  114OSM   H18U11922   1.292   5.817   9.017 -0.6535  2.7257 -0.6415
  114OSM    C1F11923   1.857   5.301  10.437 -0.1475 -0.3051 -0.4186
  114OSM     OF11924   1.878   5.256  10.549  0.2337  0.2304 -0.0341
  114OSM    C2F11925   1.913   5.241  10.310 -0.2919  0.0949 -0.5955
  114OSM    H2F11926   1.856   5.145  10.300 -1.4233  0.4613  1.7314
  114OSM    H2G11927   2.018   5.208  10.320 -0.4423  0.0824  1.2334
  114OSM    C3F11928   1.899   5.337  10.191  0.9187 -0.0492  0.0227
  114OSM    H3F11929   1.964   5.427  10.200 -0.5796  1.2501 -1.3928
  114OSM    H3G11930   1.794   5.373  10.183  0.3848 -1.5654 -0.1160
  114OSM    C4F11931   1.924   5.271  10.056 -0.4841 -0.0211 -0.1605
  114OSM    H4F11932   1.867   5.175  10.059 -0.9121  0.1439 -1.8445
  114OSM    H4G11933   2.031   5.245  10.045 -0.2871  1.4937 -2.5308
  114OSM    C5F11934   1.893   5.350   9.929  0.4484  0.3511  0.3858
  114OSM    H5F11935   1.964   5.435   9.929 -0.1496  0.8661  0.7864
  114OSM    H5G11936   1.787   5.385   9.933  0.1557 -0.3485 -0.6179
  114OSM    C6F11937   1.916   5.250   9.819  0.0589  0.1831 -0.1383
  114OSM    H6F11938   1.841   5.169   9.823  0.8643 -0.7327 -2.0490
  114OSM    H6G11939   2.020   5.211   9.827 -0.0586 -0.3763 -1.1417
  114OSM    C7F11940   1.899   5.315   9.683 -0.5550 -0.2403 -0.2553
  114OSM    H7F11941   1.991   5.372   9.659 -0.5585 -0.6013 -1.1907
  114OSM    H7G11942   1.812   5.384   9.696 -1.1162 -1.0765  0.5288
  114OSM    C8F11943   1.848   5.227   9.573  0.0864  0.0625 -0.3744
  114OSM    H8F11944   1.809   5.293   9.492 -0.1100 -1.1212 -1.2701
  114OSM    H8G11945   1.765   5.164   9.609  1.3756 -1.6389 -0.2681
  114OSM    C9F11946   1.965   5.161   9.512  0.3281  0.3692 -0.2596
  114OSM    H9F11947   2.056   5.162   9.573  0.8332 -0.8008 -0.9705
  114OSM   C10F11948   1.965   5.091   9.395 -0.4080  0.1608  0.3713
  114OSM   H10F11949   2.059   5.042   9.367 -1.8704 -1.3952 -2.1387
  114OSM   C11F11950   1.850   5.058   9.299 -0.6071 -0.1891 -0.0621
  114OSM   H11F11951   1.753   5.089   9.345 -0.9159 -1.2484  0.0265
  114OSM   H11G11952   1.838   4.950   9.278  0.8805 -0.2100 -0.9227
  114OSM   C12F11953   1.882   5.144   9.168  0.7342 -0.7516 -0.0848
  114OSM   H12F11954   1.979   5.112   9.124  1.4440 -0.7681  1.4397
  114OSM   H12G11955   1.881   5.254   9.189 -0.1233 -0.9152  0.8451
  114OSM   C13F11956   1.768   5.103   9.066 -0.0231  0.2408  0.8096
  114OSM   H13F11957   1.670   5.126   9.112  0.1818  1.6625  0.5768
  114OSM   H13G11958   1.772   4.993   9.052  0.0194  0.5426 -2.2975
  114OSM   C14F11959   1.787   5.159   8.921 -0.2625  0.2071 -0.1149
  114OSM   H14F11960   1.722   5.103   8.850 -0.0569  1.1312 -1.0537
  114OSM   H14G11961   1.894   5.135   8.903 -0.3888 -1.5117  1.1492
  114OSM   C15F11962   1.770   5.313   8.908 -0.4959  0.8756  0.0574
  114OSM   H15F11963   1.854   5.354   8.848 -0.1089  0.5283  0.3434
  114OSM   H15G11964   1.789   5.347   9.012  0.4706  0.2320  0.1098
  114OSM   C16F11965   1.643   5.358   8.845 -0.3683 -0.1496 -0.1542
  114OSM   H16F11966   1.629   5.468   8.836 -1.7302 -0.3998 -1.5004
  114OSM   H16G11967   1.563   5.319   8.912  0.5193 -0.6005  0.6526
  114OSM   C17F11968   1.599   5.305   8.710 -0.6059  0.1446 -0.0191
  114OSM   H17F11969   1.595   5.195   8.716 -1.0968  0.2123  1.1259
  114OSM   H17G11970   1.680   5.344   8.644  0.1129 -0.3577  0.5476
  114OSM   C18F11971   1.458   5.366   8.662  0.3010  0.4773 -0.4680
  114OSM   H18F11972   1.425   5.297   8.581  2.8625 -0.2053 -1.0137
  114OSM   H18G11973   1.475   5.466   8.617  0.7612  1.6222  2.1236
  114OSM   H18H11974   1.383   5.377   8.743 -0.1275 -1.0980 -0.6149
  115OSM      N11975   3.084   3.882  11.326 -0.4978 -0.2625 -0.5139
  115OSM    C1511976   3.194   3.777  11.341  0.1142 -0.2352 -0.1595
  115OSM   H15A11977   3.276   3.809  11.404 -2.3562  2.8305  1.7986
  115OSM   H15B11978   3.232   3.760  11.242 -0.3098  0.6328 -0.4829
  115OSM   H15C11979   3.160   3.684  11.384  2.4099 -0.4636  1.3729
  115OSM    C1411980   2.964   3.814  11.265 -0.3165  0.0589 -0.2363
  115OSM   H14A11981   2.979   3.790  11.161  1.4844 -3.2887  0.6538
  115OSM   H14B11982   2.882   3.884  11.268  0.7852  1.4840 -1.6620
  115OSM   H14C11983   2.941   3.723  11.319 -1.9523  0.6357  0.1051
  115OSM    C1311984   3.044   3.937  11.464 -0.9999 -0.3196 -0.4620
  115OSM   H13A11985   3.132   3.958  11.523 -1.0963 -0.6688 -0.1883
  115OSM   H13B11986   2.977   3.873  11.520 -0.5843 -1.8861 -1.7033
  115OSM   H13C11987   2.995   4.033  11.459  0.3813  0.3570 -1.7177
  115OSM    C1211988   3.131   4.003  11.250 -0.7253 -0.1358  0.0479
  115OSM   H12A11989   3.166   3.968  11.154  0.0487  2.0368 -0.5285
  115OSM   H12B11990   3.216   4.058  11.288 -1.9365  0.6344  1.7876
  115OSM    C1111991   3.023   4.111  11.223 -0.4337  0.8354 -0.2169
  115OSM   H11A11992   3.005   4.157  11.323 -1.3020  1.8841 -0.8331
  115OSM   H11B11993   2.938   4.063  11.171  1.8963 -1.0688 -2.5481
  115OSM      P11994   3.013   4.333  11.093 -0.2632 -0.1171  0.2413
  115OSM    O1311995   2.905   4.290  11.002 -0.8687  0.2329  0.1132
  115OSM    O1411996   2.986   4.426  11.211 -0.4350 -0.1004 -0.5271
  115OSM    O1111997   3.114   4.414  11.005 -0.0307 -0.3143  0.0064
  115OSM    O1211998   3.096   4.207  11.131 -0.7128  0.4261 -0.2894
  115OSM    C1S11999   3.209   4.351  10.907 -0.0627 -0.1619  0.7644
  115OSM    H1S12000   3.168   4.249  10.890 -0.9677  0.3018  0.0364
  115OSM    H1T12001   3.312   4.330  10.943  0.5701 -0.2310 -1.0077
  115OSM     NF12002   3.262   4.345  10.668 -0.7072  0.0356  0.1106
  115OSM    HNF12003   3.345   4.368  10.616 -0.1343  1.3862  1.5459
  115OSM    C2S12004   3.220   4.429  10.776 -0.2024 -0.3326 -0.6098
  115OSM    H2S12005   3.114   4.458  10.760  0.3502  1.3527 -1.4272
  115OSM    C3S12006   3.294   4.555  10.810 -0.4972 -0.8392  0.6653
  115OSM    H3S12007   3.404   4.537  10.816 -0.7630 -3.9498 -1.6364
  115OSM     O312008   3.258   4.632  10.924 -0.2107  0.1227  0.0939
  115OSM    HO312009   3.199   4.570  10.968 -0.9231  0.4490 -0.3654
  115OSM    C4S12010   3.298   4.651  10.686  0.0500 -0.8601  0.2091
  115OSM    H4S12011   3.395   4.658  10.636  1.4519  2.2595  3.0609
  115OSM    C5S12012   3.193   4.730  10.647 -1.0486 -0.3903  0.1318
  115OSM    H5S12013   3.106   4.730  10.715 -2.1136 -0.3744 -1.1670
  115OSM    C6S12014   3.202   4.830  10.541 -0.3943  0.1877 -0.5862
  115OSM    H6S12015   3.205   4.932  10.586 -1.8712 -0.0779  0.1813
  115OSM    H6T12016   3.105   4.823  10.486 -1.5251  0.5545  1.2928
  115OSM    C7S12017   3.322   4.824  10.440  0.1754  0.0966  0.4923
  115OSM    H7S12018   3.319   4.737  10.371  1.0706  1.0547 -0.8017
  115OSM    H7T12019   3.417   4.836  10.497  0.9945 -0.0805 -0.7885
  115OSM    C8S12020   3.321   4.937  10.345  0.0960 -0.3973  0.4252
  115OSM    H8S12021   3.316   5.033  10.400  1.9920  1.0914 -1.8364
  115OSM    H8T12022   3.230   4.924  10.281 -0.0433  0.1866  0.4988
  115OSM    C9S12023   3.443   4.951  10.245 -0.3556 -0.0017 -0.6079
  115OSM    H9S12024   3.461   4.848  10.207  1.3281  0.5930 -1.5369
  115OSM    H9T12025   3.525   4.986  10.311 -1.7198  1.9574  0.1510
  115OSM   C10S12026   3.418   5.062  10.139  0.4350  0.2622 -0.2055
  115OSM   H10S12027   3.415   5.157  10.196 -0.5228  0.3851 -0.4490
  115OSM   H10T12028   3.316   5.053  10.096  0.6032 -0.0530 -0.5386
  115OSM   C11S12029   3.525   5.054  10.030  0.4027 -0.3631  0.2669
  115OSM   H11S12030   3.557   4.950  10.009 -1.1680 -1.2263  1.8470
  115OSM   H11T12031   3.614   5.099  10.079  0.4185 -1.6528  1.4805
  115OSM   C12S12032   3.505   5.124   9.895  0.4387 -0.2996 -0.1304
  115OSM   H12S12033   3.597   5.147   9.837  1.0704 -3.5072 -0.5920
  115OSM   H12T12034   3.456   5.219   9.926  2.5652  1.1753 -0.9989
  115OSM   C13S12035   3.413   5.046   9.798  0.5503 -0.1185  0.3022
  115OSM   H13S12036   3.314   5.097   9.796  0.1439 -0.8140 -2.6552
  115OSM   H13T12037   3.398   4.940   9.824 -1.8635 -0.0491 -0.5422
  115OSM   C14S12038   3.476   5.058   9.655 -0.1997 -0.0878  0.0760
  115OSM   H14S12039   3.565   4.992   9.652  0.0808  0.3313 -1.2709
  115OSM   H14T12040   3.507   5.162   9.634  2.2583 -0.6717  0.5658
  115OSM   C15S12041   3.383   5.005   9.551 -0.8336  0.0910  0.3074
  115OSM   H15S12042   3.279   5.042   9.565 -0.8096  1.4051 -2.2617
  115OSM   H15T12043   3.367   4.897   9.573  1.5040 -0.4145 -0.2337
  115OSM   C16S12044   3.436   5.022   9.404  0.0081  0.4852  0.5418
  115OSM   H16S12045   3.528   4.960   9.399  0.3160  0.8841  1.1437
  115OSM   H16T12046   3.451   5.132   9.393 -0.8316  0.6817  1.2220
  115OSM   C17S12047   3.329   4.989   9.298 -0.4607  0.7185 -0.2667
  115OSM   H17S12048   3.256   4.913   9.332 -0.8674  1.0319 -0.4398
  115OSM   H17T12049   3.378   4.966   9.200 -2.2880  1.2890 -1.3554
  115OSM   C18S12050   3.256   5.119   9.270 -0.0969 -0.3587 -0.1624
  115OSM   H18S12051   3.161   5.095   9.217 -0.8420  2.1371 -0.0833
  115OSM   H18T12052   3.320   5.184   9.206 -0.2533 -1.5169 -1.5574
  115OSM   H18U12053   3.216   5.171   9.360 -1.8319 -1.2211 -0.3914
  115OSM    C1F12054   3.185   4.248  10.618  0.2697  0.2430  0.5415
  115OSM     OF12055   3.076   4.222  10.669 -0.1992 -0.3267  0.2873
  115OSM    C2F12056   3.256   4.173  10.507 -0.2006  0.3775  0.2545
  115OSM    H2F12057   3.329   4.114  10.566 -2.3564 -1.9479  0.7817
  115OSM    H2G12058   3.307   4.256  10.454 -2.5936  0.0623 -2.8167
  115OSM    C3F12059   3.166   4.089  10.420 -0.2523  0.2672 -0.4298
  115OSM    H3F12060   3.077   4.138  10.375 -1.0578 -2.6368 -2.2963
  115OSM    H3G12061   3.132   3.999  10.475  0.7897  0.0046 -0.1906
  115OSM    C4F12062   3.246   4.022  10.301 -0.5826  0.4412 -0.4758
  115OSM    H4F12063   3.330   3.966  10.346  0.2636  1.7516 -0.3709
  115OSM    H4G12064   3.284   4.109  10.242  1.8732  0.8525  1.5602
  115OSM    C5F12065   3.171   3.930  10.204 -0.1565  0.5926 -0.1124
  115OSM    H5F12066   3.088   3.987  10.156 -0.4069  0.0307 -0.3506
  115OSM    H5G12067   3.136   3.836  10.252 -2.1809  0.2124 -2.1510
  115OSM    C6F12068   3.264   3.881  10.095  0.8164  0.1201  0.1886
  115OSM    H6F12069   3.209   3.796  10.049 -0.7765  1.7420 -1.0288
  115OSM    H6G12070   3.356   3.835  10.137  0.1887 -0.4893  0.9390
  115OSM    C7F12071   3.303   3.986   9.995  0.1906 -0.0742 -0.3606
  115OSM    H7F12072   3.390   4.045  10.032 -1.1167  0.4241  2.1536
  115OSM    H7G12073   3.226   4.061   9.967  1.2880  0.8495 -1.0070
  115OSM    C8F12074   3.355   3.902   9.876 -0.5170  0.3770 -0.4206
  115OSM    H8F12075   3.272   3.833   9.851  0.1807 -0.7064  0.2064
  115OSM    H8G12076   3.433   3.831   9.908 -2.2062 -1.6177 -0.5285
  115OSM    C9F12077   3.390   3.987   9.755 -0.1571  0.3050 -0.5811
  115OSM    H9F12078   3.313   4.000   9.677  0.2817 -0.4817 -1.1560
  115OSM   C10F12079   3.506   4.050   9.728 -0.2509 -0.8026 -0.9640
  115OSM   H10F12080   3.524   4.114   9.641 -0.6365 -0.8590 -1.0854
  115OSM   C11F12081   3.629   4.052   9.819  0.4798  0.4183 -0.2486
  115OSM   H11F12082   3.611   3.992   9.911  1.6480 -0.4656 -0.5596
  115OSM   H11G12083   3.659   4.156   9.845  3.3182 -0.0891 -1.1470
  115OSM   C12F12084   3.751   3.989   9.745  0.3305 -0.6401 -0.7408
  115OSM   H12F12085   3.713   3.912   9.675  0.7491  0.0712 -1.7942
  115OSM   H12G12086   3.822   3.929   9.805  1.0736 -0.8800 -1.8267
  115OSM   C13F12087   3.843   4.099   9.689  0.4053  0.5357 -0.6436
  115OSM   H13F12088   3.927   4.122   9.759  0.4340  1.4536 -0.9694
  115OSM   H13G12089   3.783   4.191   9.676  2.2438  2.1733  1.5271
  115OSM   C14F12090   3.903   4.070   9.563  0.0359  0.8588  0.3822
  115OSM   H14F12091   3.823   4.063   9.487  0.3192  2.1553 -0.0653
  115OSM   H14G12092   3.950   3.970   9.573  0.7896  1.0588 -0.8450
  115OSM   C15F12093   4.000   4.182   9.512 -0.5128 -0.3597  0.8983
  115OSM   H15F12094   4.102   4.165   9.552  0.1708  1.4021  0.0174
  115OSM   H15G12095   3.966   4.284   9.543  1.3709  0.0491  1.7584
  115OSM   C16F12096   4.008   4.177   9.360 -0.4751  0.2943  0.0922
  115OSM   H16F12097   3.905   4.189   9.322 -0.1278  0.4285 -0.8387
  115OSM   H16G12098   4.049   4.083   9.318 -0.7524 -0.0861  0.6753
  115OSM   C17F12099   4.099   4.293   9.313 -0.0713  0.4218  0.7459
  115OSM   H17F12100   4.195   4.282   9.367  0.1217  1.4158  0.6231
  115OSM   H17G12101   4.057   4.388   9.351 -0.6083  0.1100  0.9455
  115OSM   C18F12102   4.116   4.297   9.160 -0.0399  0.7249  0.3256
  115OSM   H18F12103   4.019   4.329   9.117  0.8120  1.7502 -0.9503
  115OSM   H18G12104   4.166   4.202   9.132  1.8516  1.4566  1.0465
  115OSM   H18H12105   4.188   4.376   9.128  1.2038 -1.0951 -1.5922
  116OSM      N12106   0.803   6.700  10.905 -0.9158 -0.5287  1.2742
  116OSM    C1512107   0.661   6.722  10.941  0.0430  0.2042 -0.6397
  116OSM   H15A12108   0.610   6.802  10.889 -0.0347  0.1717 -0.6136
  116OSM   H15B12109   0.648   6.742  11.047 -0.5352 -0.8015 -0.5084
  116OSM   H15C12110   0.603   6.632  10.924  2.4321 -1.2926 -1.3322
  116OSM    C1412111   0.871   6.597  10.983  0.0393  0.5345  0.4898
  116OSM   H14A12112   0.904   6.630  11.080  1.8604  0.7944 -0.1623
  116OSM   H14B12113   0.960   6.565  10.931 -1.1761 -0.9311 -0.7700
  116OSM   H14C12114   0.809   6.512  11.007 -1.3922  1.8738  1.6959
  116OSM    C1312115   0.804   6.658  10.756  0.3971 -0.3331 -0.0013
  116OSM   H13A12116   0.785   6.553  10.739 -0.0100 -0.0534 -1.3650
  116OSM   H13B12117   0.902   6.667  10.712  0.7877 -2.3482  0.3315
  116OSM   H13C12118   0.728   6.717  10.708 -0.1913 -1.7149 -0.8332
  116OSM    C1212119   0.892   6.827  10.918  0.0086  0.5129 -0.1576
  116OSM   H12A12120   0.834   6.908  10.875 -4.2825 -2.3273 -0.4036
  116OSM   H12B12121   0.974   6.830  10.848  1.2783  0.6971  1.2896
  116OSM    C1112122   0.937   6.883  11.058 -0.2713  0.4751  0.4337
  116OSM   H11A12123   1.015   6.961  11.049  0.0731  0.0776 -0.0987
  116OSM   H11B12124   0.987   6.798  11.109 -1.0822 -0.6430 -0.5759
  116OSM      P12125   0.758   7.059  11.100  0.2121  0.1277  0.0013
  116OSM    O1312126   0.643   7.073  11.197 -0.3667 -0.2649  0.4635
  116OSM    O1412127   0.862   7.164  11.106  0.0995 -0.4844 -0.4075
  116OSM    O1112128   0.710   7.061  10.956 -0.0107  0.4156  0.7726
  116OSM    O1212129   0.825   6.923  11.131  0.9980  0.0090  0.2896
  116OSM    C1S12130   0.767   7.137  10.851  0.0405 -0.6698  0.3889
  116OSM    H1S12131   0.878   7.141  10.857  0.0227 -0.0866  0.4615
  116OSM    H1T12132   0.728   7.242  10.856  0.3959 -0.3664 -1.9549
  116OSM     NF12133   0.791   7.134  10.603 -0.6229 -0.1379 -0.2291
  116OSM    HNF12134   0.765   7.222  10.563 -1.2776 -1.3639 -2.7293
  116OSM    C2S12135   0.708   7.086  10.713  0.3691 -0.3756 -0.3073
  116OSM    H2S12136   0.721   6.976  10.712  0.9872 -0.3059 -1.6824
  116OSM    C3S12137   0.556   7.121  10.705  0.4603 -0.4874 -0.5818
  116OSM    H3S12138   0.532   7.227  10.728 -0.9126 -0.6596 -1.1389
  116OSM     O312139   0.487   7.049  10.808 -0.4962 -0.0999 -0.3374
  116OSM    HO312140   0.557   7.021  10.867 -1.8292  0.8285  1.8255
  116OSM    C4S12141   0.499   7.071  10.582 -0.7420 -0.5304 -0.7106
  116OSM    H4S12142   0.463   6.967  10.589  1.7977 -1.6204 -2.3706
  116OSM    C5S12143   0.481   7.135  10.467  1.0441  1.1643 -0.2863
  116OSM    H5S12144   0.517   7.238  10.456  2.4022  0.5566 -2.1023
  116OSM    C6S12145   0.424   7.084  10.336  0.1448  0.3107  0.6676
  116OSM    H6S12146   0.361   7.166  10.296  0.3173  1.4833  2.6598
  116OSM    H6T12147   0.377   6.985  10.350  2.1206 -0.7721  0.0777
  116OSM    C7S12148   0.542   7.056  10.235 -0.5414  0.1755 -0.0454
  116OSM    H7S12149   0.619   6.980  10.261 -0.3695  0.9193  1.7924
  116OSM    H7T12150   0.608   7.144  10.222  0.7251 -0.8011 -0.4777
  116OSM    C8S12151   0.484   7.026  10.098 -0.7441 -0.5369  0.2313
  116OSM    H8S12152   0.409   7.105  10.078  1.1438  1.7555  1.6098
  116OSM    H8T12153   0.443   6.923  10.109  1.1053 -1.4937 -1.2320
  116OSM    C9S12154   0.601   7.024   9.991  0.6164  0.2588  0.2462
  116OSM    H9S12155   0.658   6.929   9.995 -0.7570 -0.7171 -1.7146
  116OSM    H9T12156   0.677   7.104  10.000  2.9386 -1.4058 -2.7138
  116OSM   C10S12157   0.544   7.023   9.845  0.0089 -0.0172 -0.3698
  116OSM   H10S12158   0.480   7.112   9.826 -2.6315 -0.5754  4.3369
  116OSM   H10T12159   0.476   6.936   9.839  0.5910 -0.6132  1.0979
  116OSM   C11S12160   0.647   6.997   9.729  0.1638  0.5326  0.0690
  116OSM   H11S12161   0.701   6.901   9.743 -0.8578 -0.1056 -0.2425
  116OSM   H11T12162   0.723   7.078   9.734  0.3265  0.3151  1.0954
  116OSM   C12S12163   0.594   6.995   9.586  0.3182  0.2315 -0.0896
  116OSM   H12S12164   0.518   7.074   9.567  1.9885  1.6803 -1.0140
  116OSM   H12T12165   0.540   6.898   9.591  1.0096 -0.2288 -1.2326
  116OSM   C13S12166   0.690   6.979   9.463  0.5125  0.6885 -0.8613
  116OSM   H13S12167   0.765   6.900   9.485 -2.2863 -1.7380  0.5832
  116OSM   H13T12168   0.743   7.075   9.442  0.5563  1.3713  1.9028
  116OSM   C14S12169   0.617   6.936   9.330  0.0811  0.3008 -0.0932
  116OSM   H14S12170   0.528   7.002   9.320 -0.4010 -0.1332  1.1650
  116OSM   H14T12171   0.593   6.828   9.334  0.2884  0.2853  1.1914
  116OSM   C15S12172   0.715   6.956   9.213 -0.3310  0.0232  0.3849
  116OSM   H15S12173   0.791   6.876   9.208  1.3734  1.6485 -0.9213
  116OSM   H15T12174   0.776   7.043   9.244  1.5095 -0.5471 -1.4134
  116OSM   C16S12175   0.661   6.990   9.074  0.2616  0.5077 -0.5251
  116OSM   H16S12176   0.732   7.033   9.001 -0.1621  3.2739  0.5781
  116OSM   H16T12177   0.585   7.070   9.086  1.2938  1.3531  0.6787
  116OSM   C17S12178   0.601   6.861   9.010 -0.0580  0.2568  0.4437
  116OSM   H17S12179   0.524   6.830   9.084 -3.2329  2.2138 -1.8076
  116OSM   H17T12180   0.675   6.778   9.008 -1.8429 -1.4049  0.4790
  116OSM   C18S12181   0.551   6.875   8.875 -0.1113 -0.1473 -0.4422
  116OSM   H18S12182   0.633   6.886   8.801  1.6758 -0.9321  1.3341
  116OSM   H18T12183   0.475   6.956   8.871 -1.2418 -1.1874 -0.2394
  116OSM   H18U12184   0.500   6.783   8.841  1.2602 -0.2911 -2.3487
  116OSM    C1F12185   0.916   7.098  10.581 -0.0705  0.4727 -0.2123
  116OSM     OF12186   0.966   7.009  10.655 -0.4803 -0.6528  0.2510
  116OSM    C2F12187   0.997   7.161  10.470  0.7165  0.4909  0.3845
  116OSM    H2F12188   1.059   7.077  10.430  2.0787  1.5154  0.2627
  116OSM    H2G12189   1.062   7.241  10.511  1.5661 -0.7266  1.5243
  116OSM    C3F12190   0.906   7.209  10.352  0.1544  0.3684  0.2273
  116OSM    H3F12191   0.824   7.277  10.385  1.0946  3.1579 -2.6958
  116OSM    H3G12192   0.866   7.117  10.306  1.5404 -0.3004  0.2964
  116OSM    C4F12193   0.985   7.282  10.244  0.4520  0.4905  0.2126
  116OSM    H4F12194   1.058   7.209  10.205  0.4123  0.9675 -0.7717
  116OSM    H4G12195   1.043   7.361  10.297 -0.1037  0.2858  1.1519
  116OSM    C5F12196   0.892   7.346  10.152  0.4420  0.1465  0.9313
  116OSM    H5F12197   0.832   7.420  10.208 -1.1596  0.2052 -0.7698
  116OSM    H5G12198   0.833   7.267  10.100 -0.2289  1.9102 -1.1095
  116OSM    C6F12199   0.970   7.414  10.040 -0.3597 -0.7476  0.3982
  116OSM    H6F12200   1.041   7.346   9.988 -0.2457 -1.4219  1.4195
  116OSM    H6G12201   1.039   7.488  10.085 -0.3018  0.1894 -1.1574
  116OSM    C7F12202   0.886   7.481   9.926  0.0411 -0.1415  0.3044
  116OSM    H7F12203   0.941   7.556   9.865  0.5017  1.2324  2.3194
  116OSM    H7G12204   0.817   7.540   9.991  0.7982  1.2623 -0.1204
  116OSM    C8F12205   0.816   7.384   9.824 -0.2988 -0.6707 -0.4321
  116OSM    H8F12206   0.731   7.446   9.787  1.9182  2.6837 -0.3490
  116OSM    H8G12207   0.760   7.301   9.871 -0.6515 -1.6028 -2.4034
  116OSM    C9F12208   0.912   7.324   9.728  0.4569 -0.1220 -0.0017
  116OSM    H9F12209   1.008   7.285   9.766  0.5188 -0.1960 -0.2337
  116OSM   C10F12210   0.895   7.323   9.595  0.0251 -0.0205 -0.0744
  116OSM   H10F12211   0.971   7.275   9.533 -0.9371 -1.4857 -0.1667
  116OSM   C11F12212   0.769   7.366   9.517 -0.3018 -0.3184  0.2751
  116OSM   H11F12213   0.693   7.423   9.574 -0.9471 -0.9654  0.0918
  116OSM   H11G12214   0.715   7.276   9.478 -2.3977  1.1992 -0.5092
  116OSM   C12F12215   0.807   7.440   9.385  0.5533 -0.3473  0.2106
  116OSM   H12F12216   0.902   7.398   9.345  2.2160  0.4391  3.0038
  116OSM   H12G12217   0.817   7.544   9.421 -0.0914 -0.1514 -0.1819
  116OSM   C13F12218   0.702   7.449   9.277 -0.7696 -0.5398  0.1825
  116OSM   H13F12219   0.615   7.501   9.323  0.7325  3.1059 -0.7559
  116OSM   H13G12220   0.664   7.351   9.240  0.6588 -1.0883  0.1235
  116OSM   C14F12221   0.740   7.551   9.162  0.1135  0.4654  0.1236
  116OSM   H14F12222   0.771   7.651   9.199  0.7721 -0.0393  0.9890
  116OSM   H14G12223   0.651   7.560   9.097 -1.1233 -0.9260  1.5519
  116OSM   C15F12224   0.841   7.497   9.067 -0.1420  0.3219 -0.1796
  116OSM   H15F12225   0.918   7.454   9.135 -1.0862  1.8392  1.9879
  116OSM   H15G12226   0.886   7.573   8.999  0.8835  0.6434  0.8208
  116OSM   C16F12227   0.798   7.373   8.991  0.0742  0.1724  0.2424
  116OSM   H16F12228   0.749   7.303   9.062  1.8350 -0.8449  0.5202
  116OSM   H16G12229   0.891   7.317   8.964 -1.1063 -1.9938  0.4163
  116OSM   C17F12230   0.717   7.392   8.861  0.3272 -0.4008 -0.0413
  116OSM   H17F12231   0.615   7.427   8.888  0.6751 -0.5400  1.5331
  116OSM   H17G12232   0.705   7.290   8.821  0.5735  0.7796 -3.4809
  116OSM   C18F12233   0.790   7.470   8.750 -0.3904  0.2629  0.9151
  116OSM   H18F12234   0.788   7.580   8.770  0.0880  0.0414  2.3397
  116OSM   H18G12235   0.732   7.456   8.657  1.9150 -0.6843 -0.4670
  116OSM   H18H12236   0.893   7.430   8.738 -0.0895  1.2777 -0.0853
  117OSM      N12237   6.363   2.989  11.101  0.4134  0.0041 -0.6074
  117OSM    C1512238   6.491   2.996  11.176 -0.6192  0.4313  0.8005
  117OSM   H15A12239   6.571   2.986  11.104 -2.6813  0.1194 -1.5957
  117OSM   H15B12240   6.496   2.913  11.244 -1.3727 -1.0640 -0.8946
  117OSM   H15C12241   6.505   3.094  11.219 -0.0301 -0.5064  2.8631
  117OSM    C1412242   6.349   2.864  11.024  0.0974  0.2833  0.0288
  117OSM   H14A12243   6.447   2.819  11.013 -0.5050 -1.0417 -0.2031
  117OSM   H14B12244   6.301   2.867  10.928 -2.2813 -1.9614  1.0198
  117OSM   H14C12245   6.294   2.786  11.075 -1.1919  1.5705  0.6465
  117OSM    C1312246   6.245   2.995  11.190  0.6734 -0.5211 -0.4619
  117OSM   H13A12247   6.232   3.093  11.232  0.7681 -0.0514 -1.5021
  117OSM   H13B12248   6.258   2.931  11.276 -1.3567  1.0678  1.1078
  117OSM   H13C12249   6.147   2.973  11.150 -0.2029  1.0699  0.7248
  117OSM    C1212250   6.356   3.110  11.008  0.6682  0.5843 -0.9090
  117OSM   H12A12251   6.324   3.198  11.061  1.1614 -1.7017  3.6684
  117OSM   H12B12252   6.275   3.091  10.939 -0.5986 -2.7176  1.2340
  117OSM    C1112253   6.477   3.139  10.926  0.1524  0.2853 -0.2998
  117OSM   H11A12254   6.456   3.218  10.850 -1.6164  1.0592  0.9245
  117OSM   H11B12255   6.502   3.045  10.873  0.9209  0.4062 -0.1655
  117OSM      P12256   6.735   3.129  10.971  0.3465  0.2393  0.4119
  117OSM    O1312257   6.830   3.223  11.028 -0.8441  0.0893 -0.0424
  117OSM    O1412258   6.736   2.989  11.013  0.2490 -0.6955  0.3832
  117OSM    O1112259   6.734   3.144  10.813 -0.1652  0.2309  0.3964
  117OSM    O1212260   6.590   3.176  11.004  0.3255 -0.0496  0.8577
  117OSM    C1S12261   6.777   3.043  10.726 -0.2292  0.0257 -0.0257
  117OSM    H1S12262   6.744   2.941  10.756 -0.6764 -0.1961 -1.2174
  117OSM    H1T12263   6.886   3.048  10.705 -0.8665 -0.0127 -4.0503
  117OSM     NF12264   6.759   2.933  10.509 -0.2059  1.0711 -0.6525
  117OSM    HNF12265   6.849   2.922  10.469  1.8287 -1.6402  3.8558
  117OSM    C2S12266   6.727   3.058  10.577  0.2123 -0.3193  0.2769
  117OSM    H2S12267   6.618   3.078  10.584  0.4305  0.3937  4.5145
  117OSM    C3S12268   6.782   3.189  10.507 -1.1786  1.1454  0.2463
  117OSM    H3S12269   6.893   3.187  10.515 -0.9097  3.2103 -1.8673
  117OSM     O312270   6.750   3.316  10.563  0.9071 -0.0246  0.2123
  117OSM    HO312271   6.728   3.295  10.654  0.7876  1.3766  0.5400
  117OSM    C4S12272   6.751   3.186  10.358  0.2836  0.9686  0.1910
  117OSM    H4S12273   6.835   3.140  10.304  1.3152  1.7168  1.1204
  117OSM    C5S12274   6.648   3.239  10.292 -0.4261 -0.4483  0.1997
  117OSM    H5S12275   6.573   3.291  10.354 -0.9811 -0.9598 -0.0278
  117OSM    C6S12276   6.617   3.230  10.144  0.3993  0.3330 -0.0477
  117OSM    H6S12277   6.643   3.328  10.099  0.6729  0.2107 -0.1563
  117OSM    H6T12278   6.514   3.193  10.123  0.5931  0.9288 -2.3388
  117OSM    C7S12279   6.698   3.121  10.071  0.3890 -0.9744 -0.0374
  117OSM    H7S12280   6.675   3.025  10.121 -1.9980 -0.7626 -0.6022
  117OSM    H7T12281   6.808   3.122  10.090  0.6005  1.9564 -0.8502
  117OSM    C8S12282   6.674   3.103   9.924  0.5071  0.7271 -0.1685
  117OSM    H8S12283   6.674   3.205   9.879 -1.3604  0.9792  0.3176
  117OSM    H8T12284   6.569   3.070   9.912  0.5160 -0.7719  2.9361
  117OSM    C9S12285   6.773   3.016   9.850 -0.2699 -0.0565 -0.0155
  117OSM    H9S12286   6.773   2.916   9.898 -0.8330  1.1163  2.6473
  117OSM    H9T12287   6.877   3.044   9.877  0.3742 -2.8484  0.7201
  117OSM   C10S12288   6.759   3.004   9.698  0.3449  0.4373  0.1963
  117OSM   H10S12289   6.768   3.103   9.649  0.6877  0.8979  1.1491
  117OSM   H10T12290   6.662   2.953   9.682  2.1936 -3.6541  0.7888
  117OSM   C11S12291   6.876   2.923   9.645 -0.3367 -0.0986 -0.2504
  117OSM   H11S12292   6.877   2.826   9.699  0.2810 -0.7258 -1.3484
  117OSM   H11T12293   6.977   2.966   9.662 -0.5523  0.9673 -1.4355
  117OSM   C12S12294   6.863   2.881   9.495 -0.3831 -0.5929  0.0865
  117OSM   H12S12295   6.771   2.821   9.478 -1.3426  0.2610  1.9920
  117OSM   H12T12296   6.954   2.821   9.473  1.0286  0.5899  2.3460
  117OSM   C13S12297   6.867   3.003   9.399 -0.5653  0.0640  0.4008
  117OSM   H13S12298   6.940   3.075   9.443  0.7403 -2.2231  2.2473
  117OSM   H13T12299   6.769   3.054   9.411 -0.0359  0.8220  1.8451
  117OSM   C14S12300   6.896   2.980   9.245  0.3373  0.3653 -0.1057
  117OSM   H14S12301   6.994   2.931   9.227  0.0524  0.2593 -1.4331
  117OSM   H14T12302   6.904   3.083   9.206 -1.4304  0.3514 -0.6048
  117OSM   C15S12303   6.789   2.895   9.167  0.1579 -0.2098  0.5717
  117OSM   H15S12304   6.686   2.927   9.192 -0.6889 -1.5798 -0.9530
  117OSM   H15T12305   6.797   2.785   9.185 -0.1574 -0.3012  0.1611
  117OSM   C16S12306   6.796   2.925   9.017 -0.1166 -0.7044 -0.4649
  117OSM   H16S12307   6.772   3.032   8.998  1.2649 -0.6939 -2.5979
  117OSM   H16T12308   6.714   2.876   8.961 -1.2582  1.3703 -0.7095
  117OSM   C17S12309   6.931   2.889   8.960  0.0251  0.1531 -0.5351
  117OSM   H17S12310   6.947   2.784   8.992  1.3751  0.0531 -1.4323
  117OSM   H17T12311   7.014   2.942   9.013 -1.2667  2.0367 -0.3143
  117OSM   C18S12312   6.948   2.897   8.805 -0.7750  0.0304 -0.6111
  117OSM   H18S12313   6.883   2.819   8.761 -2.4899  1.7311 -1.2314
  117OSM   H18T12314   7.048   2.858   8.778 -0.1932  1.7449 -1.0478
  117OSM   H18U12315   6.933   2.999   8.765 -0.0447  1.1692  1.7948
  117OSM    C1F12316   6.701   2.816  10.526  0.5854 -0.4294 -0.4205
  117OSM     OF12317   6.595   2.812  10.587 -0.3617 -0.1110  0.0723
  117OSM    C2F12318   6.781   2.705  10.480 -0.3406 -0.2461  0.1544
  117OSM    H2F12319   6.734   2.613  10.520 -0.2261 -0.2598  0.2618
  117OSM    H2G12320   6.883   2.709  10.526 -0.2137  2.6978 -0.1573
  117OSM    C3F12321   6.788   2.703  10.327 -0.2616  0.4826  0.0769
  117OSM    H3F12322   6.863   2.620  10.331 -0.9797 -0.1614  2.7167
  117OSM    H3G12323   6.826   2.797  10.282 -0.8341  0.3988 -0.6045
  117OSM    C4F12324   6.668   2.654  10.251 -0.0007 -0.6363  0.3586
  117OSM    H4F12325   6.582   2.716  10.285  1.1904  0.6488  1.1581
  117OSM    H4G12326   6.649   2.546  10.270  0.8516 -0.8457  0.0709
  117OSM    C5F12327   6.693   2.684  10.106 -0.1739 -0.3875  0.7441
  117OSM    H5F12328   6.797   2.669  10.070 -1.0940 -0.0744 -2.2729
  117OSM    H5G12329   6.673   2.790  10.080 -1.5165 -0.8003  0.0173
  117OSM    C6F12330   6.604   2.596  10.021 -0.6601  0.1598 -0.2894
  117OSM    H6F12331   6.500   2.611  10.056  0.3762  0.5289  3.0241
  117OSM    H6G12332   6.632   2.488  10.026 -0.4208  0.2293 -0.1281
  117OSM    C7F12333   6.598   2.636   9.868 -0.5374  0.2123  0.5468
  117OSM    H7F12334   6.705   2.656   9.848  0.0533 -2.2152  1.0045
  117OSM    H7G12335   6.546   2.734   9.866 -2.0866 -0.5079 -3.1416
  117OSM    C8F12336   6.541   2.538   9.767 -0.4778  0.0857 -0.4574
  117OSM    H8F12337   6.519   2.595   9.674  1.6229  0.8337 -0.5351
  117OSM    H8G12338   6.453   2.479   9.801  0.9975 -1.4662  0.8679
  117OSM    C9F12339   6.644   2.442   9.724 -0.4572  0.0660 -0.1666
  117OSM    H9F12340   6.684   2.384   9.809  1.5379  0.8266 -0.5264
  117OSM   C10F12341   6.707   2.433   9.607 -0.2711  0.4502 -0.1113
  117OSM   H10F12342   6.780   2.352   9.594 -0.8349  0.0877 -1.0779
  117OSM   C11F12343   6.686   2.504   9.485  0.1098 -0.0032 -0.7144
  117OSM   H11F12344   6.754   2.591   9.475 -1.0906  1.0676  0.0872
  117OSM   H11G12345   6.581   2.540   9.493  1.0351  2.6168  1.1072
  117OSM   C12F12346   6.700   2.410   9.362  0.1955 -0.5160  0.0222
  117OSM   H12F12347   6.633   2.322   9.363 -1.7174  0.8898  0.2567
  117OSM   H12G12348   6.808   2.383   9.356  0.3382 -1.1042  3.3743
  117OSM   C13F12349   6.659   2.490   9.241  0.2927  0.3417  0.1650
  117OSM   H13F12350   6.714   2.586   9.250  2.2527 -0.8892  2.2243
  117OSM   H13G12351   6.550   2.512   9.248  0.2236 -0.4771  4.3817
  117OSM   C14F12352   6.681   2.419   9.112 -0.5604 -0.4686 -0.1364
  117OSM   H14F12353   6.620   2.327   9.122 -0.2959 -0.8564 -1.7490
  117OSM   H14G12354   6.790   2.396   9.109 -0.4846 -0.0281 -1.3532
  117OSM   C15F12355   6.632   2.501   8.989  0.4383  0.0922 -0.1935
  117OSM   H15F12356   6.701   2.588   8.986  1.1436 -0.4297  0.6908
  117OSM   H15G12357   6.531   2.541   9.014 -0.0512 -0.6615 -0.9075
  117OSM   C16F12358   6.619   2.408   8.874  0.5699  0.1280  0.0643
  117OSM   H16F12359   6.543   2.328   8.890 -0.5024  1.0839 -0.1116
  117OSM   H16G12360   6.714   2.358   8.848 -0.3696 -1.3195 -0.7174
  117OSM   C17F12361   6.554   2.481   8.750  1.0505  0.2509  0.6021
  117OSM   H17F12362   6.633   2.496   8.673 -0.5426  1.0501 -0.9625
  117OSM   H17G12363   6.508   2.581   8.767  0.1851  0.5512 -2.8298
  117OSM   C18F12364   6.438   2.393   8.681 -0.3273 -0.1496  0.7568
  117OSM   H18F12365   6.344   2.411   8.737 -0.9261 -1.4375  0.2029
  117OSM   H18G12366   6.475   2.288   8.682  2.0264  0.6013 -0.4397
  117OSM   H18H12367   6.420   2.422   8.576 -0.1154 -0.6676  0.5733
  118OSM      N12368   5.212   4.648  11.185  0.1512 -0.9776 -0.1893
  118OSM    C1512369   5.359   4.617  11.211  0.2412  0.1639  0.0729
  118OSM   H15A12370   5.404   4.550  11.139  0.5145 -2.1155  2.2064
  118OSM   H15B12371   5.366   4.559  11.302 -2.1644 -0.1472  0.1103
  118OSM   H15C12372   5.426   4.702  11.209 -0.0463  0.3707 -0.8339
  118OSM    C1412373   5.140   4.524  11.151  0.0169  0.6872 -0.2175
  118OSM   H14A12374   5.165   4.449  11.224 -0.0740  0.4409 -0.4399
  118OSM   H14B12375   5.180   4.490  11.056  0.4127  2.1553 -0.6120
  118OSM   H14C12376   5.034   4.540  11.140  0.1110  0.5187 -1.5349
  118OSM    C1312377   5.155   4.712  11.305 -0.0248  0.3511 -0.1919
  118OSM   H13A12378   5.166   4.641  11.386  0.9275  1.5441  0.7649
  118OSM   H13B12379   5.052   4.744  11.303  0.7299  3.0983  0.9411
  118OSM   H13C12380   5.210   4.801  11.331 -0.1369  0.0570  1.1372
  118OSM    C1212381   5.193   4.752  11.074  0.2785  0.5948  0.3109
  118OSM   H12A12382   5.224   4.846  11.118  0.3928  1.5498 -1.7019
  118OSM   H12B12383   5.086   4.764  11.070  0.1692  0.2775  1.8294
  118OSM    C1112384   5.259   4.734  10.928 -0.1133  0.5155 -0.6010
  118OSM   H11A12385   5.232   4.811  10.853 -1.3965 -0.8608 -1.5970
  118OSM   H11B12386   5.210   4.647  10.879  1.9619 -0.0258 -1.8218
  118OSM      P12387   5.500   4.829  10.939  0.0343 -0.4299  0.7093
  118OSM    O1312388   5.420   4.955  10.946  0.7318  0.3160 -0.6520
  118OSM    O1412389   5.597   4.797  11.047  0.1077  0.3448  0.1556
  118OSM    O1112390   5.569   4.814  10.801  0.7967 -0.3015 -0.3270
  118OSM    O1212391   5.400   4.711  10.928  0.1577  0.1527 -0.6012
  118OSM    C1S12392   5.653   4.701  10.769  0.3058 -0.5870  0.3416
  118OSM    H1S12393   5.630   4.614  10.834  1.6764  0.7892  2.8195
  118OSM    H1T12394   5.760   4.726  10.784  0.2339  0.0245 -0.1083
  118OSM     NF12395   5.713   4.535  10.596  0.3609 -0.2994 -0.2690
  118OSM    HNF12396   5.787   4.567  10.537 -0.6947  1.2769 -0.8129
  118OSM    C2S12397   5.629   4.652  10.620  0.5302 -0.1962 -0.0097
  118OSM    H2S12398   5.522   4.624  10.614  0.6073 -1.1602  2.1826
  118OSM    C3S12399   5.660   4.769  10.515 -0.0917  0.7676  0.2080
  118OSM    H3S12400   5.769   4.792  10.516  0.1337 -0.2325 -0.2652
  118OSM     O312401   5.611   4.902  10.543 -0.2263  0.1839  0.0449
  118OSM    HO312402   5.570   4.887  10.629  0.7794 -1.0286  0.3459
  118OSM    C4S12403   5.618   4.726  10.379 -1.2272 -0.8583 -0.5432
  118OSM    H4S12404   5.509   4.711  10.384 -1.3763  0.1903 -0.3120
  118OSM    C5S12405   5.696   4.713  10.276  0.2018 -0.0357  0.0903
  118OSM    H5S12406   5.804   4.732  10.281  0.2725 -0.1392 -0.8630
  118OSM    C6S12407   5.651   4.664  10.146 -0.3012 -0.1114  0.2589
  118OSM    H6S12408   5.616   4.559  10.151  0.8707 -0.4847  4.5983
  118OSM    H6T12409   5.743   4.663  10.084  0.8631 -1.2633  1.9331
  118OSM    C7S12410   5.562   4.759  10.067 -0.1973  1.2178 -0.0231
  118OSM    H7S12411   5.605   4.861  10.070 -0.1351  1.1762  1.7956
  118OSM    H7T12412   5.471   4.772  10.129 -0.8752  0.1055 -0.7420
  118OSM    C8S12413   5.527   4.706   9.926 -0.0312 -0.7238 -0.1252
  118OSM    H8S12414   5.433   4.750   9.887  1.2490  0.9032 -1.5676
  118OSM    H8T12415   5.516   4.596   9.934  0.5901 -0.7070  1.0303
  118OSM    C9S12416   5.637   4.748   9.820  0.3748  0.4300 -0.3375
  118OSM    H9S12417   5.740   4.723   9.853 -0.6030 -3.3040  0.3572
  118OSM    H9T12418   5.634   4.859   9.814 -0.9237  0.3398 -2.0913
  118OSM   C10S12419   5.604   4.690   9.682  0.1367 -0.2737  0.5714
  118OSM   H10S12420   5.535   4.755   9.624  1.1859 -1.1683 -1.8219
  118OSM   H10T12421   5.562   4.594   9.716 -0.3860  0.2354  1.3894
  118OSM   C11S12422   5.733   4.663   9.605  0.2606  0.0884  0.1241
  118OSM   H11S12423   5.818   4.633   9.670  0.3257  0.2426  0.1118
  118OSM   H11T12424   5.763   4.759   9.557  0.9916 -0.1647  0.0660
  118OSM   C12S12425   5.707   4.551   9.498 -0.0923 -0.1650 -0.0387
  118OSM   H12S12426   5.598   4.545   9.481  0.3944 -0.1343 -3.9339
  118OSM   H12T12427   5.741   4.451   9.534 -1.1852 -0.9887 -1.2287
  118OSM   C13S12428   5.777   4.573   9.363  0.0200 -0.2723  0.4798
  118OSM   H13S12429   5.843   4.662   9.371 -0.3516  0.0687 -0.1905
  118OSM   H13T12430   5.698   4.619   9.300 -1.8844  0.0284  2.9088
  118OSM   C14S12431   5.819   4.456   9.284  0.1862  0.3308  0.1304
  118OSM   H14S12432   5.741   4.378   9.291  0.6278 -0.1185  0.0521
  118OSM   H14T12433   5.913   4.415   9.327 -0.5828  0.4874  2.0765
  118OSM   C15S12434   5.851   4.475   9.135 -0.4207 -0.1664  0.5891
  118OSM   H15S12435   5.791   4.564   9.106 -1.6783 -1.7024 -1.8534
  118OSM   H15T12436   5.821   4.382   9.083 -2.1941  0.2930  0.6973
  118OSM   C16S12437   5.997   4.521   9.116 -0.4029  0.2068 -0.2076
  118OSM   H16S12438   6.069   4.449   9.161  0.0273 -0.3278 -1.6966
  118OSM   H16T12439   6.008   4.617   9.170 -0.5137 -0.5644  1.2185
  118OSM   C17S12440   6.033   4.530   8.968  0.2987 -0.1145  0.1453
  118OSM   H17S12441   5.970   4.611   8.925  0.0896 -0.5188 -0.3177
  118OSM   H17T12442   6.006   4.434   8.920  0.4631 -0.0194 -0.1418
  118OSM   C18S12443   6.179   4.561   8.948 -0.4916  0.2266  0.0754
  118OSM   H18S12444   6.206   4.583   8.842 -0.9509  0.6749  0.0455
  118OSM   H18T12445   6.245   4.477   8.978 -0.2257  1.1548  2.2162
  118OSM   H18U12446   6.211   4.650   9.006  0.5655  0.2891 -0.5747
  118OSM    C1F12447   5.692   4.410  10.645 -0.6294  0.6681  0.2216
  118OSM     OF12448   5.605   4.381  10.724  0.3588 -0.1040  0.6543
  118OSM    C2F12449   5.788   4.313  10.599 -0.4201 -0.3093 -0.2196
  118OSM    H2F12450   5.868   4.302  10.675 -0.5497 -0.4843 -0.1034
  118OSM    H2G12451   5.835   4.347  10.505  0.9822  2.2906  1.3110
  118OSM    C3F12452   5.737   4.169  10.566 -0.2037  0.7329  0.0117
  118OSM    H3F12453   5.704   4.111  10.655 -1.3217  1.0525 -0.1796
  118OSM    H3G12454   5.829   4.123  10.525  0.5382  2.0814  0.0995
  118OSM    C4F12455   5.636   4.166  10.458  0.1326  0.1405  0.8698
  118OSM    H4F12456   5.547   4.230  10.472  0.0745  0.1932  0.2748
  118OSM    H4G12457   5.585   4.067  10.454 -1.2830  0.8947 -1.3309
  118OSM    C5F12458   5.704   4.195  10.324  0.7060  0.0542 -0.8956
  118OSM    H5F12459   5.809   4.159  10.322  0.3095 -1.1670 -1.0779
  118OSM    H5G12460   5.707   4.305  10.315  0.4092  0.2655  1.1746
  118OSM    C6F12461   5.619   4.151  10.195 -0.0070 -0.3158  1.2743
  118OSM    H6F12462   5.512   4.177  10.207 -0.3994 -1.9668  1.5838
  118OSM    H6G12463   5.625   4.041  10.185 -1.3163 -0.3178  0.2606
  118OSM    C7F12464   5.675   4.207  10.066 -0.2835  0.0729 -0.2479
  118OSM    H7F12465   5.773   4.156  10.053  0.3547  1.2453 -0.2376
  118OSM    H7G12466   5.700   4.312  10.092 -1.0319  0.3581 -0.6655
  118OSM    C8F12467   5.574   4.208   9.946 -0.5386  0.3920 -0.2960
  118OSM    H8F12468   5.489   4.267   9.986  0.2663  0.5897  1.2230
  118OSM    H8G12469   5.547   4.101   9.928  1.7560 -0.6405  1.7653
  118OSM    C9F12470   5.623   4.269   9.819  0.0928 -0.5323  0.0304
  118OSM    H9F12471   5.649   4.376   9.821  1.2103 -0.8015  0.9006
  118OSM   C10F12472   5.612   4.223   9.689  0.6829  0.1890 -0.0036
  118OSM   H10F12473   5.642   4.286   9.604 -1.7546 -0.3030 -1.3188
  118OSM   C11F12474   5.552   4.092   9.649 -0.1024  0.5226 -0.1678
  118OSM   H11F12475   5.442   4.106   9.639  0.0707  0.5193 -2.6517
  118OSM   H11G12476   5.559   4.001   9.712 -2.2995 -1.2139 -2.2238
  118OSM   C12F12477   5.578   4.041   9.503 -0.3422  0.1764 -0.1597
  118OSM   H12F12478   5.546   4.122   9.433  1.0607  1.0999  0.2270
  118OSM   H12G12479   5.520   3.951   9.475 -0.5741  0.0102  0.8258
  118OSM   C13F12480   5.727   4.023   9.469  0.6175  0.0650 -0.0282
  118OSM   H13F12481   5.764   3.953   9.548 -1.0657 -2.4120 -1.3318
  118OSM   H13G12482   5.784   4.116   9.493  1.0735 -1.1055  4.2664
  118OSM   C14F12483   5.753   3.978   9.325 -0.1590  0.2572 -0.2063
  118OSM   H14F12484   5.669   3.933   9.269  0.4969  0.0500 -1.0407
  118OSM   H14G12485   5.838   3.907   9.329 -0.7971 -0.4538  2.8313
  118OSM   C15F12486   5.815   4.091   9.235 -0.0282 -0.6400 -0.0762
  118OSM   H15F12487   5.885   4.154   9.295 -0.5333 -0.4998  0.3676
  118OSM   H15G12488   5.728   4.155   9.210 -0.1955 -0.5771  0.6317
  118OSM   C16F12489   5.887   4.034   9.110  0.1991  0.1164  0.1405
  118OSM   H16F12490   5.824   3.999   9.025 -0.9880  0.3003  0.9292
  118OSM   H16G12491   5.950   3.947   9.141 -1.1738 -1.1944 -0.5838
  118OSM   C17F12492   5.997   4.135   9.051  0.9652 -0.1643 -0.2217
  118OSM   H17F12493   6.042   4.197   9.132  5.9230 -1.7866 -1.3569
  118OSM   H17G12494   5.937   4.196   8.981 -0.5625 -0.0370  1.1403
  118OSM   C18F12495   6.107   4.062   8.981 -0.1581  0.2851  0.3141
  118OSM   H18F12496   6.060   3.988   8.913  2.0322 -0.0853 -0.9121
  118OSM   H18G12497   6.161   3.989   9.045 -0.8859 -0.5720 -0.0277
  118OSM   H18H12498   6.178   4.130   8.930 -0.2219  0.0573 -0.0784
  119OSM      N12499   0.567   1.950  11.209  0.1760 -0.0764 -0.5437
  119OSM    C1512500   0.586   2.062  11.305 -0.2691 -0.5911 -0.2208
  119OSM   H15A12501   0.594   2.024  11.406 -0.3279 -1.8449 -0.6693
  119OSM   H15B12502   0.497   2.123  11.301 -0.9573 -1.4339  1.3296
  119OSM   H15C12503   0.681   2.112  11.291  0.9466 -2.0654  2.1503
  119OSM    C1412504   0.672   1.847  11.243  0.3322 -0.2164 -0.0637
  119OSM   H14A12505   0.677   1.826  11.349  1.1679  1.3950  0.2546
  119OSM   H14B12506   0.772   1.885  11.226  0.5608  0.9538  3.1399
  119OSM   H14C12507   0.658   1.756  11.187 -0.1481  1.5179 -2.9672
  119OSM    C1312508   0.435   1.886  11.221  0.6128  0.0554 -0.3075
  119OSM   H13A12509   0.428   1.839  11.318  3.0281 -2.3982 -1.1773
  119OSM   H13B12510   0.412   1.821  11.138  0.9515  2.4758 -2.4321
  119OSM   H13C12511   0.351   1.953  11.223  0.0595 -0.5560 -1.6902
  119OSM    C1212512   0.586   2.000  11.072 -0.8951  0.4185  0.2992
  119OSM   H12A12513   0.515   2.077  11.045  0.2750  1.3028 -0.3780
  119OSM   H12B12514   0.554   1.922  11.005  0.0155 -0.3810  0.7794
  119OSM    C1112515   0.721   2.047  11.017 -0.4681 -0.5070  0.5310
  119OSM   H11A12516   0.733   2.050  10.907 -2.2258  0.1619  0.3212
  119OSM   H11B12517   0.811   1.995  11.056  0.4308  0.9309  0.4364
  119OSM      P12518   0.680   2.306  11.013  0.3765 -0.3001 -0.1251
  119OSM    O1312519   0.536   2.316  11.048  0.6114 -0.2113 -0.5550
  119OSM    O1412520   0.769   2.424  11.056  0.0583  0.3588 -0.7244
  119OSM    O1112521   0.695   2.291  10.858  0.5186 -0.5398  0.4227
  119OSM    O1212522   0.736   2.178  11.071 -0.1338 -0.4530 -0.3358
  119OSM    C1S12523   0.592   2.236  10.780 -0.2069 -0.4432  0.3588
  119OSM    H1S12524   0.493   2.277  10.811  0.3116  1.8970 -0.8413
  119OSM    H1T12525   0.599   2.125  10.782 -2.4857 -0.6423  1.5473
  119OSM     NF12526   0.487   2.205  10.562 -0.7878  0.2167 -0.7404
  119OSM    HNF12527   0.495   2.108  10.542  1.0170  0.3346 -0.7114
  119OSM    C2S12528   0.599   2.269  10.625 -0.4902 -0.2574  0.1915
  119OSM    H2S12529   0.581   2.377  10.606  1.1542  0.0816  0.4063
  119OSM    C3S12530   0.737   2.230  10.559 -0.1439 -0.3661 -0.2323
  119OSM    H3S12531   0.734   2.119  10.553  2.5007 -0.6153  1.3808
  119OSM     O312532   0.847   2.248  10.648  0.9108  0.8686  0.3226
  119OSM    HO312533   0.807   2.240  10.735 -1.0820  1.1414 -0.5166
  119OSM    C4S12534   0.762   2.291  10.423  0.4921 -0.5685  0.5965
  119OSM    H4S12535   0.729   2.394  10.402  0.1404 -0.5592  1.1899
  119OSM    C5S12536   0.816   2.218  10.323  0.2294 -0.4610  0.3262
  119OSM    H5S12537   0.842   2.112  10.329  2.0926 -0.3490 -3.2497
  119OSM    C6S12538   0.839   2.277  10.186  0.1108  0.0332  0.2767
  119OSM    H6S12539   0.938   2.252  10.142 -0.2941 -1.3222  0.1013
  119OSM    H6T12540   0.836   2.388  10.191 -0.2949  0.1804 -2.2867
  119OSM    C7S12541   0.727   2.256  10.073  0.0723  0.7329  0.5448
  119OSM    H7S12542   0.635   2.298  10.120 -0.1241  1.3727 -0.3924
  119OSM    H7T12543   0.721   2.149  10.044 -0.8276  0.6591  0.9789
  119OSM    C8S12544   0.742   2.322   9.928 -0.4419  0.3901 -0.1077
  119OSM    H8S12545   0.851   2.330   9.905 -0.8845 -0.7027 -3.0516
  119OSM    H8T12546   0.698   2.424   9.922  1.3080  1.0936 -3.8094
  119OSM    C9S12547   0.673   2.244   9.816 -0.2232  0.8005  0.5310
  119OSM    H9S12548   0.566   2.227   9.842 -0.2056  0.1019  0.1544
  119OSM    H9T12549   0.713   2.140   9.808 -1.4988  0.4229 -1.5521
  119OSM   C10S12550   0.684   2.295   9.677  0.0462 -0.5646  0.2180
  119OSM   H10S12551   0.719   2.400   9.689  2.0180 -1.1318 -0.1957
  119OSM   H10T12552   0.584   2.304   9.628 -1.0312  2.0912  2.5901
  119OSM   C11S12553   0.790   2.223   9.596  0.1498  0.4478 -0.0610
  119OSM   H11S12554   0.745   2.123   9.577  0.1317  0.1080  1.5888
  119OSM   H11T12555   0.882   2.221   9.658  0.4528 -1.6329 -0.5078
  119OSM   C12S12556   0.833   2.289   9.463  0.1230  0.2227  0.1660
  119OSM   H12S12557   0.924   2.240   9.422 -0.1155  2.2871 -3.2292
  119OSM   H12T12558   0.864   2.395   9.480 -0.1112  0.3764 -0.3457
  119OSM   C13S12559   0.725   2.292   9.353 -0.1303 -0.1542 -0.2700
  119OSM   H13S12560   0.627   2.325   9.393  0.8273  2.2644  0.2473
  119OSM   H13T12561   0.726   2.192   9.304  1.7181 -0.4458  0.2931
  119OSM   C14S12562   0.763   2.389   9.234  0.3455  0.0761  0.1195
  119OSM   H14S12563   0.850   2.351   9.177 -0.3040 -0.4485 -0.5297
  119OSM   H14T12564   0.785   2.490   9.276 -0.2130  1.6853 -3.1229
  119OSM   C15S12565   0.644   2.402   9.139 -0.4660 -0.2457 -0.2164
  119OSM   H15S12566   0.643   2.489   9.069 -0.1308 -0.5038 -0.5452
  119OSM   H15T12567   0.556   2.428   9.201  0.3007 -0.8560  1.1653
  119OSM   C16S12568   0.611   2.277   9.060  0.0483  0.0007  0.4222
  119OSM   H16S12569   0.569   2.194   9.122 -1.7380  1.4940  1.3003
  119OSM   H16T12570   0.706   2.244   9.014 -1.1170  0.3174 -2.4339
  119OSM   C17S12571   0.511   2.297   8.944  0.2072 -0.4273 -0.2429
  119OSM   H17S12572   0.503   2.205   8.882  2.1075  0.1920 -1.4892
  119OSM   H17T12573   0.543   2.374   8.871  0.5253 -0.1847  0.1492
  119OSM   C18S12574   0.374   2.348   8.991  0.2876  0.0489 -0.0724
  119OSM   H18S12575   0.296   2.382   8.919  0.2865 -1.5660 -0.8723
  119OSM   H18T12576   0.385   2.429   9.067  1.2586 -1.1062  1.0657
  119OSM   H18U12577   0.322   2.269   9.048  0.6421 -0.2185 -0.1126
  119OSM    C1F12578   0.370   2.257  10.569 -0.0843 -0.2627 -0.4183
  119OSM     OF12579   0.353   2.370  10.622 -0.2896 -0.1566  0.1187
  119OSM    C2F12580   0.247   2.176  10.528 -0.6594  0.1578 -0.8568
  119OSM    H2F12581   0.192   2.140  10.618  1.8141 -2.5723 -0.3138
  119OSM    H2G12582   0.292   2.085  10.483  1.3757  0.3669  0.6016
  119OSM    C3F12583   0.157   2.241  10.418  0.4376  0.1239  0.2579
  119OSM    H3F12584   0.086   2.311  10.465 -1.8094 -1.9709  0.1840
  119OSM    H3G12585   0.090   2.159  10.384  0.4554  1.1633 -2.5321
  119OSM    C4F12586   0.230   2.306  10.294 -0.4164  0.6567 -0.5723
  119OSM    H4F12587   0.298   2.223  10.265 -0.0848  0.3575  0.9580
  119OSM    H4G12588   0.296   2.389  10.325  0.3915 -0.5119  0.9920
  119OSM    C5F12589   0.142   2.345  10.172  0.0790 -0.1240 -0.5307
  119OSM    H5F12590   0.075   2.425  10.209 -0.3019 -0.1143 -1.2251
  119OSM    H5G12591   0.081   2.256  10.147  1.8928 -1.4195 -0.5303
  119OSM    C6F12592   0.235   2.392  10.053 -0.8135  0.1158 -0.1176
  119OSM    H6F12593   0.303   2.307  10.032  0.1651  0.6674  0.6473
  119OSM    H6G12594   0.293   2.483  10.082 -2.4732  0.7005  1.5734
  119OSM    C7F12595   0.168   2.432   9.920 -0.3220  0.1131 -0.2675
  119OSM    H7F12596   0.105   2.523   9.931 -2.6813 -1.6821  2.8354
  119OSM    H7G12597   0.101   2.345   9.902 -0.0409 -0.1163 -0.2118
  119OSM    C8F12598   0.274   2.436   9.802  0.0014 -0.3526 -0.5667
  119OSM    H8F12599   0.213   2.450   9.710  0.2024 -0.4274 -0.7128
  119OSM    H8G12600   0.309   2.330   9.799 -1.9684 -1.1257  1.4333
  119OSM    C9F12601   0.392   2.526   9.819 -0.7363 -0.1269 -0.4482
  119OSM    H9F12602   0.435   2.529   9.920  1.3105 -1.1431 -1.2243
  119OSM   C10F12603   0.445   2.602   9.726  0.2948 -1.0354 -0.2233
  119OSM   H10F12604   0.534   2.654   9.764 -1.8820  0.8292  2.6600
  119OSM   C11F12605   0.414   2.627   9.582  0.9358  0.0649  0.0424
  119OSM   H11F12606   0.354   2.720   9.586 -0.3336 -0.7366  0.3478
  119OSM   H11G12607   0.346   2.552   9.537  0.8396  0.6989 -0.8793
  119OSM   C12F12608   0.532   2.654   9.485  0.8506  1.6359  0.4461
  119OSM   H12F12609   0.599   2.566   9.482 -2.7881 -1.3876 -0.1169
  119OSM   H12G12610   0.586   2.742   9.526  1.8777  1.0311  0.4088
  119OSM   C13F12611   0.467   2.683   9.352 -0.3336 -0.2996 -0.1455
  119OSM   H13F12612   0.401   2.771   9.356  1.6452  1.3034 -0.9145
  119OSM   H13G12613   0.412   2.592   9.319  1.1451 -2.1908  2.2165
  119OSM   C14F12614   0.574   2.731   9.253  0.6606  0.4364  0.4677
  119OSM   H14F12615   0.649   2.649   9.244 -1.0469 -1.0547 -0.8404
  119OSM   H14G12616   0.629   2.808   9.310 -2.1893  4.0899 -1.3090
  119OSM   C15F12617   0.528   2.767   9.111  0.3903  0.0149  0.5408
  119OSM   H15F12618   0.452   2.847   9.127 -0.4915 -0.7560  0.3082
  119OSM   H15G12619   0.457   2.687   9.081 -0.6253  0.8623  0.6395
  119OSM   C16F12620   0.645   2.805   9.016  0.1244  0.8640  0.4355
  119OSM   H16F12621   0.714   2.721   8.993 -0.4725 -0.3206  2.6344
  119OSM   H16G12622   0.704   2.884   9.066  0.9123 -1.2535  3.1052
  119OSM   C17F12623   0.591   2.848   8.878  0.1580  0.0335 -0.7544
  119OSM   H17F12624   0.676   2.893   8.821  0.6796 -0.2668 -0.2240
  119OSM   H17G12625   0.520   2.933   8.889  1.2504  1.0800 -1.4856
  119OSM   C18F12626   0.532   2.735   8.798  0.4834  0.0204 -0.0548
  119OSM   H18F12627   0.431   2.708   8.837 -0.4796  1.9057 -1.0860
  119OSM   H18G12628   0.592   2.642   8.795  1.2791  0.4483  1.7765
  119OSM   H18H12629   0.516   2.774   8.695  0.5925 -0.1506 -0.1360
  120OSM      N12630   6.274   6.083  11.171 -0.0960  0.4283 -0.1862
  120OSM    C1512631   6.216   6.199  11.244 -0.1146  0.5040 -0.2683
  120OSM   H15A12632   6.128   6.233  11.191  0.7598  1.1924 -1.3432
  120OSM   H15B12633   6.280   6.286  11.241 -1.2082  1.3449  0.0182
  120OSM   H15C12634   6.200   6.164  11.345  0.6427  0.3016 -0.2162
  120OSM    C1412635   6.393   6.031  11.248  1.6524  0.9854 -0.4149
  120OSM   H14A12636   6.474   6.100  11.269  2.3373  0.3433 -0.8995
  120OSM   H14B12637   6.428   5.952  11.183 -1.2270 -0.8459  0.0597
  120OSM   H14C12638   6.359   5.982  11.338  1.2859  1.0480 -0.5191
  120OSM    C1312639   6.171   5.974  11.173 -0.8759 -0.5010 -0.2225
  120OSM   H13A12640   6.069   6.006  11.157 -0.3041  1.7786  0.4212
  120OSM   H13B12641   6.174   5.913  11.262  2.9315 -1.4424 -0.8240
  120OSM   H13C12642   6.197   5.907  11.092  1.9012  0.2281 -0.0279
  120OSM    C1212643   6.305   6.116  11.024 -0.0339  0.7229  0.1430
  120OSM   H12A12644   6.371   6.202  11.029 -0.9534  1.4667 -0.2294
  120OSM   H12B12645   6.211   6.150  10.984 -0.4995  1.0643  1.4653
  120OSM    C1112646   6.366   6.005  10.937 -0.0986 -0.6215 -0.7987
  120OSM   H11A12647   6.469   5.983  10.973  1.1595  2.1574 -2.4114
  120OSM   H11B12648   6.382   6.044  10.834 -0.4595  1.5157 -0.1029
  120OSM      P12649   6.338   5.768  10.844  0.2710  0.4449  0.4362
  120OSM    O1312650   6.469   5.724  10.900  0.8827  0.3032  0.2159
  120OSM    O1412651   6.227   5.669  10.844  0.1104  0.4877  0.1066
  120OSM    O1112652   6.360   5.835  10.706 -0.1056  0.2204  0.4634
  120OSM    O1212653   6.284   5.891  10.931 -0.0697  0.7459 -0.6134
  120OSM    C1S12654   6.252   5.863  10.613  0.4534 -0.7061 -0.2344
  120OSM    H1S12655   6.216   5.966  10.632 -0.2025 -0.1643 -3.6768
  120OSM    H1T12656   6.168   5.792  10.628  1.2001 -1.3703  0.9867
  120OSM     NF12657   6.184   5.873  10.374  0.0826 -0.0249  0.1544
  120OSM    HNF12658   6.159   5.801  10.309  1.8827  1.0323 -1.8288
  120OSM    C2S12659   6.298   5.862  10.462 -0.1059  0.2995 -0.3871
  120OSM    H2S12660   6.351   5.959  10.456  1.5150 -0.3377  2.0017
  120OSM    C3S12661   6.398   5.745  10.431 -0.4413  0.2969  0.0308
  120OSM    H3S12662   6.345   5.648  10.447  1.0890 -0.4910  0.5188
  120OSM     O312663   6.515   5.733  10.513 -0.4821  0.3405  0.2156
  120OSM    HO312664   6.495   5.787  10.590 -2.9587  1.8661 -1.3493
  120OSM    C4S12665   6.450   5.736  10.294  0.8946 -0.3620 -0.1492
  120OSM    H4S12666   6.533   5.803  10.268  0.9949 -0.9218 -1.2909
  120OSM    C5S12667   6.417   5.651  10.199  0.6689  0.3476 -0.4767
  120OSM    H5S12668   6.351   5.566  10.224  0.9755  0.3340  0.2983
  120OSM    C6S12669   6.464   5.645  10.056  0.6927 -0.0303  0.4071
  120OSM    H6S12670   6.525   5.556  10.028  1.5069  1.8578 -4.7932
  120OSM    H6T12671   6.540   5.716  10.018  0.5612 -1.9277 -3.9749
  120OSM    C7S12672   6.350   5.647   9.949 -0.3853 -0.7880 -0.0784
  120OSM    H7S12673   6.281   5.732   9.967  0.5164 -0.3116  1.3167
  120OSM    H7T12674   6.291   5.553   9.954 -1.0169 -0.3784  0.2700
  120OSM    C8S12675   6.401   5.648   9.806  0.8972  0.3021  0.5408
  120OSM    H8S12676   6.472   5.563   9.794  0.4188  0.1363 -1.2822
  120OSM    H8T12677   6.459   5.741   9.786 -0.1787  1.0488  0.8266
  120OSM    C9S12678   6.291   5.622   9.704 -0.3292 -0.2044 -0.3303
  120OSM    H9S12679   6.200   5.676   9.740  0.3791 -0.7164  2.4069
  120OSM    H9T12680   6.258   5.517   9.693 -2.6938  0.5040 -0.5644
  120OSM   C10S12681   6.341   5.661   9.565  0.1822  0.8483  0.2671
  120OSM   H10S12682   6.433   5.599   9.560  0.1597  0.5749  2.3745
  120OSM   H10T12683   6.375   5.766   9.555 -0.7566  1.1639  0.3059
  120OSM   C11S12684   6.238   5.632   9.454  0.6680  0.1558  0.3903
  120OSM   H11S12685   6.153   5.700   9.477  1.9031  1.4667  1.1708
  120OSM   H11T12686   6.204   5.526   9.462  0.4844 -0.2159 -3.2981
  120OSM   C12S12687   6.299   5.651   9.319 -0.6174  0.0733  0.3039
  120OSM   H12S12688   6.390   5.589   9.305  0.1661  1.2684 -0.0791
  120OSM   H12T12689   6.326   5.757   9.297 -1.1209  0.5855  1.9992
  120OSM   C13S12690   6.205   5.607   9.208  1.4582  0.6198  0.2991
  120OSM   H13S12691   6.126   5.685   9.209  0.1382 -0.6334 -1.1618
  120OSM   H13T12692   6.148   5.517   9.238 -3.4840  2.6693 -1.8299
  120OSM   C14S12693   6.271   5.600   9.067 -0.8253  0.4739 -0.4223
  120OSM   H14S12694   6.203   5.537   9.006 -2.9712  1.5501  0.7270
  120OSM   H14T12695   6.365   5.542   9.079 -1.6463 -0.7428  0.3394
  120OSM   C15S12696   6.285   5.735   8.995  0.2820  0.0405  0.3086
  120OSM   H15S12697   6.355   5.794   9.059  1.5758  0.6320 -1.5633
  120OSM   H15T12698   6.188   5.788   9.002 -0.6927 -1.9299  4.2387
  120OSM   C16S12699   6.344   5.724   8.854  0.1196  0.0657 -1.0139
  120OSM   H16S12700   6.267   5.667   8.799  0.1442 -0.6620 -0.3169
  120OSM   H16T12701   6.440   5.670   8.871 -0.4105 -0.7011 -0.3965
  120OSM   C17S12702   6.368   5.853   8.780  0.1511 -0.2818 -1.1328
  120OSM   H17S12703   6.431   5.924   8.837  0.8134 -1.2707 -0.6125
  120OSM   H17T12704   6.267   5.899   8.793  0.7303  0.7476 -0.1677
  120OSM   C18S12705   6.406   5.861   8.632 -0.0641  0.0569 -0.5742
  120OSM   H18S12706   6.414   5.965   8.595  2.1662  0.1951  0.1499
  120OSM   H18T12707   6.339   5.787   8.584 -1.6772 -0.4219  2.2222
  120OSM   H18U12708   6.512   5.828   8.620 -0.0655 -0.0599 -0.2680
  120OSM    C1F12709   6.097   5.970  10.385  0.4614 -0.8995 -0.3087
  120OSM     OF12710   6.137   6.084  10.423 -0.4476 -0.0573  0.5707
  120OSM    C2F12711   5.949   5.951  10.352 -1.2155 -0.4703 -0.2603
  120OSM    H2F12712   5.889   5.996  10.434 -2.4810  0.6579 -1.7465
  120OSM    H2G12713   5.930   5.842  10.339 -1.6376 -0.4943  0.5084
  120OSM    C3F12714   5.892   6.018  10.231 -0.2061 -0.1215  0.6935
  120OSM    H3F12715   5.931   6.122  10.220  1.6092 -0.7936  0.3991
  120OSM    H3G12716   5.782   6.022  10.246 -0.8578 -2.2438 -2.5230
  120OSM    C4F12717   5.908   5.947  10.095  0.1297  0.5798  1.0841
  120OSM    H4F12718   5.873   5.842  10.095  2.4936 -0.2746 -0.2147
  120OSM    H4G12719   6.014   5.954  10.065 -0.3985 -0.0414 -1.0641
  120OSM    C5F12720   5.839   6.027   9.982  0.8841  0.2367  0.0117
  120OSM    H5F12721   5.873   6.132   9.992  0.1885  0.6046 -1.2662
  120OSM    H5G12722   5.729   6.033   9.997  0.6086 -2.8991 -0.0840
  120OSM    C6F12723   5.878   5.966   9.845 -0.0793 -0.2410 -0.2897
  120OSM    H6F12724   5.828   5.869   9.823 -2.5434  1.0170 -0.6787
  120OSM    H6G12725   5.984   5.936   9.855  0.2810  0.8078 -0.8161
  120OSM    C7F12726   5.871   6.063   9.721  0.1772  1.0015 -0.1095
  120OSM    H7F12727   5.936   6.153   9.727 -0.3096  1.3180  0.6515
  120OSM    H7G12728   5.769   6.106   9.708 -0.3881 -0.0985  0.4994
  120OSM    C8F12729   5.902   6.004   9.584  0.5946 -0.3074  0.1968
  120OSM    H8F12730   5.824   5.928   9.566 -0.5138  1.1088 -1.2440
  120OSM    H8G12731   6.003   5.958   9.595  0.7445 -0.7135 -2.3723
  120OSM    C9F12732   5.909   6.105   9.482  0.1461  0.1288  1.2926
  120OSM    H9F12733   5.996   6.171   9.499 -0.5401  2.2861 -2.3123
  120OSM   C10F12734   5.835   6.117   9.365 -0.1424 -0.0246 -0.1776
  120OSM   H10F12735   5.858   6.199   9.295 -1.6827  0.1576 -0.5012
  120OSM   C11F12736   5.717   6.039   9.327  0.0582  0.1824 -0.2326
  120OSM   H11F12737   5.623   6.099   9.319 -0.0906  0.1961  1.3237
  120OSM   H11G12738   5.682   5.968   9.404 -5.1966 -0.0814 -2.4525
  120OSM   C12F12739   5.746   5.969   9.199 -0.1239 -0.1258 -0.1511
  120OSM   H12F12740   5.771   6.045   9.121 -2.6960 -0.3449 -1.2856
  120OSM   H12G12741   5.667   5.894   9.178  0.8925 -0.8294 -1.6051
  120OSM   C13F12742   5.860   5.864   9.209 -0.1963  0.0072  0.5949
  120OSM   H13F12743   5.829   5.801   9.295  0.2455 -0.7086  0.2362
  120OSM   H13G12744   5.960   5.912   9.216 -0.6864  1.0563  0.6102
  120OSM   C14F12745   5.853   5.769   9.087 -0.0312 -0.3986  0.4560
  120OSM   H14F12746   5.752   5.724   9.096  0.1238 -1.9218 -3.4521
  120OSM   H14G12747   5.927   5.687   9.098  0.2379  0.1060  2.6971
  120OSM   C15F12748   5.864   5.840   8.956 -0.4724  0.4667  0.2370
  120OSM   H15F12749   5.959   5.897   8.954  1.0411 -1.8947  0.4668
  120OSM   H15G12750   5.778   5.910   8.946  0.0575  0.9603 -0.9719
  120OSM   C16F12751   5.863   5.736   8.849 -0.3727 -0.1104  0.5397
  120OSM   H16F12752   5.782   5.662   8.870  1.2676 -2.0622  0.2931
  120OSM   H16G12753   5.961   5.685   8.867 -0.6348 -0.4881  0.9447
  120OSM   C17F12754   5.854   5.804   8.707  0.2908  0.6324 -0.0944
  120OSM   H17F12755   5.793   5.896   8.719 -0.4877  0.0241  0.7565
  120OSM   H17G12756   5.794   5.736   8.643  0.1048  1.3011 -0.6485
  120OSM   C18F12757   5.986   5.818   8.630 -0.8013 -0.2093 -0.1891
  120OSM   H18F12758   5.967   5.864   8.531 -0.3907 -1.3394 -0.8169
  120OSM   H18G12759   6.024   5.719   8.597  0.3115  1.0627 -3.1082
  120OSM   H18H12760   6.070   5.860   8.691  0.1317 -2.1547 -0.0515
  121OSM      N12761   4.946   4.014  11.277  0.5077 -0.3813  0.3079
  121OSM    C1512762   4.983   3.872  11.295  0.3004 -0.2599 -0.3553
  121OSM   H15A12763   4.969   3.823  11.390 -0.2786  1.3658  0.4404
  121OSM   H15B12764   5.084   3.855  11.261  1.1318  1.3004  1.1692
  121OSM   H15C12765   4.921   3.812  11.230 -0.4496  0.9440 -0.7909
  121OSM    C1412766   5.032   4.089  11.370 -0.4695 -0.5897 -0.1034
  121OSM   H14A12767   5.021   4.196  11.360  0.0402 -0.2818  2.1490
  121OSM   H14B12768   5.137   4.071  11.348 -0.1286  2.5296 -1.7179
  121OSM   H14C12769   5.001   4.066  11.470 -0.0498  1.6790  0.6183
  121OSM    C1312770   5.000   4.048  11.139 -0.4704  0.0856  0.2041
  121OSM   H13A12771   4.995   4.155  11.128  2.4313  0.4797  1.8719
  121OSM   H13B12772   4.934   4.016  11.059 -1.0966  1.5770  0.0916
  121OSM   H13C12773   5.104   4.019  11.132 -0.6060 -1.0345  2.0766
  121OSM    C1212774   4.795   4.039  11.293  0.0164  0.2818 -0.5087
  121OSM   H12A12775   4.764   4.031  11.396 -0.6349  2.1668 -0.5168
  121OSM   H12B12776   4.738   3.967  11.236 -1.1232  1.3793 -0.8041
  121OSM    C1112777   4.737   4.162  11.223 -0.1019 -0.6575 -0.0028
  121OSM   H11A12778   4.798   4.251  11.249 -0.3220 -1.0229  1.8642
  121OSM   H11B12779   4.639   4.188  11.270  1.5323 -0.9712  3.9746
  121OSM      P12780   4.642   4.041  11.006  0.0350 -0.3282 -0.1699
  121OSM    O1312781   4.708   3.908  11.013 -0.2099 -0.0050  0.7870
  121OSM    O1412782   4.509   4.050  11.069 -0.2361  0.2702  0.2954
  121OSM    O1112783   4.650   4.096  10.854 -0.2745 -0.5238  0.1138
  121OSM    O1212784   4.725   4.148  11.080  0.0521  0.7677  0.7195
  121OSM    C1S12785   4.779   4.142  10.807 -0.5937 -0.1261  0.1978
  121OSM    H1S12786   4.859   4.079  10.851 -0.7620  0.8698  1.9961
  121OSM    H1T12787   4.784   4.249  10.835 -1.8441 -0.3791  1.5157
  121OSM     NF12788   4.927   4.173  10.613 -0.5890 -0.4263  0.4982
  121OSM    HNF12789   4.938   4.267  10.582 -0.0759 -0.0185  1.8166
  121OSM    C2S12790   4.786   4.135  10.655 -1.0923  0.1645 -0.1732
  121OSM    H2S12791   4.755   4.035  10.618 -0.4317  0.4588 -1.5583
  121OSM    C3S12792   4.681   4.232  10.591  0.2860 -0.3558  0.1221
  121OSM    H3S12793   4.713   4.334  10.623 -1.5761  0.5969 -0.8648
  121OSM     O312794   4.546   4.214  10.628 -0.4941  0.6357  0.2458
  121OSM    HO312795   4.567   4.175  10.713  3.0783 -0.1829 -0.8368
  121OSM    C4S12796   4.690   4.229  10.444  0.3453 -0.4792 -0.2281
  121OSM    H4S12797   4.665   4.126  10.417 -2.8282  0.2159 -0.3878
  121OSM    C5S12798   4.702   4.328  10.352  0.1400 -0.5443  0.2997
  121OSM    H5S12799   4.700   4.431  10.391  1.1234 -0.8551  1.2353
  121OSM    C6S12800   4.698   4.313  10.205 -0.4076 -0.2019  0.0241
  121OSM    H6S12801   4.777   4.379  10.165  1.3908 -1.7695  0.8186
  121OSM    H6T12802   4.613   4.377  10.174  1.5309  2.3383 -0.3508
  121OSM    C7S12803   4.704   4.174  10.143 -0.2571 -0.4240 -0.4282
  121OSM    H7S12804   4.622   4.115  10.188 -1.0620  0.8755 -0.1468
  121OSM    H7T12805   4.803   4.124  10.155  1.0755  1.0623 -3.7512
  121OSM    C8S12806   4.687   4.176   9.987  0.4081 -0.6884 -0.3232
  121OSM    H8S12807   4.591   4.224   9.956 -0.8125 -1.8838  1.4533
  121OSM    H8T12808   4.690   4.075   9.941 -1.4062 -0.5505 -0.8232
  121OSM    C9S12809   4.796   4.252   9.912  0.7773 -0.2549 -1.0535
  121OSM    H9S12810   4.894   4.205   9.933  1.9397  1.9591 -1.2101
  121OSM    H9T12811   4.790   4.359   9.941 -1.8431  0.1233 -2.6537
  121OSM   C10S12812   4.758   4.250   9.764  0.7144  0.5883  0.1964
  121OSM   H10S12813   4.661   4.299   9.740 -0.0241 -0.5033  0.8072
  121OSM   H10T12814   4.736   4.145   9.732  1.8105  0.1399  0.8637
  121OSM   C11S12815   4.873   4.286   9.671 -0.3265 -0.4356 -0.4563
  121OSM   H11S12816   4.956   4.216   9.694  0.5514  0.3760 -1.1208
  121OSM   H11T12817   4.918   4.387   9.677 -1.0674 -0.0606 -1.0310
  121OSM   C12S12818   4.821   4.271   9.520 -0.3371  0.3682  0.4260
  121OSM   H12S12819   4.728   4.332   9.520  1.1986  2.8707  1.0138
  121OSM   H12T12820   4.812   4.162   9.501 -1.9725  0.8410 -1.8562
  121OSM   C13S12821   4.915   4.334   9.424  0.5492 -0.1313  0.3973
  121OSM   H13S12822   5.009   4.274   9.425  0.3219 -0.5917 -1.5731
  121OSM   H13T12823   4.931   4.443   9.437 -1.9189  0.5433 -1.5044
  121OSM   C14S12824   4.858   4.343   9.279  0.5121  0.2805  0.1769
  121OSM   H14S12825   4.773   4.414   9.274 -1.6775 -2.2716 -1.4421
  121OSM   H14T12826   4.819   4.242   9.253 -0.5065  0.4243  1.0605
  121OSM   C15S12827   4.974   4.373   9.175  0.2817  0.3650 -0.6475
  121OSM   H15S12828   5.055   4.298   9.189  2.1220  2.5776  1.4258
  121OSM   H15T12829   5.024   4.466   9.210  0.5999 -0.1290  0.2336
  121OSM   C16S12830   4.932   4.387   9.028  0.2224  0.3825  0.0312
  121OSM   H16S12831   4.864   4.476   9.028 -0.9527 -0.4862 -0.3505
  121OSM   H16T12832   4.874   4.302   8.985 -1.9869  1.3526  0.9236
  121OSM   C17S12833   5.056   4.417   8.937  0.4852  0.4152  0.1868
  121OSM   H17S12834   5.107   4.319   8.923  0.2637  0.1683  1.0609
  121OSM   H17T12835   5.124   4.481   8.998 -2.0200  1.7367  1.7231
  121OSM   C18S12836   5.035   4.489   8.804 -0.1545  0.1979 -0.1993
  121OSM   H18S12837   4.968   4.574   8.830 -0.7544 -0.3447  0.0634
  121OSM   H18T12838   4.973   4.418   8.745  0.6916 -0.9645  0.2701
  121OSM   H18U12839   5.121   4.523   8.744  2.0622 -1.0638  2.0364
  121OSM    C1F12840   5.022   4.087  10.612 -0.0876 -0.3420  0.3759
  121OSM     OF12841   4.991   3.973  10.649  0.0158  0.5892  0.1370
  121OSM    C2F12842   5.166   4.118  10.582  0.3634 -0.1270 -0.1409
  121OSM    H2F12843   5.226   4.106  10.675 -0.6181 -1.1342  0.3898
  121OSM    H2G12844   5.177   4.225  10.555  2.1001 -0.1737  0.2464
  121OSM    C3F12845   5.231   4.017  10.482  0.4804  0.0767 -0.3064
  121OSM    H3F12846   5.215   3.914  10.521 -0.5592  0.2348 -0.2900
  121OSM    H3G12847   5.338   4.036  10.459  0.2105  1.1669 -0.7022
  121OSM    C4F12848   5.166   4.029  10.348  0.2218  0.1528 -0.1195
  121OSM    H4F12849   5.143   4.136  10.329 -1.0693  0.1810  1.2932
  121OSM    H4G12850   5.068   3.977  10.358  0.5807 -0.6684 -0.7908
  121OSM    C5F12851   5.252   3.968  10.239 -0.0300 -0.3875  0.2618
  121OSM    H5F12852   5.291   3.873  10.281 -1.4328 -0.4057  1.6168
  121OSM    H5G12853   5.330   4.041  10.208 -1.4803  0.1108 -2.5115
  121OSM    C6F12854   5.167   3.948  10.116 -0.3986  0.3692  0.1826
  121OSM    H6F12855   5.134   4.046  10.076 -0.8681 -0.6966 -2.2380
  121OSM    H6G12856   5.080   3.880  10.130  0.9137 -1.8791 -1.9127
  121OSM    C7F12857   5.257   3.877  10.007  0.0747 -0.5687  0.6537
  121OSM    H7F12858   5.233   3.769  10.014 -1.5065 -0.2223  0.9773
  121OSM    H7G12859   5.367   3.890  10.021  0.3438  3.2128 -3.0246
  121OSM    C8F12860   5.198   3.918   9.867 -0.4696  0.4232  0.3140
  121OSM    H8F12861   5.189   4.027   9.852  1.4490  0.4223 -1.2261
  121OSM    H8G12862   5.093   3.881   9.871 -0.2896 -0.3109 -1.1468
  121OSM    C9F12863   5.254   3.856   9.739 -0.2814 -0.3876  0.4752
  121OSM    H9F12864   5.323   3.776   9.770  2.2307  1.2315 -0.5326
  121OSM   C10F12865   5.243   3.878   9.606 -0.3200  0.0321  0.0163
  121OSM   H10F12866   5.295   3.815   9.532  1.9909  0.1932  1.4182
  121OSM   C11F12867   5.158   3.987   9.549 -0.1891  0.4107 -0.3710
  121OSM   H11F12868   5.229   4.069   9.525  1.6942 -0.5280  1.6649
  121OSM   H11G12869   5.079   4.011   9.624  0.3542  1.7630 -0.1916
  121OSM   C12F12870   5.085   3.949   9.419  0.1240 -0.3778 -0.1824
  121OSM   H12F12871   4.997   4.017   9.424  0.5871  0.2870 -0.8518
  121OSM   H12G12872   5.064   3.841   9.424 -0.0435 -0.5632 -3.3930
  121OSM   C13F12873   5.168   3.964   9.292 -0.2140  0.4012  0.3968
  121OSM   H13F12874   5.259   3.902   9.305 -2.1628 -2.5853  0.6755
  121OSM   H13G12875   5.202   4.069   9.276 -0.6365  0.6996  1.3678
  121OSM   C14F12876   5.087   3.925   9.166  0.0206 -0.4959  0.4093
  121OSM   H14F12877   4.985   3.969   9.160 -0.7869 -2.3905 -0.5666
  121OSM   H14G12878   5.056   3.818   9.176 -1.0950 -0.1292  1.0853
  121OSM   C15F12879   5.168   3.940   9.036  0.2682  0.2047  0.0189
  121OSM   H15F12880   5.257   3.876   9.057 -0.3644 -0.3487  1.1107
  121OSM   H15G12881   5.201   4.046   9.046  1.0594 -0.1016  0.7721
  121OSM   C16F12882   5.090   3.914   8.904 -0.9133 -0.1443 -0.0137
  121OSM   H16F12883   5.012   3.837   8.922  0.0748 -1.1640  0.0555
  121OSM   H16G12884   5.159   3.879   8.824 -1.0976  0.1743 -0.3139
  121OSM   C17F12885   5.005   4.036   8.860 -0.5729 -0.2763  0.7528
  121OSM   H17F12886   5.077   4.120   8.843  0.9992 -1.4514  1.3815
  121OSM   H17G12887   4.941   4.058   8.949  0.1453  1.9804  0.7824
  121OSM   C18F12888   4.932   4.025   8.731 -0.2034  0.3186  0.4595
  121OSM   H18F12889   4.866   4.113   8.718 -0.1020  0.6864  2.1384
  121OSM   H18G12890   4.887   3.924   8.737  0.8786 -0.2216 -0.1678
  121OSM   H18H12891   5.002   4.033   8.645  2.7824  3.9477  2.8621
  122OSM      N12892   5.473   6.404  11.011 -0.0817  0.4390  0.3597
  122OSM    C1512893   5.361   6.479  11.073 -0.0206  0.5480 -0.2878
  122OSM   H15A12894   5.273   6.425  11.043  1.2816 -3.4026  2.3079
  122OSM   H15B12895   5.356   6.586  11.056 -0.9601  0.9050  1.8781
  122OSM   H15C12896   5.365   6.477  11.181  0.6656  0.7201 -0.3049
  122OSM    C1412897   5.603   6.455  11.068 -0.3441  0.2913  0.0886
  122OSM   H14A12898   5.594   6.445  11.175  1.4226  1.0423  0.3386
  122OSM   H14B12899   5.619   6.559  11.043 -1.4434  1.0765  2.3580
  122OSM   H14C12900   5.683   6.393  11.031 -1.0780  0.5570 -2.0835
  122OSM    C1312901   5.468   6.257  11.043  0.5269  0.0776 -0.0097
  122OSM   H13A12902   5.381   6.214  10.997 -1.1242  1.7373  1.4133
  122OSM   H13B12903   5.447   6.235  11.147 -2.2246 -2.8148 -1.0284
  122OSM   H13C12904   5.548   6.196  11.003  0.4169  0.6528 -1.1549
  122OSM    C1212905   5.465   6.425  10.865  0.9232 -0.1828  0.5944
  122OSM   H12A12906   5.532   6.356  10.816  1.8662  0.9294  0.2760
  122OSM   H12B12907   5.499   6.525  10.844  2.2486 -1.0862 -1.8699
  122OSM    C1112908   5.328   6.399  10.797 -0.0793 -0.3125 -1.1915
  122OSM   H11A12909   5.353   6.432  10.694  1.3192 -0.4534 -0.9205
  122OSM   H11B12910   5.256   6.471  10.841  1.0653 -0.2959  0.7800
  122OSM      P12911   5.146   6.222  10.830 -0.1834  0.4893  0.1830
  122OSM    O1312912   5.131   6.074  10.827 -0.0403 -0.2743 -0.6337
  122OSM    O1412913   5.101   6.285  10.957  0.6454  0.2499  0.3617
  122OSM    O1112914   5.066   6.287  10.711 -0.3849  0.1293  0.2697
  122OSM    O1212915   5.289   6.262  10.802 -0.3132 -0.9739  0.1989
  122OSM    C1S12916   5.095   6.246  10.581  0.4079 -0.1382 -0.6073
  122OSM    H1S12917   5.089   6.135  10.577  0.4817 -0.2431  1.3000
  122OSM    H1T12918   5.201   6.269  10.558  0.3916  0.7407  0.1520
  122OSM     NF12919   5.021   6.273  10.346 -0.0668 -0.3891 -0.2455
  122OSM    HNF12920   5.077   6.331  10.288  3.6706 -1.8651  1.5811
  122OSM    C2S12921   4.999   6.319  10.483  0.6381 -0.5540 -0.1994
  122OSM    H2S12922   4.893   6.295  10.503  0.6818 -1.0573 -0.5680
  122OSM    C3S12923   5.016   6.468  10.509  0.1525  0.5357 -0.1638
  122OSM    H3S12924   5.123   6.499  10.507 -0.4922  2.9363 -1.1739
  122OSM     O312925   4.958   6.516  10.625 -0.6710  0.2312 -0.4527
  122OSM    HO312926   4.933   6.438  10.675  1.7061  0.1587  0.7873
  122OSM    C4S12927   4.955   6.551  10.406  0.0028 -0.1852  0.6821
  122OSM    H4S12928   4.845   6.543  10.405 -0.0767  0.7674  0.5052
  122OSM    C5S12929   5.017   6.644  10.321 -0.2638  0.2242 -0.3151
  122OSM    H5S12930   5.124   6.671  10.327  0.0226 -0.2204 -2.6799
  122OSM    C6S12931   4.968   6.743  10.212  0.3792 -0.1598  0.7569
  122OSM    H6S12932   4.997   6.713  10.109  0.4002 -0.5935  0.8860
  122OSM    H6T12933   5.012   6.845  10.219 -0.1487 -0.0156  2.5906
  122OSM    C7S12934   4.823   6.766  10.217 -0.1529  0.1428  0.7336
  122OSM    H7S12935   4.787   6.788  10.320  0.9692 -0.0032  1.1686
  122OSM    H7T12936   4.778   6.668  10.191 -0.4681  0.2445  0.8902
  122OSM    C8S12937   4.773   6.871  10.122  0.6339 -0.9782  0.5150
  122OSM    H8S12938   4.808   6.846  10.019  0.0275  1.7652 -0.4605
  122OSM    H8T12939   4.820   6.969  10.145 -0.8574 -0.4738  1.5368
  122OSM    C9S12940   4.620   6.885  10.116 -0.1848  0.4838 -0.8429
  122OSM    H9S12941   4.598   6.958  10.197  1.2484 -3.3003  3.3720
  122OSM    H9T12942   4.564   6.791  10.137  0.5601  0.3101  0.5199
  122OSM   C10S12943   4.568   6.946   9.988 -0.0444  0.1159 -0.4928
  122OSM   H10S12944   4.604   6.889   9.900  0.3848  0.7640 -0.7437
  122OSM   H10T12945   4.616   7.046   9.992  0.2716 -0.0572  0.3773
  122OSM   C11S12946   4.420   6.962   9.971 -0.1023  0.5608 -0.7153
  122OSM   H11S12947   4.405   7.052   9.907 -2.4302  0.7680  0.0192
  122OSM   H11T12948   4.381   7.005  10.066  3.1605  0.8290  0.6719
  122OSM   C12S12949   4.336   6.846   9.913 -0.0112  0.2175 -0.1703
  122OSM   H12S12950   4.230   6.880   9.902  0.6630  2.0278 -1.8535
  122OSM   H12T12951   4.349   6.765   9.987  2.1760  0.8134  0.1764
  122OSM   C13S12952   4.373   6.810   9.767 -0.0784 -0.3644 -0.2236
  122OSM   H13S12953   4.480   6.782   9.771  0.2606  0.7820 -0.7223
  122OSM   H13T12954   4.381   6.905   9.710  0.7800  0.5355  1.3133
  122OSM   C14S12955   4.267   6.721   9.691 -1.2986  0.2170 -0.2389
  122OSM   H14S12956   4.165   6.762   9.704 -1.8414 -1.1959  0.1418
  122OSM   H14T12957   4.271   6.631   9.755  1.3898  0.0227 -0.5401
  122OSM   C15S12958   4.312   6.690   9.551 -0.0524  0.2163 -0.5584
  122OSM   H15S12959   4.422   6.672   9.550  0.4006  2.6745 -1.7737
  122OSM   H15T12960   4.305   6.773   9.478 -1.0201 -1.1393 -2.0985
  122OSM   C16S12961   4.245   6.573   9.489 -0.2227 -0.0286 -0.4755
  122OSM   H16S12962   4.135   6.587   9.491 -0.1358  0.6834  1.1331
  122OSM   H16T12963   4.281   6.485   9.546 -1.4590 -1.3164 -1.6293
  122OSM   C17S12964   4.287   6.560   9.346 -0.6740  0.3463  0.1125
  122OSM   H17S12965   4.257   6.461   9.306  2.8443 -1.0804  0.6578
  122OSM   H17T12966   4.398   6.552   9.346 -0.7230 -1.3143  2.8602
  122OSM   C18S12967   4.239   6.672   9.250 -0.3941  0.3680 -0.1231
  122OSM   H18S12968   4.273   6.774   9.280 -0.1238 -0.1033  1.2643
  122OSM   H18T12969   4.128   6.679   9.245 -0.3732  1.2338  0.3116
  122OSM   H18U12970   4.281   6.640   9.153 -0.0871 -0.8053  0.3775
  122OSM    C1F12971   4.994   6.157  10.298  0.3627  0.6683  0.0399
  122OSM     OF12972   4.930   6.074  10.365  0.2780  0.0124 -0.6371
  122OSM    C2F12973   5.051   6.124  10.166 -0.1940  0.2383 -0.2759
  122OSM    H2F12974   5.151   6.076  10.160 -0.6943 -0.8324 -0.4761
  122OSM    H2G12975   5.063   6.222  10.117  2.3126  0.6268  0.9598
  122OSM    C3F12976   4.956   6.038  10.079  0.8176  0.5326 -0.7748
  122OSM    H3F12977   4.857   6.086  10.062  1.1354  1.7450  0.5864
  122OSM    H3G12978   4.934   5.935  10.115 -3.1350  1.1025 -1.1607
  122OSM    C4F12979   5.014   6.009   9.937  0.4611 -0.1771  0.3873
  122OSM    H4F12980   5.103   5.944   9.939  0.0707 -0.7153  0.4847
  122OSM    H4G12981   5.045   6.107   9.893 -0.1753 -0.6974 -1.2982
  122OSM    C5F12982   4.909   5.950   9.841  0.0151 -0.2773 -0.0788
  122OSM    H5F12983   4.814   6.008   9.842 -0.0585 -0.3929  0.6153
  122OSM    H5G12984   4.880   5.848   9.874 -1.8824  0.3030  0.1579
  122OSM    C6F12985   4.963   5.934   9.696 -0.7355 -0.2812  0.2110
  122OSM    H6F12986   5.053   5.868   9.702  0.6924  1.5685 -0.1052
  122OSM    H6G12987   5.000   6.025   9.644  4.0946 -2.3527 -0.5914
  122OSM    C7F12988   4.865   5.857   9.600  0.0801  0.2859 -0.4746
  122OSM    H7F12989   4.767   5.902   9.626 -0.0365 -0.9480  1.3650
  122OSM    H7G12990   4.865   5.749   9.622 -3.3783  0.0266 -1.1393
  122OSM    C8F12991   4.889   5.876   9.447 -0.0243  0.2247 -0.7517
  122OSM    H8F12992   4.817   5.809   9.395  0.6110 -0.9499 -0.1617
  122OSM    H8G12993   4.988   5.831   9.425  0.1466  1.5418 -2.9776
  122OSM    C9F12994   4.870   6.018   9.418 -0.1609 -0.9071 -0.0351
  122OSM    H9F12995   4.773   6.063   9.443 -0.2195 -1.9780  1.8384
  122OSM   C10F12996   4.966   6.089   9.358  0.7491  0.3034  0.2323
  122OSM   H10F12997   4.943   6.196   9.361  1.1898  0.4274 -0.6685
  122OSM   C11F12998   5.103   6.049   9.301 -0.0360  0.1680  0.0804
  122OSM   H11F12999   5.100   5.963   9.230  4.1789  2.3367 -3.2213
  122OSM   H11G13000   5.182   6.036   9.378  0.0748  1.6274  0.2411
  122OSM   C12F13001   5.161   6.159   9.206 -0.0078  0.3049  0.1416
  122OSM   H12F13002   5.182   6.254   9.260  1.4656  0.6445 -0.9821
  122OSM   H12G13003   5.086   6.191   9.130 -1.0062 -2.1008  0.0160
  122OSM   C13F13004   5.285   6.103   9.125 -0.7395  0.3653 -0.2395
  122OSM   H13F13005   5.245   6.007   9.087  3.7635 -1.5348 -0.6887
  122OSM   H13G13006   5.362   6.092   9.204 -0.8288 -0.7841 -0.3029
  122OSM   C14F13007   5.323   6.187   9.006  0.0651 -0.2122 -0.3331
  122OSM   H14F13008   5.226   6.206   8.954 -0.7059  0.7986  1.4054
  122OSM   H14G13009   5.390   6.129   8.939  0.6978  0.4704 -0.3005
  122OSM   C15F13010   5.400   6.317   9.048 -0.1636 -0.0034 -0.1633
  122OSM   H15F13011   5.477   6.297   9.125 -0.8776 -1.6239  0.1583
  122OSM   H15G13012   5.332   6.391   9.096 -2.2833 -1.7395 -0.3374
  122OSM   C16F13013   5.473   6.381   8.928  0.4379 -0.0471 -0.0179
  122OSM   H16F13014   5.394   6.412   8.856  1.1517  1.8537 -0.0198
  122OSM   H16G13015   5.546   6.322   8.869  1.2085  2.2062 -1.4197
  122OSM   C17F13016   5.528   6.526   8.964 -0.3243  0.2563 -0.3413
  122OSM   H17F13017   5.447   6.590   9.006 -0.6305  0.1211 -0.7135
  122OSM   H17G13018   5.556   6.573   8.867  0.6425  0.5831  0.0900
  122OSM   C18F13019   5.655   6.541   9.047  0.4793  0.5035  0.1847
  122OSM   H18F13020   5.743   6.494   8.998  0.7009 -0.2040  1.2276
  122OSM   H18G13021   5.657   6.491   9.146  0.0791 -0.7527 -0.4253
  122OSM   H18H13022   5.672   6.650   9.062  0.6751  0.5567 -0.3785
  123OSM      N13023   4.245   0.679   6.188 -0.0473 -0.0754 -0.4996
  123OSM    C1513024   4.358   0.768   6.154  0.0936 -0.2999  0.0287
  123OSM   H15A13025   4.327   0.845   6.084  3.2410 -1.3144 -2.7601
  123OSM   H15B13026   4.442   0.717   6.110 -0.1420  1.0891 -2.1994
  123OSM   H15C13027   4.389   0.829   6.236 -0.6169  1.7580 -1.1591
  123OSM    C1413028   4.268   0.627   6.327 -0.3601 -0.3014  0.3381
  123OSM   H14A13029   4.297   0.708   6.392  0.2177  0.2694 -0.6060
  123OSM   H14B13030   4.354   0.562   6.328  0.7626  1.0848 -1.2464
  123OSM   H14C13031   4.182   0.589   6.381 -0.2213  0.6409  1.2590
  123OSM    C1313032   4.121   0.764   6.202  0.2930  0.3651  0.5308
  123OSM   H13A13033   4.132   0.835   6.283 -1.2753 -0.3918  1.4687
  123OSM   H13B13034   4.036   0.703   6.231  0.2151  0.8357  1.3118
  123OSM   H13C13035   4.093   0.806   6.107 -0.9423 -0.6680  0.4014
  123OSM    C1213036   4.221   0.562   6.089 -0.1247  1.1200 -0.0703
  123OSM   H12A13037   4.314   0.512   6.062 -0.4995  0.2986  0.1174
  123OSM   H12B13038   4.178   0.612   6.004  0.1497 -1.3837 -1.8055
  123OSM    C1113039   4.124   0.451   6.130  0.3654  0.2839  0.6966
  123OSM   H11A13040   4.076   0.402   6.042 -0.3591  0.7076  0.8458
  123OSM   H11B13041   4.042   0.502   6.185  1.3512  2.1458  0.5026
  123OSM      P13042   4.159   0.212   6.247 -0.0043  0.3671  0.2994
  123OSM    O1313043   4.028   0.178   6.189 -0.4121 -0.4525 -0.0202
  123OSM    O1413044   4.273   0.127   6.202  0.3769 -0.3561  0.2656
  123OSM    O1113045   4.138   0.217   6.406 -0.1014  0.5703 -0.1358
  123OSM    O1213046   4.193   0.362   6.217 -0.2180 -0.4471  0.2475
  123OSM    C1S13047   4.019   0.274   6.455  0.0750  0.3526  0.4886
  123OSM    H1S13048   3.944   0.193   6.447  0.1928 -0.1360  3.3816
  123OSM    H1T13049   3.980   0.364   6.402 -1.5045 -1.1062 -0.9379
  123OSM     NF13050   3.891   0.308   6.660 -0.2133  0.4891 -0.2848
  123OSM    HNF13051   3.849   0.398   6.668 -2.0688 -0.4395  1.2970
  123OSM    C2S13052   4.027   0.302   6.607 -0.3673 -0.4601  0.2477
  123OSM    H2S13053   4.079   0.212   6.648 -1.2503 -0.3287  1.7110
  123OSM    C3S13054   4.107   0.434   6.622 -0.0058  0.3551  0.9199
  123OSM    H3S13055   4.053   0.514   6.566 -1.4334 -0.9869  0.3174
  123OSM     O313056   4.244   0.448   6.566 -0.2100  0.2240 -0.1872
  123OSM    HO313057   4.241   0.368   6.514  0.3250  0.0024  0.1168
  123OSM    C4S13058   4.101   0.463   6.769  0.8805  1.3171 -0.1285
  123OSM    H4S13059   4.004   0.507   6.796  0.4868 -0.0834  0.8242
  123OSM    C5S13060   4.201   0.443   6.864  0.1534  0.0671 -0.0401
  123OSM    H5S13061   4.298   0.408   6.828  1.0016  1.8332  0.4367
  123OSM    C6S13062   4.196   0.478   7.008 -0.1392 -0.0201 -0.0099
  123OSM    H6S13063   4.271   0.552   7.043  0.3375 -1.3333  1.9161
  123OSM    H6T13064   4.230   0.384   7.056  3.5398  0.1734 -1.8371
  123OSM    C7S13065   4.063   0.506   7.083 -0.2380  0.7372 -0.9172
  123OSM    H7S13066   3.990   0.431   7.046  1.0496  0.0229 -2.0935
  123OSM    H7T13067   4.039   0.614   7.073  3.0295  1.5667 -0.8792
  123OSM    C8S13068   4.071   0.488   7.237  0.9602  0.2353 -0.2199
  123OSM    H8S13069   4.127   0.396   7.265 -0.2378 -0.3050  0.5204
  123OSM    H8T13070   3.966   0.481   7.272  0.3420 -1.1708 -2.1660
  123OSM    C9S13071   4.142   0.602   7.308 -0.0888  0.1933  0.3079
  123OSM    H9S13072   4.082   0.695   7.297 -1.7055 -0.5989  1.9108
  123OSM    H9T13073   4.242   0.607   7.259  0.2133  0.7845  0.9639
  123OSM   C10S13074   4.167   0.577   7.454 -0.0242 -1.1088  0.3217
  123OSM   H10S13075   4.239   0.496   7.478  0.8545 -0.4906 -0.1554
  123OSM   H10T13076   4.068   0.552   7.499 -0.5476 -1.2777 -0.8784
  123OSM   C11S13077   4.202   0.707   7.533 -1.5567 -0.7300 -0.3020
  123OSM   H11S13078   4.134   0.790   7.504 -0.1934 -0.2708 -2.4663
  123OSM   H11T13079   4.308   0.727   7.506 -0.9104 -1.0709  1.7989
  123OSM   C12S13080   4.182   0.681   7.684 -0.3715 -0.1977 -0.4465
  123OSM   H12S13081   4.216   0.581   7.719  0.1778 -0.7821 -2.5506
  123OSM   H12T13082   4.075   0.677   7.712 -0.0314 -0.2770  0.9578
  123OSM   C13S13083   4.241   0.791   7.778  0.4976 -0.3408 -0.4286
  123OSM   H13S13084   4.223   0.750   7.880 -0.5464  1.0156 -0.0376
  123OSM   H13T13085   4.185   0.886   7.769  1.2099 -0.0906 -2.6916
  123OSM   C14S13086   4.387   0.811   7.758  0.0402  0.4686  0.2614
  123OSM   H14S13087   4.387   0.869   7.663 -2.1428 -1.6099 -1.0865
  123OSM   H14T13088   4.434   0.711   7.748 -0.9950 -0.1814  1.6120
  123OSM   C15S13089   4.461   0.897   7.862  0.6324 -0.6933  0.0840
  123OSM   H15S13090   4.468   0.836   7.954  0.5254 -0.9542 -0.0812
  123OSM   H15T13091   4.395   0.983   7.887  0.5462 -0.9696  0.8502
  123OSM   C16S13092   4.595   0.950   7.820  1.6000 -0.2069  0.5395
  123OSM   H16S13093   4.571   1.018   7.735 -1.7192 -1.1700  0.5554
  123OSM   H16T13094   4.654   0.864   7.781 -0.1309 -0.4281 -1.8420
  123OSM   C17S13095   4.686   1.016   7.916 -0.2234  0.3602 -0.1991
  123OSM   H17S13096   4.697   0.944   8.000  0.0518  0.6895  0.0475
  123OSM   H17T13097   4.644   1.108   7.964  1.7692  1.1567  0.1117
  123OSM   C18S13098   4.828   1.041   7.857 -0.1432 -0.6904  0.4213
  123OSM   H18S13099   4.876   0.946   7.824  1.0449  0.5650 -1.7358
  123OSM   H18T13100   4.898   1.087   7.930  1.4842 -1.8852 -0.3178
  123OSM   H18U13101   4.818   1.107   7.768 -1.5314  2.4008  2.6830
  123OSM    C1F13102   3.810   0.201   6.673  0.5078  0.2796 -0.1572
  123OSM     OF13103   3.837   0.091   6.630 -0.2626 -0.2237 -0.5148
  123OSM    C2F13104   3.669   0.232   6.731  0.2034 -0.6606 -0.2541
  123OSM    H2F13105   3.590   0.192   6.664 -1.0001 -0.0639  0.7814
  123OSM    H2G13106   3.668   0.340   6.758 -2.3196 -0.6019 -0.3927
  123OSM    C3F13107   3.639   0.156   6.862 -0.3970  0.5522  0.4034
  123OSM    H3F13108   3.719   0.182   6.934 -2.5636 -0.5079  3.3895
  123OSM    H3G13109   3.649   0.047   6.843 -1.9376  0.5210 -0.3846
  123OSM    C4F13110   3.497   0.172   6.925  0.0577 -1.2522 -0.5594
  123OSM    H4F13111   3.453   0.075   6.957  0.8220 -1.0862  1.1168
  123OSM    H4G13112   3.418   0.199   6.852  0.6024 -0.0090 -0.7152
  123OSM    C5F13113   3.489   0.263   7.051  0.3127  0.3377 -0.1683
  123OSM    H5F13114   3.537   0.360   7.026 -0.2096  0.1849 -1.8667
  123OSM    H5G13115   3.554   0.223   7.132  1.2206  2.3240  0.1376
  123OSM    C6F13116   3.346   0.281   7.108 -0.0199  0.1346 -1.0694
  123OSM    H6F13117   3.324   0.186   7.162  1.5567 -1.3311 -2.8763
  123OSM    H6G13118   3.270   0.279   7.026 -1.9513 -1.2540  0.6439
  123OSM    C7F13119   3.334   0.410   7.194  0.0088 -1.1545  0.5895
  123OSM    H7F13120   3.309   0.494   7.126 -2.2253 -0.5363  2.0619
  123OSM    H7G13121   3.427   0.427   7.254  0.4057  0.6467 -0.4545
  123OSM    C8F13122   3.209   0.407   7.282 -0.0088 -0.5692 -0.1088
  123OSM    H8F13123   3.117   0.378   7.227 -0.9311 -2.2277  2.1543
  123OSM    H8G13124   3.192   0.511   7.319 -1.3506 -0.1412 -1.8119
  123OSM    C9F13125   3.225   0.299   7.385  0.0114  0.1873  0.3676
  123OSM    H9F13126   3.190   0.205   7.340  1.3304  1.3664 -3.5332
  123OSM   C10F13127   3.308   0.301   7.489 -0.5330  0.6382  0.5570
  123OSM   H10F13128   3.323   0.213   7.553  0.4154  1.5638  1.6399
  123OSM   C11F13129   3.396   0.417   7.529  0.9549  0.1737 -0.0441
  123OSM   H11F13130   3.381   0.508   7.467  0.0182  0.4899  0.6266
  123OSM   H11G13131   3.500   0.390   7.502  0.0944  0.9076 -5.1791
  123OSM   C12F13132   3.368   0.437   7.684  0.3893  0.1943  0.1742
  123OSM   H12F13133   3.408   0.346   7.733  0.1230 -0.1981 -0.3233
  123OSM   H12G13134   3.258   0.444   7.701  0.0885  0.1148 -1.4884
  123OSM   C13F13135   3.429   0.566   7.730 -0.7931  0.7808 -0.2056
  123OSM   H13F13136   3.379   0.656   7.686 -0.7508  0.0167 -1.9278
  123OSM   H13G13137   3.532   0.560   7.690 -0.3409  1.2084  0.8764
  123OSM   C14F13138   3.431   0.584   7.886 -0.5266  0.3994  0.4062
  123OSM   H14F13139   3.508   0.514   7.925 -0.9654  0.1251  0.7954
  123OSM   H14G13140   3.329   0.555   7.922 -0.4083  0.8558  1.1487
  123OSM   C15F13141   3.456   0.729   7.923 -0.3937  0.1239  0.1158
  123OSM   H15F13142   3.405   0.789   7.844 -1.5039 -0.4595  0.3683
  123OSM   H15G13143   3.565   0.750   7.921  0.0197 -1.8005  0.8460
  123OSM   C16F13144   3.396   0.774   8.057  0.3499 -0.3396  0.1788
  123OSM   H16F13145   3.285   0.767   8.060  0.1320  2.1375  0.3323
  123OSM   H16G13146   3.415   0.883   8.069 -0.7641 -0.2412  1.2293
  123OSM   C17F13147   3.463   0.703   8.172  0.4267  0.3418 -0.5084
  123OSM   H17F13148   3.571   0.724   8.164  0.7235 -1.3218 -1.5022
  123OSM   H17G13149   3.453   0.594   8.151 -0.5243  0.4816 -0.8201
  123OSM   C18F13150   3.413   0.728   8.311 -0.1565 -0.5157 -0.1720
  123OSM   H18F13151   3.306   0.699   8.312  0.2737 -2.2255  0.3981
  123OSM   H18G13152   3.433   0.829   8.353  2.7801 -0.4656 -1.4624
  123OSM   H18H13153   3.463   0.649   8.372 -1.3483 -1.3405 -0.2370
  124OSM      N13154   5.479   5.015   6.221 -0.7164 -0.7172  0.2543
  124OSM    C1513155   5.478   5.092   6.097 -0.5382 -0.1151 -0.3301
  124OSM   H15A13156   5.537   5.182   6.101 -2.2561  1.1557 -1.9816
  124OSM   H15B13157   5.375   5.119   6.079 -1.2385 -2.0266  0.5080
  124OSM   H15C13158   5.523   5.042   6.012 -0.6054 -0.3842 -0.2108
  124OSM    C1413159   5.622   4.976   6.220 -0.3867 -0.3696 -0.2126
  124OSM   H14A13160   5.630   4.911   6.134  1.7398 -0.6182  0.1233
  124OSM   H14B13161   5.642   4.915   6.307 -0.1592 -0.7297 -0.5139
  124OSM   H14C13162   5.696   5.054   6.210  0.5358 -1.0580  0.9871
  124OSM    C1313163   5.437   5.089   6.343 -0.8276 -0.2065 -0.6406
  124OSM   H13A13164   5.333   5.117   6.335 -0.7865  0.1482 -0.0253
  124OSM   H13B13165   5.480   5.183   6.374  1.3916 -1.0933 -0.8102
  124OSM   H13C13166   5.452   5.028   6.431  0.2511 -0.1699 -0.7805
  124OSM    C1213167   5.395   4.887   6.207 -0.8125  0.4849 -0.0541
  124OSM   H12A13168   5.428   4.828   6.123 -1.8021 -0.0099 -0.1040
  124OSM   H12B13169   5.294   4.917   6.182 -0.0232  1.8203 -1.8264
  124OSM    C1113170   5.389   4.803   6.326 -0.7313 -0.8034 -0.1701
  124OSM   H11A13171   5.319   4.718   6.313  0.0284 -1.3024 -1.1854
  124OSM   H11B13172   5.347   4.854   6.415  0.9696 -1.4345  1.0523
  124OSM      P13173   5.563   4.596   6.362  0.2969  0.3771 -0.2627
  124OSM    O1313174   5.454   4.511   6.312 -0.4210 -0.7209  0.4193
  124OSM    O1413175   5.682   4.586   6.278  0.2480  0.2521  0.1841
  124OSM    O1113176   5.601   4.556   6.511  0.0390  0.1284 -0.3382
  124OSM    O1213177   5.515   4.746   6.360  0.2650  0.0259 -0.1059
  124OSM    C1S13178   5.659   4.635   6.606  0.0167 -0.1270 -0.1443
  124OSM    H1S13179   5.600   4.729   6.617  1.8296  1.0285  0.1710
  124OSM    H1T13180   5.763   4.664   6.581  0.8382 -1.3066  1.6892
  124OSM     NF13181   5.758   4.662   6.839 -0.8279  0.1792 -0.8031
  124OSM    HNF13182   5.841   4.619   6.873 -0.7336 -0.0750 -1.3395
  124OSM    C2S13183   5.678   4.574   6.751 -0.0385  0.7960 -0.3060
  124OSM    H2S13184   5.573   4.571   6.787 -0.4498  0.7183 -1.4532
  124OSM    C3S13185   5.727   4.427   6.752  0.1856  0.0838  0.2246
  124OSM    H3S13186   5.834   4.433   6.723 -0.2532 -0.2618 -1.6336
  124OSM     O313187   5.652   4.347   6.661  0.4416  0.3306  0.5356
  124OSM    HO313188   5.627   4.417   6.600  0.4235 -0.5043 -0.4492
  124OSM    C4S13189   5.717   4.364   6.888 -0.0340 -0.1711  0.1792
  124OSM    H4S13190   5.813   4.324   6.922  2.8412  4.8729 -0.9605
  124OSM    C5S13191   5.607   4.337   6.963 -0.1754 -0.0664 -0.4363
  124OSM    H5S13192   5.505   4.362   6.930 -0.0685  0.7918 -0.1475
  124OSM    C6S13193   5.616   4.262   7.095 -0.0095  0.2863 -0.4955
  124OSM    H6S13194   5.569   4.325   7.173 -1.6242  0.7221 -1.7712
  124OSM    H6T13195   5.724   4.256   7.121 -0.0270  1.0199 -0.2489
  124OSM    C7S13196   5.550   4.123   7.099  0.1020  0.1840  0.1767
  124OSM    H7S13197   5.566   4.068   7.003 -0.4887 -0.6658  0.5480
  124OSM    H7T13198   5.440   4.134   7.093 -0.0089 -1.3225 -3.7351
  124OSM    C8S13199   5.583   4.044   7.227  0.4400  0.1007  0.0916
  124OSM    H8S13200   5.693   4.045   7.243  0.4986  2.0292 -0.2631
  124OSM    H8T13201   5.566   3.939   7.195 -0.8848  0.4727 -0.4645
  124OSM    C9S13202   5.511   4.083   7.357  0.3520 -0.4457 -0.4389
  124OSM    H9S13203   5.407   4.044   7.353  0.4662 -0.6952 -1.0827
  124OSM    H9T13204   5.505   4.194   7.360  0.2693 -0.4307 -1.0736
  124OSM   C10S13205   5.568   4.013   7.491 -0.2108 -0.5309 -0.3941
  124OSM   H10S13206   5.664   4.068   7.499 -0.3194 -0.1853 -1.3515
  124OSM   H10T13207   5.588   3.907   7.464  1.9146 -0.0291 -0.9746
  124OSM   C11S13208   5.476   4.029   7.606  0.1457  0.3694 -0.2498
  124OSM   H11S13209   5.384   3.971   7.584 -0.0692 -0.1743  1.8454
  124OSM   H11T13210   5.445   4.136   7.614  0.1891  0.2497  1.9579
  124OSM   C12S13211   5.525   3.972   7.744 -0.1815  0.1316  0.1952
  124OSM   H12S13212   5.610   4.031   7.783  0.1306 -0.7198  0.8340
  124OSM   H12T13213   5.560   3.868   7.724 -0.6529 -0.1678  0.8893
  124OSM   C13S13214   5.421   3.957   7.853  0.7165 -0.1959  0.0470
  124OSM   H13S13215   5.326   3.929   7.801  0.4413  1.3701 -0.3424
  124OSM   H13T13216   5.386   4.060   7.877  1.3982  0.7675 -2.6680
  124OSM   C14S13217   5.445   3.867   7.977  0.4310  0.2341  0.4500
  124OSM   H14S13218   5.538   3.914   8.017  0.7528 -0.8050  0.9473
  124OSM   H14T13219   5.467   3.765   7.941  0.4146  0.2821  0.3032
  124OSM   C15S13220   5.334   3.863   8.080  0.4988 -0.0639  0.5045
  124OSM   H15S13221   5.286   3.962   8.093 -1.0427 -0.8492  1.0306
  124OSM   H15T13222   5.371   3.821   8.176  1.4416 -1.8280 -0.5728
  124OSM   C16S13223   5.220   3.772   8.032 -0.4070  0.9089  0.4797
  124OSM   H16S13224   5.257   3.673   7.998 -0.1782  1.9331 -2.5652
  124OSM   H16T13225   5.161   3.817   7.950 -0.7141  3.2867  1.9269
  124OSM   C17S13226   5.110   3.748   8.136 -1.4004  0.3531  0.0293
  124OSM   H17S13227   5.149   3.690   8.223 -1.4298  2.1997  1.3509
  124OSM   H17T13228   5.030   3.680   8.100 -1.2019 -0.9140  1.8343
  124OSM   C18S13229   5.044   3.880   8.178  0.0977  0.2909 -0.1718
  124OSM   H18S13230   5.111   3.939   8.244 -1.5308  0.4534  1.4250
  124OSM   H18T13231   4.951   3.862   8.236 -0.4148  0.1211 -1.0410
  124OSM   H18U13232   5.012   3.932   8.086  0.5829 -1.0713 -1.1393
  124OSM    C1F13233   5.720   4.783   6.886 -0.1025  0.6947  0.4965
  124OSM     OF13234   5.619   4.830   6.844 -0.1500 -0.6067 -0.4670
  124OSM    C2F13235   5.809   4.849   6.986 -0.8536  0.1948 -0.4901
  124OSM    H2F13236   5.832   4.952   6.951  4.1726 -1.0775 -1.7897
  124OSM    H2G13237   5.893   4.782   7.014 -0.1881  1.0985 -0.2733
  124OSM    C3F13238   5.728   4.845   7.123  0.0277 -0.4213  0.4162
  124OSM    H3F13239   5.710   4.740   7.155 -2.9275 -0.6512 -1.5852
  124OSM    H3G13240   5.624   4.883   7.116  0.3021  0.2897  0.1178
  124OSM    C4F13241   5.786   4.914   7.246  0.2343  0.2193 -0.5441
  124OSM    H4F13242   5.801   5.023   7.227  1.9104  0.2479  0.7515
  124OSM    H4G13243   5.891   4.881   7.262  0.5122  0.1152 -2.3382
  124OSM    C5F13244   5.706   4.890   7.375  0.3005 -0.3766  0.0149
  124OSM    H5F13245   5.698   4.781   7.394  1.2388 -0.3097  0.8931
  124OSM    H5G13246   5.604   4.935   7.368  0.7000  0.3874 -5.9026
  124OSM    C6F13247   5.799   4.951   7.492 -0.2259 -0.2664  0.0029
  124OSM    H6F13248   5.791   5.061   7.490 -0.7783 -0.2977  0.2247
  124OSM    H6G13249   5.904   4.918   7.483 -0.4116 -1.9494  2.8653
  124OSM    C7F13250   5.773   4.917   7.641 -0.0006  0.8396  0.0703
  124OSM    H7F13251   5.805   4.812   7.656 -0.0859  0.6392 -1.0331
  124OSM    H7G13252   5.668   4.936   7.671  0.1617 -2.4906  3.4840
  124OSM    C8F13253   5.858   5.003   7.728 -0.0725 -0.0753  0.0780
  124OSM    H8F13254   5.826   5.110   7.731 -1.4854 -0.4940  1.3256
  124OSM    H8G13255   5.953   5.002   7.670 -0.0075 -1.3516  0.2000
  124OSM    C9F13256   5.881   4.945   7.868 -0.1218  0.2773 -0.1226
  124OSM    H9F13257   5.970   4.881   7.868  1.6225  2.5609  0.3015
  124OSM   C10F13258   5.802   4.947   7.974  0.1891  0.4184 -0.0563
  124OSM   H10F13259   5.852   4.909   8.065 -1.7678  0.0949  0.9541
  124OSM   C11F13260   5.668   5.017   7.972 -0.4915  0.3502  0.3678
  124OSM   H11F13261   5.641   5.038   7.866 -1.1561  0.0330  0.4655
  124OSM   H11G13262   5.662   5.110   8.034 -1.0693  2.2635 -2.3631
  124OSM   C12F13263   5.555   4.923   8.023 -0.5703  0.3599 -0.1853
  124OSM   H12F13264   5.569   4.833   7.960 -0.6242 -0.0412  0.3673
  124OSM   H12G13265   5.456   4.963   7.992 -0.4756  0.9465  0.2365
  124OSM   C13F13266   5.557   4.900   8.176 -0.4155 -0.1209 -0.7810
  124OSM   H13F13267   5.563   5.002   8.218 -1.2579 -0.9931  1.6186
  124OSM   H13G13268   5.654   4.853   8.204  0.5465  1.8144 -0.7364
  124OSM   C14F13269   5.444   4.814   8.219 -0.3303 -0.2830  0.2977
  124OSM   H14F13270   5.446   4.715   8.168  1.4275  0.1645 -0.5811
  124OSM   H14G13271   5.349   4.857   8.179  0.7858  1.0742 -1.0264
  124OSM   C15F13272   5.446   4.788   8.373  0.4550 -0.5098  0.3903
  124OSM   H15F13273   5.436   4.879   8.436 -0.6676 -0.5102  0.2214
  124OSM   H15G13274   5.535   4.725   8.398  0.9145  0.6961  1.9395
  124OSM   C16F13275   5.322   4.703   8.400 -0.1327  0.3433  0.6697
  124OSM   H16F13276   5.332   4.613   8.336  0.6205  1.6798 -1.2008
  124OSM   H16G13277   5.231   4.762   8.372  0.5285  0.6587 -0.9375
  124OSM   C17F13278   5.315   4.665   8.549 -0.3720  0.3904 -0.3178
  124OSM   H17F13279   5.407   4.612   8.583 -1.5634 -0.1525  2.2870
  124OSM   H17G13280   5.237   4.589   8.568  0.8592 -0.5482  1.2424
  124OSM   C18F13281   5.304   4.777   8.655 -0.2817  0.4733  0.2944
  124OSM   H18F13282   5.273   4.745   8.757 -2.5178  2.5260  0.3515
  124OSM   H18G13283   5.215   4.837   8.625 -0.5683 -0.4914 -0.8809
  124OSM   H18H13284   5.392   4.843   8.669  0.8393 -1.3414  2.5928
  125OSM      N13285   0.532   4.448   6.461 -0.1362 -0.2629 -0.6116
  125OSM    C1513286   0.441   4.489   6.579 -0.3098 -0.2156 -0.6735
  125OSM   H15A13287   0.483   4.580   6.621  1.6761 -1.6916  0.6965
  125OSM   H15B13288   0.437   4.426   6.667 -2.0914  1.3828  0.4980
  125OSM   H15C13289   0.343   4.521   6.545 -0.0320  1.0857 -0.3085
  125OSM    C1413290   0.641   4.366   6.523  0.3400  0.1114 -0.2243
  125OSM   H14A13291   0.699   4.408   6.604  0.0357  1.3127 -0.5939
  125OSM   H14B13292   0.714   4.364   6.443  0.4088  0.4749 -0.1736
  125OSM   H14C13293   0.615   4.266   6.551  1.1693 -0.7014 -2.1716
  125OSM    C1313294   0.452   4.361   6.370  0.6525  0.1130  0.3244
  125OSM   H13A13295   0.410   4.282   6.431 -4.5001  0.7124 -1.9122
  125OSM   H13B13296   0.506   4.320   6.286 -0.0905  1.7241 -0.9861
  125OSM   H13C13297   0.367   4.410   6.325  2.3140  0.7519 -2.3776
  125OSM    C1213298   0.591   4.560   6.378  0.3094  0.8106  0.0712
  125OSM   H12A13299   0.515   4.598   6.311 -1.3617  0.0138  1.4554
  125OSM   H12B13300   0.659   4.517   6.306 -1.7483 -0.6351 -1.1261
  125OSM    C1113301   0.650   4.684   6.449 -0.2696 -0.2587 -0.4851
  125OSM   H11A13302   0.697   4.750   6.374  1.1420  1.2857  1.6579
  125OSM   H11B13303   0.737   4.648   6.507 -1.1774 -1.7233  0.0396
  125OSM      P13304   0.474   4.861   6.452 -0.2728  0.0520 -0.6472
  125OSM    O1313305   0.479   4.833   6.303 -0.0471 -0.5507 -0.8432
  125OSM    O1413306   0.338   4.866   6.513  0.3202 -0.2184 -0.3446
  125OSM    O1113307   0.557   4.990   6.493  0.0929 -0.0946 -0.4344
  125OSM    O1213308   0.558   4.761   6.535 -0.1250  0.5755 -0.1755
  125OSM    C1S13309   0.565   5.019   6.635  0.2946 -0.0452  0.1041
  125OSM    H1S13310   0.640   4.955   6.686 -0.0201  0.0219  0.6616
  125OSM    H1T13311   0.472   4.995   6.691  0.2624 -0.2335 -0.0295
  125OSM     NF13312   0.618   5.204   6.806  0.2546 -0.0655  0.5499
  125OSM    HNF13313   0.529   5.240   6.833  0.9764  2.8017 -0.5508
  125OSM    C2S13314   0.618   5.162   6.666  0.1176 -0.8302  0.3012
  125OSM    H2S13315   0.722   5.164   6.626  0.3154 -0.1626  0.8373
  125OSM    C3S13316   0.549   5.266   6.577  0.1185  0.3652  0.3240
  125OSM    H3S13317   0.440   5.266   6.597 -0.1179  1.1506 -0.8649
  125OSM     O313318   0.544   5.237   6.434  0.5882  0.3264 -0.1158
  125OSM    HO313319   0.547   5.141   6.432 -1.3603  0.1884  1.1519
  125OSM    C4S13320   0.613   5.403   6.597 -0.0136  0.0160 -0.2471
  125OSM    H4S13321   0.715   5.413   6.557  0.3761 -0.7734  0.5136
  125OSM    C5S13322   0.559   5.502   6.668  0.1020  0.1446 -0.1458
  125OSM    H5S13323   0.456   5.493   6.708 -0.0817 -1.2237 -0.8735
  125OSM    C6S13324   0.608   5.643   6.693 -0.0401 -0.2929 -0.2445
  125OSM    H6S13325   0.517   5.706   6.688 -0.9465 -1.4118  1.4805
  125OSM    H6T13326   0.682   5.683   6.620  2.2266  0.3938  2.2351
  125OSM    C7S13327   0.679   5.638   6.832  0.1872 -0.2017  0.0081
  125OSM    H7S13328   0.729   5.737   6.840  1.4959 -0.9432  1.4661
  125OSM    H7T13329   0.765   5.570   6.816 -0.3098 -1.0541  0.8940
  125OSM    C8S13330   0.597   5.602   6.960  0.1574  0.5144 -0.0655
  125OSM    H8S13331   0.578   5.492   6.967  1.2797  0.0936 -2.6774
  125OSM    H8T13332   0.504   5.662   6.957 -0.5559 -0.5976 -0.9733
  125OSM    C9S13333   0.692   5.641   7.076 -0.2814  0.1190 -0.1888
  125OSM    H9S13334   0.749   5.732   7.049 -0.7954  0.3650 -0.4615
  125OSM    H9T13335   0.768   5.561   7.090  0.4937  1.2310  2.6909
  125OSM   C10S13336   0.636   5.656   7.218 -0.0978  0.4259 -0.3291
  125OSM   H10S13337   0.584   5.567   7.260  3.5499 -0.7295  2.2106
  125OSM   H10T13338   0.568   5.744   7.226 -1.5536 -0.7437  0.7684
  125OSM   C11S13339   0.756   5.686   7.305  0.0753 -0.6817  0.6716
  125OSM   H11S13340   0.822   5.768   7.268  1.6255 -0.7736  3.0048
  125OSM   H11T13341   0.834   5.609   7.317  0.6329 -0.0900  0.9395
  125OSM   C12S13342   0.712   5.708   7.454 -0.2580  1.0133  0.5805
  125OSM   H12S13343   0.640   5.633   7.493 -0.5925  0.1021 -1.6942
  125OSM   H12T13344   0.672   5.812   7.451  0.7596  1.3889 -0.6455
  125OSM   C13S13345   0.826   5.702   7.553  0.7236  0.2813  0.3410
  125OSM   H13S13346   0.903   5.770   7.509 -0.8354  1.3793 -0.7754
  125OSM   H13T13347   0.861   5.598   7.570 -0.9501 -0.4867 -0.7146
  125OSM   C14S13348   0.778   5.749   7.695 -0.7959 -0.5331 -0.0616
  125OSM   H14S13349   0.695   5.693   7.745 -0.5878 -0.6093  0.2023
  125OSM   H14T13350   0.746   5.854   7.683 -2.0939 -1.0333 -1.1870
  125OSM   C15S13351   0.881   5.747   7.807 -0.0436 -0.0620 -0.4413
  125OSM   H15S13352   0.969   5.809   7.778 -0.4993 -0.0165 -1.7825
  125OSM   H15T13353   0.932   5.653   7.839  0.8218  0.5285 -0.0447
  125OSM   C16S13354   0.811   5.802   7.928 -0.0788 -0.1393 -0.3889
  125OSM   H16S13355   0.737   5.722   7.950  0.9816 -1.0026  0.1436
  125OSM   H16T13356   0.746   5.892   7.921 -0.9587 -0.4177  2.6399
  125OSM   C17S13357   0.899   5.814   8.054  0.1570  0.5033 -0.4338
  125OSM   H17S13358   0.965   5.726   8.072  0.1488  0.2218 -1.7241
  125OSM   H17T13359   0.823   5.824   8.135  0.2834  0.5317 -0.3168
  125OSM   C18S13360   0.995   5.934   8.073  1.2884 -0.6673  0.8035
  125OSM   H18S13361   1.082   5.928   8.004  1.0051  2.5794 -0.0190
  125OSM   H18T13362   1.041   5.932   8.175  0.7648  1.7484  1.1666
  125OSM   H18U13363   0.946   6.033   8.058  0.7920 -1.0749 -0.3372
  125OSM    C1F13364   0.699   5.143   6.890 -0.3205  0.3169 -0.5586
  125OSM     OF13365   0.789   5.072   6.847 -0.2221 -0.6327 -0.4314
  125OSM    C2F13366   0.657   5.140   7.032  0.3695 -0.0144 -0.5578
  125OSM    H2F13367   0.549   5.111   7.035  0.3048  0.0639 -1.6346
  125OSM    H2G13368   0.660   5.245   7.067  0.3710  1.3180 -4.1376
  125OSM    C3F13369   0.746   5.045   7.120 -0.9351 -0.4748 -0.4201
  125OSM    H3F13370   0.850   5.082   7.130 -1.1100 -0.1433  0.2323
  125OSM    H3G13371   0.758   4.943   7.078  0.2282 -0.0631 -1.1496
  125OSM    C4F13372   0.702   5.023   7.265  0.0221 -0.0830  0.2194
  125OSM    H4F13373   0.781   4.969   7.322  1.8414  2.3467  0.1376
  125OSM    H4G13374   0.611   4.961   7.281 -0.1029 -0.0728 -0.4233
  125OSM    C5F13375   0.697   5.153   7.354 -0.6920 -0.1746 -0.2949
  125OSM    H5F13376   0.617   5.223   7.321  1.9697  3.4540  0.3639
  125OSM    H5G13377   0.800   5.194   7.345  0.1188 -1.6781  1.5231
  125OSM    C6F13378   0.684   5.129   7.511 -0.7758  0.3285  0.1898
  125OSM    H6F13379   0.755   5.050   7.544  0.8161  1.6910  0.1344
  125OSM    H6G13380   0.585   5.080   7.526  0.2386 -1.3627  2.0473
  125OSM    C7F13381   0.717   5.259   7.594 -0.1150  0.4539 -0.2244
  125OSM    H7F13382   0.646   5.341   7.569  1.5205  1.9559 -0.1610
  125OSM    H7G13383   0.816   5.299   7.560  0.3943 -0.5916 -0.0109
  125OSM    C8F13384   0.712   5.236   7.748  0.0337 -1.0651  0.8954
  125OSM    H8F13385   0.762   5.142   7.781 -0.9420 -1.0161  2.6516
  125OSM    H8G13386   0.604   5.234   7.774  0.2024  0.7687  1.9139
  125OSM    C9F13387   0.763   5.351   7.825 -0.2305  0.1923 -0.0061
  125OSM    H9F13388   0.797   5.438   7.767  0.2240  1.7451  2.4605
  125OSM   C10F13389   0.767   5.378   7.954 -0.3279 -0.4443  0.1146
  125OSM   H10F13390   0.794   5.481   7.984 -1.9837 -0.2399  1.0422
  125OSM   C11F13391   0.721   5.286   8.067  0.3365 -0.4510  0.6735
  125OSM   H11F13392   0.725   5.184   8.025 -0.4486 -0.3319  0.2993
  125OSM   H11G13393   0.616   5.311   8.092  0.7129  0.0018  1.8870
  125OSM   C12F13394   0.814   5.306   8.186  0.5962  0.7929  0.9190
  125OSM   H12F13395   0.919   5.305   8.148  0.6488  1.9095  0.9864
  125OSM   H12G13396   0.797   5.229   8.263  0.9757  0.0705  0.3004
  125OSM   C13F13397   0.796   5.440   8.273  0.3126  0.5456 -0.5581
  125OSM   H13F13398   0.706   5.411   8.332  0.9639 -0.4787 -0.0407
  125OSM   H13G13399   0.762   5.532   8.221  1.1245  0.6886 -0.8318
  125OSM   C14F13400   0.914   5.466   8.368  0.6790 -0.0274 -0.0023
  125OSM   H14F13401   0.984   5.381   8.356  0.7677 -0.0003  0.3133
  125OSM   H14G13402   0.883   5.464   8.475 -0.9083  0.6178 -0.4200
  125OSM   C15F13403   0.996   5.595   8.352  0.2351 -0.1357  0.4028
  125OSM   H15F13404   0.935   5.683   8.381  0.0442  0.3028 -1.2500
  125OSM   H15G13405   1.033   5.596   8.247 -1.8292  0.5490 -0.3604
  125OSM   C16F13406   1.119   5.581   8.438 -0.7515 -0.7649 -0.1266
  125OSM   H16F13407   1.180   5.497   8.399 -0.3525 -0.8884  0.7255
  125OSM   H16G13408   1.102   5.558   8.546 -2.1389 -0.5014 -0.2633
  125OSM   C17F13409   1.202   5.711   8.439 -0.4103 -0.2825  0.3918
  125OSM   H17F13410   1.146   5.785   8.499 -1.4827  0.2965 -1.2335
  125OSM   H17G13411   1.208   5.744   8.333  0.7348  0.6406  0.7301
  125OSM   C18F13412   1.343   5.692   8.493  0.4112  0.1759  0.2982
  125OSM   H18F13413   1.393   5.791   8.483  1.0143  0.0910  2.0894
  125OSM   H18G13414   1.399   5.616   8.434  0.6025 -1.5179  2.5389
  125OSM   H18H13415   1.342   5.663   8.600 -1.7201  2.6830  1.0449
  126OSM      N13416   3.941   6.269   6.220  0.1516 -0.6502  0.4412
  126OSM    C1513417   3.986   6.175   6.114  0.4485  0.1316 -0.1342
  126OSM   H15A13418   3.894   6.150   6.063 -2.4911  3.3788  2.9685
  126OSM   H15B13419   4.020   6.088   6.167 -0.6559  0.1666  0.6683
  126OSM   H15C13420   4.067   6.204   6.048 -0.1996  2.2028 -0.0812
  126OSM    C1413421   4.051   6.313   6.297 -0.3738 -0.2881  0.0133
  126OSM   H14A13422   4.079   6.226   6.355 -2.3860  0.7355  2.7185
  126OSM   H14B13423   4.032   6.387   6.374  3.0907  0.2900  0.4687
  126OSM   H14C13424   4.134   6.349   6.238 -0.1476 -2.7168 -1.2760
  126OSM    C1313425   3.893   6.398   6.149 -0.2863  1.0257 -0.4500
  126OSM   H13A13426   3.794   6.385   6.108  0.2387  1.3429 -1.8866
  126OSM   H13B13427   3.964   6.412   6.068  1.3625  0.5114  0.8499
  126OSM   H13C13428   3.887   6.481   6.217  0.0100  1.2108 -0.6439
  126OSM    C1213429   3.831   6.223   6.308 -0.0180  1.0300  0.6849
  126OSM   H12A13430   3.749   6.184   6.250  0.5431  3.9085 -2.3305
  126OSM   H12B13431   3.792   6.314   6.351 -0.8286  1.5461 -1.0346
  126OSM    C1113432   3.864   6.127   6.429  0.5278  1.2689 -0.5233
  126OSM   H11A13433   3.766   6.111   6.479  0.8997  0.1645 -0.1106
  126OSM   H11B13434   3.931   6.178   6.502  0.4745 -0.0414  0.4935
  126OSM      P13435   4.059   5.951   6.440  0.1311  0.1436  0.0361
  126OSM    O1313436   4.073   5.812   6.403 -0.1774  0.8813 -0.5227
  126OSM    O1413437   4.166   6.039   6.397  0.3036 -0.2441  0.1150
  126OSM    O1113438   4.047   5.959   6.600 -0.2524 -0.0024  0.3980
  126OSM    O1213439   3.922   6.009   6.383 -0.0029  0.2873  0.7486
  126OSM    C1S13440   3.933   5.925   6.684  0.5017  0.3935 -0.3938
  126OSM    H1S13441   3.878   5.836   6.648  0.6715 -0.1539  0.6681
  126OSM    H1T13442   3.853   5.999   6.665 -1.3603 -1.9483 -2.3199
  126OSM     NF13443   3.887   5.828   6.901 -0.7759  0.0273 -0.1098
  126OSM    HNF13444   3.838   5.870   6.977  0.2828  1.4171 -0.1491
  126OSM    C2S13445   3.974   5.913   6.833  0.1002 -0.5891  0.0904
  126OSM    H2S13446   4.078   5.874   6.835  0.6368  0.8204  0.3056
  126OSM    C3S13447   3.973   6.060   6.884  0.0724  0.3150 -0.1154
  126OSM    H3S13448   3.867   6.093   6.888 -0.0986 -0.3260  1.1350
  126OSM     O313449   4.054   6.136   6.801 -0.2183 -0.6193  0.1057
  126OSM    HO313450   4.064   6.079   6.725 -0.2304 -2.8709  1.7116
  126OSM    C4S13451   4.026   6.063   7.021  0.1721  0.4869  0.1415
  126OSM    H4S13452   4.122   6.013   7.044 -1.4439 -2.6075  0.6203
  126OSM    C5S13453   3.960   6.126   7.119  0.0503  0.1305 -0.3834
  126OSM    H5S13454   3.866   6.175   7.090 -1.4579 -1.1178  2.0704
  126OSM    C6S13455   4.002   6.122   7.257 -0.4006 -0.6192 -0.5247
  126OSM    H6S13456   4.111   6.114   7.275 -0.0627  3.6664  0.3535
  126OSM    H6T13457   3.952   6.039   7.312 -1.9189  0.7441  0.2097
  126OSM    C7S13458   3.953   6.247   7.330  0.2332  0.3637 -0.1638
  126OSM    H7S13459   3.842   6.249   7.323  0.1308  1.1963  1.3999
  126OSM    H7T13460   3.985   6.341   7.280 -0.3944  0.4085 -0.4969
  126OSM    C8S13461   3.995   6.255   7.477  0.4920  0.8887 -0.1184
  126OSM    H8S13462   4.106   6.264   7.476  0.6189 -0.4190 -0.5734
  126OSM    H8T13463   3.966   6.163   7.532 -0.5224  2.3437  1.8561
  126OSM    C9S13464   3.938   6.382   7.543 -0.1356 -0.5894 -0.7133
  126OSM    H9S13465   3.847   6.410   7.485  0.8333 -1.2992 -2.6738
  126OSM    H9T13466   4.005   6.469   7.526 -0.6195  0.2467  1.3865
  126OSM   C10S13467   3.890   6.352   7.684  0.6731  0.3266 -0.3056
  126OSM   H10S13468   3.820   6.266   7.683  1.6255 -0.5163 -2.4576
  126OSM   H10T13469   3.829   6.442   7.706  0.3645 -0.0014  0.2095
  126OSM   C11S13470   4.000   6.321   7.794  0.0281 -0.5367 -0.1763
  126OSM   H11S13471   4.069   6.408   7.796  0.2523 -0.7146  1.8267
  126OSM   H11T13472   4.070   6.239   7.768 -0.2922 -0.8729  0.0145
  126OSM   C12S13473   3.920   6.304   7.926 -0.1717  0.2374  0.5540
  126OSM   H12S13474   3.987   6.259   8.002  0.2437 -1.0038 -0.5107
  126OSM   H12T13475   3.844   6.225   7.910  0.8790 -0.8557  0.8568
  126OSM   C13S13476   3.848   6.423   7.990 -0.2151  0.1224  0.6316
  126OSM   H13S13477   3.774   6.467   7.919 -0.3113 -0.8587  0.1052
  126OSM   H13T13478   3.912   6.507   8.024 -0.7951  1.5087 -1.4778
  126OSM   C14S13479   3.767   6.385   8.119 -0.2034 -0.4113 -0.0570
  126OSM   H14S13480   3.695   6.304   8.094 -0.2959 -0.9783  1.8301
  126OSM   H14T13481   3.704   6.471   8.153  2.9634  1.4522  1.6251
  126OSM   C15S13482   3.848   6.342   8.241 -0.2608  0.0386 -0.7777
  126OSM   H15S13483   3.916   6.425   8.270 -1.2618  0.8908 -0.7948
  126OSM   H15T13484   3.912   6.257   8.209  0.3791 -0.5147  1.7923
  126OSM   C16S13485   3.768   6.310   8.371  0.1497  0.5897  0.8115
  126OSM   H16S13486   3.699   6.226   8.348  1.2173  0.2216 -1.2673
  126OSM   H16T13487   3.712   6.397   8.412 -0.4475  0.0534  1.1509
  126OSM   C17S13488   3.863   6.254   8.480  0.1433  0.4843  0.3801
  126OSM   H17S13489   3.951   6.316   8.509  1.0803 -0.8617  0.5334
  126OSM   H17T13490   3.913   6.162   8.443 -0.2993 -0.1172  1.2600
  126OSM   C18S13491   3.786   6.223   8.608 -0.1109 -0.0930  1.1323
  126OSM   H18S13492   3.707   6.146   8.592 -0.7454  0.4696  1.5171
  126OSM   H18T13493   3.745   6.312   8.659 -1.3139 -0.2593  0.5039
  126OSM   H18U13494   3.863   6.184   8.677  1.5790 -0.9723 -1.0978
  126OSM    C1F13495   3.888   5.699   6.887  0.9220  0.4652  0.5947
  126OSM     OF13496   3.962   5.645   6.806  0.6185 -0.4667 -0.5712
  126OSM    C2F13497   3.784   5.627   6.968 -0.4842  0.1546  0.4133
  126OSM    H2F13498   3.754   5.540   6.905 -1.4903  0.4301  0.4943
  126OSM    H2G13499   3.695   5.689   6.993  1.0628  1.6418  2.4968
  126OSM    C3F13500   3.848   5.563   7.095  0.5525 -0.6791  0.9717
  126OSM    H3F13501   3.950   5.523   7.077  0.3904 -0.3872 -0.7060
  126OSM    H3G13502   3.782   5.478   7.121 -1.2337 -0.6161 -2.8041
  126OSM    C4F13503   3.857   5.683   7.199 -0.1678  0.4157 -0.2305
  126OSM    H4F13504   3.766   5.745   7.183 -1.3688 -1.4987 -1.0783
  126OSM    H4G13505   3.945   5.751   7.190  0.0511 -0.0264 -1.5643
  126OSM    C5F13506   3.861   5.624   7.339 -0.0890  0.4414  0.2067
  126OSM    H5F13507   3.950   5.560   7.348 -0.5253 -0.3385 -0.7533
  126OSM    H5G13508   3.779   5.550   7.355  0.9245 -0.5034  1.1187
  126OSM    C6F13509   3.854   5.735   7.444 -0.2506 -0.2312  0.9387
  126OSM    H6F13510   3.771   5.802   7.412  0.2374  0.0088  0.1380
  126OSM    H6G13511   3.950   5.789   7.453  0.1890 -0.0642 -3.0199
  126OSM    C7F13512   3.795   5.693   7.575 -0.1847 -1.2348 -0.4677
  126OSM    H7F13513   3.878   5.638   7.623  2.2104  1.5909 -1.0736
  126OSM    H7G13514   3.711   5.622   7.559 -1.0487 -0.5112  0.6447
  126OSM    C8F13515   3.764   5.815   7.666  0.8432  0.0212  0.0844
  126OSM    H8F13516   3.691   5.778   7.741  0.1732 -0.2810 -0.7149
  126OSM    H8G13517   3.718   5.900   7.612 -0.5663  1.5666  3.3880
  126OSM    C9F13518   3.888   5.873   7.715  0.1399  0.3323 -0.5182
  126OSM    H9F13519   3.969   5.888   7.642  0.4111 -0.4878 -0.4024
  126OSM   C10F13520   3.931   5.879   7.840 -0.0563 -0.1534  0.1039
  126OSM   H10F13521   4.029   5.928   7.850  0.4759 -0.9388 -1.0465
  126OSM   C11F13522   3.875   5.845   7.980  0.6834  0.1008 -0.0052
  126OSM   H11F13523   3.953   5.861   8.058  0.6809  0.0672  0.0033
  126OSM   H11G13524   3.864   5.735   7.989 -2.3802  0.4348  1.1989
  126OSM   C12F13525   3.744   5.917   8.019  0.4695  0.1983  0.0965
  126OSM   H12F13526   3.668   5.896   7.940 -2.6955 -0.6451  3.0981
  126OSM   H12G13527   3.766   6.024   8.003 -1.5953  0.6862  0.2596
  126OSM   C13F13528   3.672   5.862   8.152 -0.4423  0.0866  0.8771
  126OSM   H13F13529   3.732   5.902   8.237  1.0693  1.5193 -0.7666
  126OSM   H13G13530   3.679   5.751   8.156 -2.3372 -0.1362 -0.8464
  126OSM   C14F13531   3.521   5.887   8.147  0.2187  1.1063 -0.2014
  126OSM   H14F13532   3.474   5.812   8.080  1.6223  2.2309 -2.5821
  126OSM   H14G13533   3.507   5.985   8.096  3.1061  0.9013 -1.5478
  126OSM   C15F13534   3.458   5.880   8.290 -0.3022  0.0264 -0.4672
  126OSM   H15F13535   3.497   5.788   8.338 -0.6757 -0.6638 -1.4445
  126OSM   H15G13536   3.347   5.879   8.284 -0.3606  0.6343  0.3976
  126OSM   C16F13537   3.499   5.999   8.385  0.2410 -0.2242 -0.3441
  126OSM   H16F13538   3.445   6.092   8.358 -0.9441 -0.2579  1.7152
  126OSM   H16G13539   3.608   6.022   8.385  0.4398 -1.1244 -0.7595
  126OSM   C17F13540   3.460   5.957   8.535  0.0557  0.4081  0.7061
  126OSM   H17F13541   3.538   5.998   8.603  0.3721 -2.7989  2.4655
  126OSM   H17G13542   3.479   5.847   8.541  0.0840  0.1074 -2.6647
  126OSM   C18F13543   3.317   5.976   8.581  0.0194 -0.5142  0.0284
  126OSM   H18F13544   3.301   5.936   8.683 -1.9609 -0.9369 -0.4147
  126OSM   H18G13545   3.257   5.923   8.504 -1.9021  0.1382  1.0260
  126OSM   H18H13546   3.280   6.081   8.584 -0.0487 -0.5071 -0.8562
  127OSM      N13547   6.612   1.850   6.096  0.8433  0.0446  0.6476
  127OSM    C1513548   6.602   1.753   6.212  0.6342  0.1182  0.2634
  127OSM   H15A13549   6.616   1.652   6.175 -1.8947  0.3379 -1.5929
  127OSM   H15B13550   6.503   1.748   6.254  0.2762 -0.3516 -0.6035
  127OSM   H15C13551   6.683   1.772   6.281  0.4001  0.4724  0.4414
  127OSM    C1413552   6.729   1.813   6.007  0.0247  0.3929  0.4364
  127OSM   H14A13553   6.780   1.904   5.978 -0.8503  0.0747 -2.3483
  127OSM   H14B13554   6.702   1.746   5.927  1.2226 -0.8647  1.0454
  127OSM   H14C13555   6.795   1.750   6.064  1.8271 -0.2714 -2.2109
  127OSM    C1313556   6.485   1.847   6.015  0.0612  0.9835  0.4197
  127OSM   H13A13557   6.510   1.881   5.916 -0.1997  1.3923  0.4914
  127OSM   H13B13558   6.401   1.888   6.069 -0.0289 -1.4128  2.2639
  127OSM   H13C13559   6.465   1.742   6.000  1.7209  0.5805  0.7986
  127OSM    C1213560   6.629   1.988   6.149 -0.3220 -0.0629  0.0063
  127OSM   H12A13561   6.726   1.996   6.196 -0.0079  2.9711 -0.9256
  127OSM   H12B13562   6.553   2.009   6.223 -0.5018 -2.5658  0.6053
  127OSM    C1113563   6.627   2.106   6.051 -0.7552 -0.3126  0.3692
  127OSM   H11A13564   6.698   2.093   5.967 -1.8365 -0.7113 -0.5065
  127OSM   H11B13565   6.667   2.199   6.098  1.7647 -0.2485 -1.6838
  127OSM      P13566   6.382   2.182   6.095 -0.3346 -0.1840 -0.3597
  127OSM    O1313567   6.368   2.329   6.086 -0.0992  0.7127  0.1032
  127OSM    O1413568   6.265   2.097   6.069  0.3223 -0.2687 -0.1016
  127OSM    O1113569   6.430   2.155   6.244 -0.0128  0.0885 -0.0798
  127OSM    O1213570   6.497   2.128   5.999 -1.0730 -0.0770  0.1685
  127OSM    C1S13571   6.331   2.139   6.345 -0.6487  0.1036  0.4701
  127OSM    H1S13572   6.276   2.044   6.325  0.9584 -0.4230 -1.8689
  127OSM    H1T13573   6.271   2.231   6.332 -0.5252  0.1667  0.3396
  127OSM     NF13574   6.285   2.149   6.595 -0.3620  0.4355  0.5043
  127OSM    HNF13575   6.278   2.232   6.650  0.4542 -1.0658  3.0102
  127OSM    C2S13576   6.388   2.139   6.493 -1.0138 -0.2943  0.8403
  127OSM    H2S13577   6.445   2.043   6.495 -0.8866 -0.3094 -1.3208
  127OSM    C3S13578   6.495   2.251   6.511 -0.1740  0.0564  0.0788
  127OSM    H3S13579   6.443   2.349   6.518  0.3381  0.2034  2.9502
  127OSM     O313580   6.591   2.267   6.406 -0.2768  0.1738 -0.0340
  127OSM    HO313581   6.543   2.214   6.341 -0.4877  1.1801 -0.7328
  127OSM    C4S13582   6.577   2.220   6.636  0.1440 -0.0595  0.9289
  127OSM    H4S13583   6.636   2.127   6.638 -0.0597 -0.1767  1.5268
  127OSM    C5S13584   6.561   2.285   6.750  0.1877 -0.3656 -0.1003
  127OSM    H5S13585   6.490   2.369   6.760  0.8177  0.0652  1.0679
  127OSM    C6S13586   6.643   2.246   6.872  0.1469  0.0446  0.0571
  127OSM    H6S13587   6.689   2.337   6.916 -2.1906  1.3496 -0.0184
  127OSM    H6T13588   6.722   2.176   6.838 -1.4120 -0.4635 -2.8640
  127OSM    C7S13589   6.574   2.171   6.987 -0.0932  0.2714 -0.1462
  127OSM    H7S13590   6.519   2.080   6.953 -0.1395  0.7518 -1.4053
  127OSM    H7T13591   6.501   2.247   7.023  0.4240  0.8201 -0.2395
  127OSM    C8S13592   6.675   2.150   7.104  0.2120 -0.1052  0.5401
  127OSM    H8S13593   6.738   2.241   7.112 -0.4278  0.6782 -2.1613
  127OSM    H8T13594   6.750   2.070   7.087  1.2484  0.7040  1.1885
  127OSM    C9S13595   6.605   2.139   7.239  0.1880 -0.6404  0.1268
  127OSM    H9S13596   6.559   2.038   7.249  1.5397 -1.1001  2.3794
  127OSM    H9T13597   6.523   2.212   7.257 -1.8336 -3.3260  3.1079
  127OSM   C10S13598   6.706   2.156   7.356 -0.3328 -0.3070 -0.7140
  127OSM   H10S13599   6.765   2.250   7.346 -1.3642  0.6269  1.3328
  127OSM   H10T13600   6.774   2.068   7.354 -0.0478 -0.1110 -0.0503
  127OSM   C11S13601   6.630   2.157   7.494 -0.5030  0.7926  0.2829
  127OSM   H11S13602   6.587   2.055   7.500 -1.9043  1.3922  0.6270
  127OSM   H11T13603   6.544   2.227   7.502 -0.0059  1.5449 -0.6179
  127OSM   C12S13604   6.738   2.171   7.599  0.6323 -0.4628 -0.8642
  127OSM   H12S13605   6.804   2.260   7.589  1.9189 -1.2357  0.4033
  127OSM   H12T13606   6.804   2.081   7.606  0.4944 -0.5779 -1.0578
  127OSM   C13S13607   6.672   2.198   7.736  0.2645  0.3351 -0.1734
  127OSM   H13S13608   6.611   2.109   7.762 -0.0046  0.0210 -1.7732
  127OSM   H13T13609   6.603   2.284   7.721  0.1007  0.1561 -0.4629
  127OSM   C14S13610   6.761   2.240   7.848  0.5404  0.1353 -0.7417
  127OSM   H14S13611   6.828   2.324   7.820 -1.0827  2.7039  2.4462
  127OSM   H14T13612   6.825   2.155   7.882 -0.2630 -0.1835 -0.0036
  127OSM   C15S13613   6.683   2.305   7.960  0.0092  0.0402  0.3045
  127OSM   H15S13614   6.604   2.242   8.005 -0.8657  0.4165 -0.6724
  127OSM   H15T13615   6.643   2.402   7.924 -1.4188  0.1080  1.9596
  127OSM   C16S13616   6.774   2.323   8.086 -0.5241 -0.5910  0.7978
  127OSM   H16S13617   6.854   2.397   8.066  0.4341 -1.2963  1.8285
  127OSM   H16T13618   6.822   2.227   8.115 -2.6957 -1.6100  1.2551
  127OSM   C17S13619   6.691   2.376   8.201 -0.6273  0.5772  0.6873
  127OSM   H17S13620   6.615   2.297   8.221  1.7079 -1.5965  1.4611
  127OSM   H17T13621   6.632   2.466   8.171  3.0463  2.8301 -0.4197
  127OSM   C18S13622   6.770   2.402   8.328  0.3463 -0.4766 -0.2913
  127OSM   H18S13623   6.873   2.360   8.326  1.4877  1.8717  2.2942
  127OSM   H18T13624   6.726   2.339   8.408  1.7731 -0.3943  0.5859
  127OSM   H18U13625   6.766   2.508   8.363 -0.5315  0.6580 -3.4125
  127OSM    C1F13626   6.187   2.054   6.612  0.2222 -0.3296  0.7537
  127OSM     OF13627   6.187   1.955   6.536  0.8114 -0.0337  0.1404
  127OSM    C2F13628   6.072   2.083   6.709  0.0457  0.2587 -0.5284
  127OSM    H2F13629   5.977   2.090   6.653  0.6489  3.0057 -1.3515
  127OSM    H2G13630   6.093   2.179   6.761  0.8504  0.4947 -1.2707
  127OSM    C3F13631   6.075   1.988   6.835 -0.2571 -0.3493  0.0263
  127OSM    H3F13632   6.099   1.881   6.818 -2.0508 -1.2156  2.3866
  127OSM    H3G13633   5.969   1.995   6.865  0.0752  0.8729  1.0054
  127OSM    C4F13634   6.155   2.042   6.946 -0.0380 -0.1195 -0.5037
  127OSM    H4F13635   6.133   2.148   6.971  1.0754  0.2943 -1.2213
  127OSM    H4G13636   6.265   2.046   6.931  0.2353  0.1591  1.3025
  127OSM    C5F13637   6.130   1.943   7.059 -0.1198 -0.7524  0.5308
  127OSM    H5F13638   6.157   1.841   7.022  0.1063 -1.2999  2.1265
  127OSM    H5G13639   6.024   1.955   7.088 -0.3708 -0.4549 -0.4599
  127OSM    C6F13640   6.213   1.973   7.181 -0.2523  0.7210 -0.2229
  127OSM    H6F13641   6.178   2.059   7.243 -0.3109 -0.7174  1.8477
  127OSM    H6G13642   6.320   1.996   7.163  0.1536  0.0085  1.1915
  127OSM    C7F13643   6.207   1.858   7.273  0.7394 -0.1096  0.8861
  127OSM    H7F13644   6.275   1.781   7.229  2.1902  2.0926 -0.9621
  127OSM    H7G13645   6.103   1.819   7.278  1.0378 -1.3109 -1.1063
  127OSM    C8F13646   6.260   1.885   7.411  0.8626  0.0923  0.6755
  127OSM    H8F13647   6.197   1.965   7.454  1.7309  0.3790  1.4509
  127OSM    H8G13648   6.362   1.929   7.401  1.8525 -1.5975  2.5771
  127OSM    C9F13649   6.276   1.763   7.495 -1.7429 -0.2175 -0.1586
  127OSM    H9F13650   6.282   1.667   7.440 -0.4043 -1.0013  1.2858
  127OSM   C10F13651   6.284   1.756   7.630  0.6148 -0.6256 -0.1658
  127OSM   H10F13652   6.303   1.663   7.687  3.7485 -0.6879 -1.0817
  127OSM   C11F13653   6.267   1.875   7.723 -0.4776  0.4939 -0.0115
  127OSM   H11F13654   6.177   1.853   7.785  0.3962 -3.4012  0.1631
  127OSM   H11G13655   6.258   1.972   7.670  0.6869 -0.0977 -1.3611
  127OSM   C12F13656   6.393   1.888   7.818 -0.5057 -0.0645  0.2100
  127OSM   H12F13657   6.448   1.974   7.772 -0.6074  0.4342  1.0041
  127OSM   H12G13658   6.451   1.793   7.826 -0.0647 -0.0670 -2.2449
  127OSM   C13F13659   6.349   1.914   7.966 -0.3352  0.4283  0.5552
  127OSM   H13F13660   6.277   1.834   7.994  0.6086 -0.5770  0.1773
  127OSM   H13G13661   6.285   2.006   7.967  1.1375  1.4988  2.3699
  127OSM   C14F13662   6.467   1.926   8.054  0.1782  0.5711  0.8534
  127OSM   H14F13663   6.543   1.990   8.004  1.4848 -0.9045  0.8655
  127OSM   H14G13664   6.514   1.826   8.065  0.3784  0.3812 -1.2945
  127OSM   C15F13665   6.430   1.982   8.192  0.7938 -0.3681  0.3166
  127OSM   H15F13666   6.352   1.917   8.236  2.2220 -0.8882  2.1832
  127OSM   H15G13667   6.383   2.082   8.182 -2.3978 -1.3633  3.3108
  127OSM   C16F13668   6.542   1.997   8.298  0.3473  0.1474  0.1210
  127OSM   H16F13669   6.510   2.077   8.369 -0.8047 -1.0759  1.0172
  127OSM   H16G13670   6.638   2.034   8.256 -0.2818 -0.9829 -2.5114
  127OSM   C17F13671   6.561   1.868   8.374 -0.4492  1.1967 -0.5028
  127OSM   H17F13672   6.615   1.801   8.305  4.9547  2.8733  1.5612
  127OSM   H17G13673   6.462   1.824   8.400  0.6687  0.9554  4.2241
  127OSM   C18F13674   6.646   1.892   8.496  0.0813 -0.1732  0.6221
  127OSM   H18F13675   6.735   1.949   8.462  0.7369 -1.3677  0.2936
  127OSM   H18G13676   6.669   1.793   8.540 -2.2986 -1.1825 -0.2003
  127OSM   H18H13677   6.581   1.939   8.573  0.4495 -1.0385  1.4807
  128OSM      N13678   1.941   1.124   5.774  1.1217  0.1618 -0.3949
  128OSM    C1513679   1.794   1.110   5.757  0.0283  0.1650  0.0304
  128OSM   H15A13680   1.746   1.203   5.732  1.3870  0.1839 -3.0191
  128OSM   H15B13681   1.753   1.083   5.853 -1.4050  0.5269 -0.4622
  128OSM   H15C13682   1.763   1.035   5.686  2.2907 -0.4313 -0.4394
  128OSM    C1413683   1.982   1.003   5.845  0.9016 -0.6095 -0.5432
  128OSM   H14A13684   1.966   1.001   5.952  1.1370  2.3707 -0.3755
  128OSM   H14B13685   2.085   0.976   5.829  0.5600 -2.5166  0.1153
  128OSM   H14C13686   1.930   0.920   5.799  0.3285 -0.2272 -0.5911
  128OSM    C1313687   2.000   1.125   5.643 -0.3392  0.5925  0.1257
  128OSM   H13A13688   1.949   1.080   5.560  2.3838 -1.1625 -0.7188
  128OSM   H13B13689   2.103   1.094   5.640 -0.1822  1.1568 -1.0647
  128OSM   H13C13690   2.009   1.221   5.594 -1.6712 -1.1169 -3.8764
  128OSM    C1213691   1.981   1.242   5.867 -0.8305 -0.1939  0.6495
  128OSM   H12A13692   1.953   1.322   5.800  1.3494 -0.8702 -1.2111
  128OSM   H12B13693   2.088   1.240   5.886 -0.4802 -1.6912 -1.1371
  128OSM    C1113694   1.903   1.263   5.993  0.4211  0.9403 -0.1219
  128OSM   H11A13695   1.794   1.267   5.973  0.4927  2.5560 -0.2676
  128OSM   H11B13696   1.929   1.360   6.040 -1.0994  1.2396  0.1670
  128OSM      P13697   1.836   1.067   6.164 -0.0487  0.1171 -0.0823
  128OSM    O1313698   1.710   1.145   6.198 -0.3431  1.0890 -1.0176
  128OSM    O1413699   1.821   0.938   6.088  0.3832 -0.0177 -0.3277
  128OSM    O1113700   1.910   1.034   6.296 -0.2648  0.4439 -0.2379
  128OSM    O1213701   1.942   1.162   6.088  0.0762 -0.4758  0.0901
  128OSM    C1S13702   1.990   1.122   6.370  0.6968  0.2270 -0.0417
  128OSM    H1S13703   1.959   1.227   6.353  1.8284  0.9308  1.8922
  128OSM    H1T13704   2.095   1.103   6.337 -0.1735 -2.1185 -1.7058
  128OSM     NF13705   1.998   1.195   6.599  0.2651 -0.8289 -0.0413
  128OSM    HNF13706   2.086   1.196   6.648 -0.7389 -0.2859  1.8637
  128OSM    C2S13707   1.962   1.085   6.522  0.0240 -0.3182  0.5158
  128OSM    H2S13708   1.854   1.060   6.526 -0.6539  1.6918 -2.1796
  128OSM    C3S13709   2.042   0.961   6.560  0.0881  0.1296  0.0435
  128OSM    H3S13710   2.152   0.977   6.564 -0.1376  1.6879  1.0822
  128OSM     O313711   2.022   0.857   6.464  0.6552 -0.5509  0.6032
  128OSM    HO313712   1.975   0.908   6.397  0.4725  0.3775  1.4307
  128OSM    C4S13713   2.006   0.908   6.694  0.3191 -0.2050 -0.3228
  128OSM    H4S13714   2.069   0.951   6.774  1.3265  0.1215 -1.2715
  128OSM    C5S13715   1.917   0.821   6.738 -0.2748  0.1976  0.1831
  128OSM    H5S13716   1.851   0.767   6.669 -2.2215 -0.2230  2.2687
  128OSM    C6S13717   1.892   0.793   6.885  0.1520  0.0292 -0.6882
  128OSM    H6S13718   1.935   0.693   6.909 -0.7711 -0.4048 -0.8132
  128OSM    H6T13719   1.783   0.791   6.908  0.6351 -0.1290  1.9779
  128OSM    C7S13720   1.957   0.890   6.989  0.0751  0.4568 -0.0916
  128OSM    H7S13721   1.937   0.994   6.956  0.0210  0.5226  0.1457
  128OSM    H7T13722   2.068   0.879   6.989  0.0717  0.3496 -1.0113
  128OSM    C8S13723   1.888   0.869   7.131 -0.4509 -0.6075 -0.0893
  128OSM    H8S13724   1.930   0.775   7.175  1.6800  1.0179  1.5555
  128OSM    H8T13725   1.780   0.870   7.109 -0.6794 -1.5193  0.8828
  128OSM    C9S13726   1.921   0.990   7.219 -0.9928  0.1047  0.9799
  128OSM    H9S13727   1.886   1.083   7.170  2.2698  1.0828  0.2456
  128OSM    H9T13728   2.028   1.008   7.244 -0.1483 -0.7995 -1.6085
  128OSM   C10S13729   1.869   0.971   7.359  1.1081  0.2904 -0.4136
  128OSM   H10S13730   1.891   0.868   7.393 -0.0544 -0.2506 -1.2282
  128OSM   H10T13731   1.760   0.990   7.349  1.3351  1.9191 -0.1165
  128OSM   C11S13732   1.928   1.074   7.452 -0.6814  0.8130  0.2527
  128OSM   H11S13733   1.937   1.171   7.398  0.1415  1.4728  1.5165
  128OSM   H11T13734   2.035   1.052   7.467 -0.4737  1.1542 -0.6748
  128OSM   C12S13735   1.837   1.098   7.573  0.1763 -0.0552  0.1385
  128OSM   H12S13736   1.727   1.099   7.553 -0.3151  0.0397  2.5351
  128OSM   H12T13737   1.843   1.205   7.604 -2.3373 -0.2223  1.5045
  128OSM   C13S13738   1.872   1.007   7.690  0.2798 -0.2537  0.0360
  128OSM   H13S13739   1.869   0.900   7.658  0.5071 -0.7258  1.5308
  128OSM   H13T13740   1.793   1.035   7.763  0.4259  1.5887 -0.4675
  128OSM   C14S13741   2.001   1.048   7.756 -0.0669  0.3857 -0.1726
  128OSM   H14S13742   1.995   1.151   7.796  0.9730  0.1691  0.5612
  128OSM   H14T13743   2.077   1.027   7.678 -0.3402 -3.1367  0.3084
  128OSM   C15S13744   2.026   0.963   7.885 -0.2904  0.0169  0.2952
  128OSM   H15S13745   2.022   0.854   7.861 -0.7881 -0.3136  1.7576
  128OSM   H15T13746   1.937   0.978   7.949  0.7229  0.5289  1.6222
  128OSM   C16S13747   2.167   1.002   7.946  0.3319  0.4246 -0.4948
  128OSM   H16S13748   2.177   1.113   7.941 -3.3040  0.9690  0.9292
  128OSM   H16T13749   2.251   0.953   7.892 -0.6675 -1.9644 -0.0034
  128OSM   C17S13750   2.190   0.950   8.089 -0.2179 -0.2322 -0.0926
  128OSM   H17S13751   2.127   1.012   8.156  1.2020 -2.2652  3.4182
  128OSM   H17T13752   2.293   0.975   8.122 -0.8097  1.2529  0.7106
  128OSM   C18S13753   2.162   0.805   8.107 -0.1758  0.3485 -0.4102
  128OSM   H18S13754   2.055   0.775   8.101  0.6741 -2.7236 -2.7549
  128OSM   H18T13755   2.221   0.776   8.197  2.6555  1.6823 -1.7105
  128OSM   H18U13756   2.211   0.752   8.022 -0.3782 -1.4286  0.5232
  128OSM    C1F13757   1.929   1.309   6.592 -0.6722  0.0377 -0.1263
  128OSM     OF13758   1.813   1.310   6.554 -0.4481  0.3908 -0.0692
  128OSM    C2F13759   1.990   1.432   6.649  0.2737  0.2145 -0.1949
  128OSM    H2F13760   2.048   1.486   6.571  0.4792 -2.4481 -2.0585
  128OSM    H2G13761   2.059   1.394   6.727 -0.2435  2.2639  1.3227
  128OSM    C3F13762   1.887   1.525   6.718  0.7652 -0.0945  0.0753
  128OSM    H3F13763   1.820   1.464   6.782 -0.0222 -0.3232 -0.9590
  128OSM    H3G13764   1.833   1.578   6.637  3.3197 -0.4328 -2.0144
  128OSM    C4F13765   1.950   1.636   6.801 -0.0310 -0.4209  0.0786
  128OSM    H4F13766   2.006   1.701   6.730 -0.0331  0.6658  1.0471
  128OSM    H4G13767   2.033   1.602   6.865 -1.2768 -1.5404  1.1581
  128OSM    C5F13768   1.846   1.703   6.892  0.7737 -0.2469 -0.3747
  128OSM    H5F13769   1.797   1.623   6.953 -0.3698  0.3934 -0.4230
  128OSM    H5G13770   1.766   1.758   6.839  1.0774  0.5059 -0.0635
  128OSM    C6F13771   1.912   1.800   6.995 -0.0356 -0.4526 -0.3763
  128OSM    H6F13772   1.978   1.873   6.942 -0.1879  0.0543  0.1195
  128OSM    H6G13773   1.970   1.739   7.067 -1.6963 -2.6281 -0.8059
  128OSM    C7F13774   1.814   1.887   7.082  0.3814 -0.0073 -0.1460
  128OSM    H7F13775   1.759   1.955   7.013  3.1198 -0.2924 -2.8250
  128OSM    H7G13776   1.868   1.948   7.157  1.0843  0.3038 -0.8859
  128OSM    C8F13777   1.715   1.805   7.157  0.1420 -0.5019 -0.0251
  128OSM    H8F13778   1.645   1.745   7.095  0.5317 -3.0300  1.8481
  128OSM    H8G13779   1.649   1.877   7.209  1.0259  2.2535 -2.4144
  128OSM    C9F13780   1.783   1.708   7.256 -0.2884  0.5920 -0.2750
  128OSM    H9F13781   1.863   1.652   7.206 -0.5130  0.6329 -0.6841
  128OSM   C10F13782   1.744   1.671   7.377  0.0910  1.5710  0.0484
  128OSM   H10F13783   1.802   1.594   7.429 -3.0192 -0.6515  0.5472
  128OSM   C11F13784   1.629   1.730   7.462 -0.2421 -0.7783  0.0189
  128OSM   H11F13785   1.576   1.640   7.501 -0.6620 -0.7853 -0.5392
  128OSM   H11G13786   1.553   1.784   7.401 -0.2582 -0.6939  0.1137
  128OSM   C12F13787   1.677   1.833   7.562 -0.8259  0.0568 -0.1463
  128OSM   H12F13788   1.589   1.857   7.627 -0.0222 -0.2333  1.0767
  128OSM   H12G13789   1.722   1.920   7.510 -0.3999 -0.5280 -0.7596
  128OSM   C13F13790   1.778   1.776   7.663  0.3506 -0.4758  0.1875
  128OSM   H13F13791   1.864   1.732   7.608  1.2118 -1.1042  1.9530
  128OSM   H13G13792   1.736   1.692   7.722 -1.6068  1.4819  1.7610
  128OSM   C14F13793   1.849   1.876   7.753  0.3478 -0.2022 -0.4959
  128OSM   H14F13794   1.776   1.947   7.797  1.4371 -0.0895  1.1946
  128OSM   H14G13795   1.908   1.944   7.687  0.6761 -1.4465 -1.5356
  128OSM   C15F13796   1.932   1.813   7.863 -0.1879  0.2669 -0.1308
  128OSM   H15F13797   1.975   1.901   7.915 -1.4909  1.0596 -0.3360
  128OSM   H15G13798   2.011   1.747   7.820 -0.0203  1.7689 -2.3225
  128OSM   C16F13799   1.853   1.731   7.966 -0.0334  0.4265 -0.0916
  128OSM   H16F13800   1.913   1.694   8.052 -1.5072 -2.5684 -0.2159
  128OSM   H16G13801   1.808   1.638   7.924 -0.3469 -0.1175  1.3469
  128OSM   C17F13802   1.729   1.808   8.017 -0.0280 -0.0419  0.2400
  128OSM   H17F13803   1.670   1.835   7.927 -0.9208 -0.7406  0.6056
  128OSM   H17G13804   1.767   1.895   8.075  0.7815 -0.4001  0.2621
  128OSM   C18F13805   1.648   1.725   8.115  0.3243  0.0925  0.0798
  128OSM   H18F13806   1.574   1.786   8.171 -2.0566 -0.7821 -1.9042
  128OSM   H18G13807   1.708   1.672   8.192 -0.4456 -0.4012  0.3491
  128OSM   H18H13808   1.573   1.657   8.069  0.6884  0.8658 -1.7524
  129OSM      N13809   4.363   4.355   6.094  0.0390 -0.6490 -0.7202
  129OSM    C1513810   4.480   4.358   5.998  0.0415  0.1918  0.1487
  129OSM   H15A13811   4.569   4.372   6.057  1.8661 -0.3462 -2.3063
  129OSM   H15B13812   4.474   4.441   5.929  2.5168  0.6892  0.4291
  129OSM   H15C13813   4.488   4.266   5.942  2.4622 -1.3966  2.8458
  129OSM    C1413814   4.365   4.489   6.156  0.1721  0.1211  0.9449
  129OSM   H14A13815   4.344   4.566   6.083 -1.7884 -0.1039  1.2156
  129OSM   H14B13816   4.460   4.514   6.201  0.6397 -0.9464  0.5949
  129OSM   H14C13817   4.297   4.491   6.239 -1.3707  0.3063 -0.2806
  129OSM    C1313818   4.232   4.338   6.021 -0.2188 -0.9042 -0.8226
  129OSM   H13A13819   4.239   4.410   5.941  0.4746 -0.1901 -0.1374
  129OSM   H13B13820   4.154   4.360   6.092 -0.0935 -0.9202 -0.6811
  129OSM   H13C13821   4.222   4.242   5.972  1.4399 -2.1352  1.1250
  129OSM    C1213822   4.390   4.243   6.199 -0.7214 -0.6636 -0.0708
  129OSM   H12A13823   4.431   4.162   6.140 -0.0896  0.8987 -1.9090
  129OSM   H12B13824   4.296   4.222   6.248 -0.7643 -1.0283 -0.3071
  129OSM    C1113825   4.500   4.273   6.310  0.1123  0.6466 -0.1014
  129OSM   H11A13826   4.512   4.184   6.375  0.2546  1.6201  1.2464
  129OSM   H11B13827   4.444   4.347   6.370 -0.5208 -0.9572  1.3590
  129OSM      P13828   4.706   4.437   6.310 -0.2782  0.2583 -0.2283
  129OSM    O1313829   4.826   4.434   6.229 -0.4210  0.4635  0.7955
  129OSM    O1413830   4.616   4.552   6.298  0.0623  0.2979  0.1990
  129OSM    O1113831   4.726   4.405   6.464 -0.4364  0.1002 -0.9456
  129OSM    O1213832   4.630   4.307   6.264  0.2453  1.0102  0.2598
  129OSM    C1S13833   4.786   4.284   6.512 -0.1306  0.1058 -0.8099
  129OSM    H1S13834   4.892   4.287   6.477 -0.7001 -0.7641 -2.7699
  129OSM    H1T13835   4.732   4.203   6.458 -2.6702  1.4815 -0.4431
  129OSM     NF13836   4.853   4.160   6.701  0.0094 -0.0062 -0.1972
  129OSM    HNF13837   4.798   4.078   6.688 -0.2924  0.1979 -0.2184
  129OSM    C2S13838   4.781   4.283   6.664 -0.1421 -0.0313  0.7490
  129OSM    H2S13839   4.838   4.370   6.702 -0.1273  1.0156 -1.4747
  129OSM    C3S13840   4.634   4.290   6.715  0.1068  0.6836 -0.1211
  129OSM    H3S13841   4.582   4.208   6.661  2.1656  0.2316 -1.5352
  129OSM     O313842   4.558   4.408   6.678 -0.0468 -0.0363 -0.0581
  129OSM    HO313843   4.597   4.425   6.592  0.8436  2.8291  0.7875
  129OSM    C4S13844   4.641   4.264   6.867 -0.2935 -0.7312  0.3147
  129OSM    H4S13845   4.668   4.160   6.889  1.9150  0.1708  2.3694
  129OSM    C5S13846   4.641   4.368   6.958 -0.0908  0.0254  0.0169
  129OSM    H5S13847   4.646   4.471   6.918 -2.7226 -0.2174 -1.1769
  129OSM    C6S13848   4.657   4.359   7.106  0.0745 -0.2180  0.4301
  129OSM    H6S13849   4.561   4.390   7.152  1.6562  1.4935  2.8102
  129OSM    H6T13850   4.713   4.451   7.134  0.4694 -0.6426  1.0623
  129OSM    C7S13851   4.705   4.229   7.174  0.1408  0.6463  0.2828
  129OSM    H7S13852   4.790   4.180   7.123 -1.7134 -0.2402 -2.1637
  129OSM    H7T13853   4.628   4.152   7.152  0.9053 -0.5067  1.5000
  129OSM    C8S13854   4.725   4.242   7.328  0.1551 -0.3217  0.1854
  129OSM    H8S13855   4.821   4.294   7.348  0.5193 -0.6558 -0.6853
  129OSM    H8T13856   4.729   4.136   7.363  1.2812 -0.0078  1.0786
  129OSM    C9S13857   4.609   4.311   7.405 -0.0475  0.2758 -0.1535
  129OSM    H9S13858   4.510   4.265   7.386 -0.6368  1.9694 -1.3905
  129OSM    H9T13859   4.606   4.411   7.356  1.4409  0.6369  0.4198
  129OSM   C10S13860   4.644   4.333   7.553  1.5096  0.4184  1.1405
  129OSM   H10S13861   4.683   4.241   7.603  0.5299 -0.7329 -0.1175
  129OSM   H10T13862   4.546   4.359   7.598  2.0279  3.5973  0.6290
  129OSM   C11S13863   4.731   4.461   7.561 -0.5515  0.2399  0.1636
  129OSM   H11S13864   4.716   4.529   7.474  0.4821 -1.7248 -1.6528
  129OSM   H11T13865   4.836   4.435   7.586 -0.2433  0.2526 -1.0480
  129OSM   C12S13866   4.690   4.544   7.687 -0.4733 -0.4229 -0.7004
  129OSM   H12S13867   4.720   4.476   7.769 -0.4348  0.3898 -0.0326
  129OSM   H12T13868   4.583   4.572   7.692 -0.1676  0.6748 -0.1361
  129OSM   C13S13869   4.775   4.671   7.687  0.3896  0.4547 -0.5328
  129OSM   H13S13870   4.759   4.740   7.601  1.6258  0.1126 -1.0526
  129OSM   H13T13871   4.881   4.639   7.694  0.4085  0.7947  2.3893
  129OSM   C14S13872   4.758   4.748   7.819  0.4746  0.0327  0.2577
  129OSM   H14S13873   4.799   4.685   7.902 -0.7768  0.2111  1.0365
  129OSM   H14T13874   4.653   4.777   7.840  0.8200  2.1839 -0.7382
  129OSM   C15S13875   4.840   4.878   7.806 -0.6567 -0.2070 -1.0967
  129OSM   H15S13876   4.797   4.948   7.732  1.4242  1.4170 -0.8446
  129OSM   H15T13877   4.939   4.848   7.767 -0.0889  0.7642 -0.4348
  129OSM   C16S13878   4.871   4.956   7.938  0.3228  0.1820  0.1361
  129OSM   H16S13879   4.951   5.031   7.923 -1.4054  2.3480  1.1857
  129OSM   H16T13880   4.919   4.880   8.003  1.7958 -1.4200 -2.6621
  129OSM   C17S13881   4.747   5.031   7.996  0.4040  0.2899  0.0897
  129OSM   H17S13882   4.669   4.961   8.033 -0.4482  0.6388 -0.9973
  129OSM   H17T13883   4.701   5.083   7.909 -2.0341 -1.5738  0.1737
  129OSM   C18S13884   4.775   5.128   8.104 -0.8665  0.0898 -0.3293
  129OSM   H18S13885   4.845   5.211   8.081 -3.5182  2.2218 -1.2010
  129OSM   H18T13886   4.812   5.084   8.199 -2.1245 -0.0909  0.1070
  129OSM   H18U13887   4.686   5.181   8.144 -0.1394  0.3461  0.9962
  129OSM    C1F13888   4.983   4.155   6.704  0.0776 -0.4155 -0.2526
  129OSM     OF13889   5.053   4.259   6.696  0.5113 -0.0120  0.2236
  129OSM    C2F13890   5.043   4.025   6.695 -0.1780  0.2734 -0.3148
  129OSM    H2F13891   5.093   4.015   6.596  0.0561 -1.0039 -0.0815
  129OSM    H2G13892   4.963   3.951   6.714 -0.4163  0.4102 -0.7551
  129OSM    C3F13893   5.150   4.009   6.803 -0.4207 -0.9596 -0.0851
  129OSM    H3F13894   5.209   4.102   6.817 -0.3935 -1.0001  0.0720
  129OSM    H3G13895   5.224   3.931   6.775  1.3037  1.0758 -1.4788
  129OSM    C4F13896   5.091   3.981   6.947 -0.3099 -0.2165  0.2088
  129OSM    H4F13897   5.025   3.892   6.942 -0.3425 -0.1353 -1.2046
  129OSM    H4G13898   5.025   4.066   6.974 -3.6186 -2.1934 -1.1285
  129OSM    C5F13899   5.203   3.954   7.048 -0.3919 -0.4472 -0.1650
  129OSM    H5F13900   5.281   4.033   7.045 -0.2645 -0.5424  0.4868
  129OSM    H5G13901   5.261   3.860   7.035  0.4162  0.1783 -1.1906
  129OSM    C6F13902   5.147   3.964   7.187  0.1462 -0.1183 -0.8451
  129OSM    H6F13903   5.086   4.057   7.192 -0.7771 -0.7595  0.4221
  129OSM    H6G13904   5.228   3.982   7.260 -0.8537 -1.0399  0.5445
  129OSM    C7F13905   5.059   3.842   7.218 -0.0356 -0.1015 -0.7662
  129OSM    H7F13906   5.127   3.756   7.230  1.7915  1.2176 -1.2904
  129OSM    H7G13907   5.007   3.809   7.126  0.6060 -0.5112 -0.9828
  129OSM    C8F13908   4.965   3.858   7.333  0.3028 -0.7908  0.4999
  129OSM    H8F13909   4.882   3.785   7.327  1.4667 -2.1203  0.2368
  129OSM    H8G13910   4.916   3.958   7.325  0.0332 -1.0647 -1.7037
  129OSM    C9F13911   5.037   3.844   7.468  0.0380 -0.0404 -0.2470
  129OSM    H9F13912   5.064   3.742   7.501 -0.7423 -0.7087 -1.5878
  129OSM   C10F13913   5.077   3.947   7.539  0.1653  0.5041  0.5175
  129OSM   H10F13914   5.129   3.918   7.632 -1.7302 -0.7328  1.2692
  129OSM   C11F13915   5.065   4.089   7.515 -0.0173  0.4931 -0.2464
  129OSM   H11F13916   5.019   4.109   7.415 -4.4968  2.5717  1.9345
  129OSM   H11G13917   5.166   4.136   7.520 -0.4466  1.5124 -0.7537
  129OSM   C12F13918   4.974   4.160   7.622 -0.0681  0.3341  0.2176
  129OSM   H12F13919   4.867   4.136   7.606 -0.4020  2.2617 -0.6369
  129OSM   H12G13920   4.990   4.269   7.610 -0.3437  0.4662  0.9592
  129OSM   C13F13921   5.009   4.139   7.773 -0.9659 -0.4739 -0.0467
  129OSM   H13F13922   5.119   4.156   7.777 -0.9611 -0.0682 -1.2432
  129OSM   H13G13923   4.986   4.032   7.791 -0.9111 -0.2296  1.5972
  129OSM   C14F13924   4.936   4.245   7.855  0.2590 -0.3335 -0.7985
  129OSM   H14F13925   4.829   4.258   7.828 -0.1027 -2.2424 -0.4323
  129OSM   H14G13926   4.985   4.343   7.837 -0.0401 -0.1320 -0.5282
  129OSM   C15F13927   4.937   4.213   8.010 -0.2518 -0.5060 -0.4801
  129OSM   H15F13928   5.042   4.180   8.029 -0.0461  0.4272  0.0467
  129OSM   H15G13929   4.864   4.132   8.030 -1.0156  0.5451  1.1717
  129OSM   C16F13930   4.906   4.327   8.108  0.0439 -0.2419 -0.4184
  129OSM   H16F13931   4.799   4.357   8.106 -0.0405 -0.4456  0.5497
  129OSM   H16G13932   4.964   4.420   8.093  2.0867 -1.2340  0.8892
  129OSM   C17F13933   4.917   4.285   8.257 -0.2994  0.3603  1.1365
  129OSM   H17F13934   5.020   4.248   8.274 -0.2783  0.2879  0.8532
  129OSM   H17G13935   4.840   4.208   8.280  0.1885 -0.1596  1.0444
  129OSM   C18F13936   4.893   4.408   8.353 -0.8188  0.4666 -0.0719
  129OSM   H18F13937   4.901   4.382   8.460 -1.1172  0.6259 -0.0101
  129OSM   H18G13938   4.793   4.452   8.329 -0.0112  1.4305 -1.8823
  129OSM   H18H13939   4.967   4.491   8.342  1.2882 -1.5219 -1.9937
  130OSM      N13940   0.659   5.026   6.046 -0.4946 -0.5334  0.2978
  130OSM    C1513941   0.680   5.093   6.176 -0.2956  0.6971 -0.3087
  130OSM   H15A13942   0.762   5.039   6.221 -2.0464 -1.6522  0.2265
  130OSM   H15B13943   0.598   5.070   6.242 -0.1286 -0.3676 -0.4569
  130OSM   H15C13944   0.705   5.198   6.167  0.9532  0.7082  2.3824
  130OSM    C1413945   0.537   5.079   5.984  0.0371  0.0428 -0.4771
  130OSM   H14A13946   0.551   5.185   5.966 -0.1373  0.5524  2.0270
  130OSM   H14B13947   0.455   5.071   6.054 -0.3428  1.8568 -0.6647
  130OSM   H14C13948   0.500   5.027   5.897 -0.2992 -1.0810  0.3236
  130OSM    C1313949   0.780   5.058   5.961 -0.6300  0.6075 -0.5667
  130OSM   H13A13950   0.776   5.162   5.934 -0.0334  0.5629 -0.8300
  130OSM   H13B13951   0.787   4.998   5.872  3.6126 -0.1678  0.0891
  130OSM   H13C13952   0.870   5.043   6.018 -0.1520  2.8429 -0.6668
  130OSM    C1213953   0.649   4.873   6.067  0.2574  0.4214 -0.5569
  130OSM   H12A13954   0.613   4.828   5.977  0.4501  0.9309 -0.8953
  130OSM   H12B13955   0.582   4.861   6.151  1.2423 -1.9425 -0.0461
  130OSM    C1113956   0.782   4.792   6.109  0.0234  1.6856 -0.2124
  130OSM   H11A13957   0.840   4.786   6.014  0.9308  0.4875  0.3961
  130OSM   H11B13958   0.755   4.689   6.140 -1.0299  1.2112 -2.5175
  130OSM      P13959   1.007   4.871   6.202 -0.1789 -0.4070 -0.2021
  130OSM    O1313960   1.074   4.754   6.141 -0.5571  0.1134 -0.1135
  130OSM    O1413961   1.023   5.005   6.129  0.8926  0.5000 -0.0912
  130OSM    O1113962   1.060   4.888   6.352  0.2709 -0.0439 -0.9160
  130OSM    O1213963   0.852   4.842   6.220 -0.0984  0.0460 -0.1697
  130OSM    C1S13964   0.963   4.866   6.455 -0.1434  0.1141 -0.1486
  130OSM    H1S13965   0.933   4.760   6.464  0.2094  0.0575  0.3884
  130OSM    H1T13966   0.864   4.916   6.442 -0.9534 -1.4993 -0.4201
  130OSM     NF13967   0.938   4.871   6.706  0.1861  0.5731 -0.1707
  130OSM    HNF13968   0.893   4.934   6.768  2.2616  2.6441 -0.6566
  130OSM    C2S13969   1.023   4.915   6.594  0.2185 -0.1923  0.4723
  130OSM    H2S13970   1.115   4.858   6.621  0.1762 -1.3268 -1.5667
  130OSM    C3S13971   1.059   5.071   6.594  0.8081  0.1885 -0.8862
  130OSM    H3S13972   0.965   5.126   6.568  0.0529 -1.1601 -1.1009
  130OSM     O313973   1.144   5.106   6.486 -0.3341 -0.0982  0.3671
  130OSM    HO313974   1.109   5.058   6.411 -0.1967  1.0717 -0.4802
  130OSM    C4S13975   1.106   5.111   6.731  0.1682 -0.5876 -0.4791
  130OSM    H4S13976   1.026   5.126   6.805  3.6356 -0.6803  3.6575
  130OSM    C5S13977   1.231   5.120   6.783 -0.0429  1.1786  0.4901
  130OSM    H5S13978   1.319   5.100   6.720 -1.5838  0.4214 -1.5395
  130OSM    C6S13979   1.262   5.173   6.921  0.1591  0.2387  0.2433
  130OSM    H6S13980   1.309   5.273   6.914 -0.9012  0.7974  0.9193
  130OSM    H6T13981   1.341   5.102   6.955  2.1785  1.2323 -2.0430
  130OSM    C7S13982   1.148   5.175   7.029  0.2671  0.5437  0.2261
  130OSM    H7S13983   1.110   5.071   7.038  0.8644  0.1662 -1.3412
  130OSM    H7T13984   1.065   5.239   6.993  0.4760 -0.6473 -2.6515
  130OSM    C8S13985   1.182   5.224   7.163 -0.3692 -0.4489 -0.5174
  130OSM    H8S13986   1.231   5.323   7.161  1.1555 -1.1853 -0.8654
  130OSM    H8T13987   1.260   5.157   7.203  1.2950  0.2977 -2.3653
  130OSM    C9S13988   1.059   5.239   7.263 -0.1438  0.6691  0.6631
  130OSM    H9S13989   1.013   5.138   7.271 -0.3809  0.1985 -3.9861
  130OSM    H9T13990   0.982   5.312   7.231  0.3350  0.9784  0.2031
  130OSM   C10S13991   1.105   5.259   7.413  0.1523 -0.2264  0.3893
  130OSM   H10S13992   1.184   5.182   7.428  1.2118  0.4273 -1.4874
  130OSM   H10T13993   1.020   5.236   7.481 -0.3690  1.0150  0.1866
  130OSM   C11S13994   1.161   5.402   7.439  0.5931  0.6188 -0.4222
  130OSM   H11S13995   1.067   5.459   7.454  0.5656  0.6046 -0.5454
  130OSM   H11T13996   1.216   5.446   7.354 -1.0250  0.8546 -1.3810
  130OSM   C12S13997   1.233   5.428   7.574  0.0514  0.0237  0.2716
  130OSM   H12S13998   1.285   5.526   7.569 -0.0990  0.1484  0.9811
  130OSM   H12T13999   1.313   5.351   7.581  0.2053  0.1533 -0.0436
  130OSM   C13S14000   1.134   5.433   7.693 -0.3433  0.8571 -0.0525
  130OSM   H13S14001   1.070   5.343   7.701 -0.1449  0.8105  1.2599
  130OSM   H13T14002   1.069   5.523   7.685 -0.0791  0.9456 -1.5288
  130OSM   C14S14003   1.209   5.444   7.830 -0.6550  0.3517 -0.7118
  130OSM   H14S14004   1.252   5.546   7.818 -1.3335  0.5249 -1.8203
  130OSM   H14T14005   1.283   5.362   7.816  1.8287  2.4060 -0.4298
  130OSM   C15S14006   1.134   5.413   7.960  0.6043  0.4872  0.1395
  130OSM   H15S14007   1.103   5.307   7.971  0.7131  0.5485  1.0785
  130OSM   H15T14008   1.044   5.477   7.953  2.5362  3.3408 -0.6386
  130OSM   C16S14009   1.216   5.470   8.081  0.7695 -0.3319 -0.2281
  130OSM   H16S14010   1.191   5.433   8.183  3.1283 -0.5383  0.3276
  130OSM   H16T14011   1.202   5.580   8.068  1.5689 -0.4822 -3.2126
  130OSM   C17S14012   1.362   5.440   8.067 -0.3553  0.6433  0.2532
  130OSM   H17S14013   1.394   5.500   7.979  1.0428  2.6473  2.0370
  130OSM   H17T14014   1.375   5.330   8.058 -0.2571  0.7344 -0.8564
  130OSM   C18S14015   1.431   5.480   8.201 -0.3185 -0.7745 -0.5967
  130OSM   H18S14016   1.401   5.584   8.227 -0.9870 -1.6268  2.4408
  130OSM   H18T14017   1.542   5.470   8.203 -0.2308  0.1835  0.4096
  130OSM   H18U14018   1.390   5.414   8.281  0.7685  0.6506  1.2147
  130OSM    C1F14019   0.912   4.742   6.740  0.7683  0.5544  0.1371
  130OSM     OF14020   0.965   4.650   6.676 -0.2494 -0.1068  0.6142
  130OSM    C2F14021   0.814   4.711   6.849 -0.0284  0.1545  0.8312
  130OSM    H2F14022   0.753   4.621   6.824 -0.8643  0.4958  1.5960
  130OSM    H2G14023   0.739   4.792   6.848  0.5566  0.7142 -0.4150
  130OSM    C3F14024   0.877   4.679   6.984  0.0926  0.3120 -0.2810
  130OSM    H3F14025   0.952   4.758   7.005  1.3341 -1.2197  1.2555
  130OSM    H3G14026   0.939   4.587   6.982 -0.7867 -0.3966  2.0556
  130OSM    C4F14027   0.761   4.663   7.084  0.2713 -0.2205 -0.1824
  130OSM    H4F14028   0.714   4.564   7.066  3.2568 -1.6648 -0.5859
  130OSM    H4G14029   0.679   4.738   7.071 -0.2677 -1.0132 -1.5630
  130OSM    C5F14030   0.803   4.650   7.236 -0.2417  0.2028  0.9205
  130OSM    H5F14031   0.822   4.757   7.262 -2.7462  1.8307 -2.9892
  130OSM    H5G14032   0.903   4.602   7.238  0.2227  1.0237 -0.7870
  130OSM    C6F14033   0.711   4.563   7.328 -0.3677  0.4219 -0.0284
  130OSM    H6F14034   0.710   4.457   7.295  0.6611  0.5031 -0.3390
  130OSM    H6G14035   0.605   4.593   7.310 -1.5804 -3.5193 -0.4666
  130OSM    C7F14036   0.749   4.585   7.472 -0.1574 -0.0990 -0.0111
  130OSM    H7F14037   0.860   4.581   7.465 -0.1757 -1.4396  0.1455
  130OSM    H7G14038   0.724   4.502   7.542  1.3553  0.3233  1.0655
  130OSM    C8F14039   0.711   4.725   7.523  1.0527  0.2907  0.0321
  130OSM    H8F14040   0.722   4.804   7.445 -1.5701 -0.6011 -1.3401
  130OSM    H8G14041   0.783   4.753   7.604  1.8244 -2.3312  0.3258
  130OSM    C9F14042   0.565   4.737   7.566  0.6890 -0.0873  0.2534
  130OSM    H9F14043   0.496   4.704   7.487  0.6662  2.5354 -0.9362
  130OSM   C10F14044   0.509   4.773   7.685 -0.0267 -0.3927  0.8687
  130OSM   H10F14045   0.400   4.777   7.698  0.1346 -0.7653  2.5442
  130OSM   C11F14046   0.589   4.816   7.808  0.4447  0.2118  0.9460
  130OSM   H11F14047   0.691   4.848   7.780  0.8744  0.5245  2.7506
  130OSM   H11G14048   0.611   4.725   7.867  1.8847 -0.6219 -0.8001
  130OSM   C12F14049   0.518   4.925   7.887 -0.1675 -0.4916 -0.5127
  130OSM   H12F14050   0.410   4.905   7.870 -0.0756 -0.1630 -1.5862
  130OSM   H12G14051   0.545   5.028   7.856 -0.3831  0.5162  2.3463
  130OSM   C13F14052   0.551   4.914   8.039 -0.2747  0.3348 -0.2769
  130OSM   H13F14053   0.661   4.920   8.054 -0.4490  0.7396  1.0156
  130OSM   H13G14054   0.527   4.810   8.069  0.2226  0.1328 -0.5574
  130OSM   C14F14055   0.482   5.013   8.131  0.0190 -0.2836  0.1103
  130OSM   H14F14056   0.372   4.995   8.127  0.1666 -1.1866  0.0538
  130OSM   H14G14057   0.489   5.118   8.093 -0.4035 -0.0839  0.5722
  130OSM   C15F14058   0.528   4.991   8.280 -0.2472  0.3711  0.2006
  130OSM   H15F14059   0.623   4.934   8.277  0.1543  1.0471 -0.0726
  130OSM   H15G14060   0.456   4.920   8.325  0.7822 -0.4219  0.6204
  130OSM   C16F14061   0.537   5.117   8.370  0.2236  0.5811  1.0096
  130OSM   H16F14062   0.457   5.186   8.335  0.6315  1.5105  1.8709
  130OSM   H16G14063   0.632   5.172   8.353 -0.0867  0.4448 -1.5768
  130OSM   C17F14064   0.504   5.096   8.515  0.6979 -0.1300  0.3594
  130OSM   H17F14065   0.589   5.040   8.560  2.9864  1.6658 -1.4980
  130OSM   H17G14066   0.400   5.058   8.520  0.7080 -0.9304 -3.2209
  130OSM   C18F14067   0.509   5.229   8.603  0.1474  0.5018 -0.4587
  130OSM   H18F14068   0.510   5.188   8.707  1.5580  1.2622 -0.1490
  130OSM   H18G14069   0.420   5.292   8.588 -1.3492 -1.5420 -0.5635
  130OSM   H18H14070   0.609   5.277   8.590  0.0967  1.0011  0.8196
  131OSM      N14071   5.493   2.968   5.827  0.3169 -0.1001 -0.0568
  131OSM    C1514072   5.356   3.029   5.818 -1.0476 -0.2705  0.2393
  131OSM   H15A14073   5.302   3.016   5.725 -2.2932  1.8238  0.5916
  131OSM   H15B14074   5.364   3.136   5.832  1.3709 -0.1400 -1.6161
  131OSM   H15C14075   5.301   2.987   5.901  0.0498 -0.9485  0.6311
  131OSM    C1414076   5.472   2.825   5.829 -0.1360  0.6043  0.2566
  131OSM   H14A14077   5.443   2.790   5.731  1.1759  0.8788 -0.2485
  131OSM   H14B14078   5.402   2.781   5.897 -0.5379  0.4346 -0.2580
  131OSM   H14C14079   5.568   2.775   5.836  0.7869  2.3183  0.5895
  131OSM    C1314080   5.575   3.009   5.706 -0.6441  0.3288  0.2549
  131OSM   H13A14081   5.677   2.974   5.716 -0.7942  0.1966  1.5059
  131OSM   H13B14082   5.576   3.117   5.699 -1.8357  0.4965  1.9969
  131OSM   H13C14083   5.541   2.977   5.609 -1.9250  0.7553  0.5416
  131OSM    C1214084   5.557   3.017   5.958  0.2539  0.2644  0.5503
  131OSM   H12A14085   5.581   3.122   5.942 -0.1688  0.1334 -1.1569
  131OSM   H12B14086   5.656   2.973   5.957  1.7522  3.3258 -0.0981
  131OSM    C1114087   5.500   2.987   6.098  0.3876  0.8084 -0.4302
  131OSM   H11A14088   5.576   3.014   6.175 -1.5210  1.1805  1.4381
  131OSM   H11B14089   5.481   2.878   6.111  1.7272  0.7822  1.9985
  131OSM      P14090   5.397   3.217   6.133  0.0662  0.4441  0.2002
  131OSM    O1314091   5.533   3.263   6.108  0.2770  0.3591 -0.1605
  131OSM    O1414092   5.299   3.285   6.048 -0.1312  0.1611 -0.1709
  131OSM    O1114093   5.357   3.257   6.278 -0.1524 -0.1045  0.0248
  131OSM    O1214094   5.378   3.062   6.125 -0.5222  0.3547  0.5191
  131OSM    C1S14095   5.362   3.160   6.389 -0.3931  0.3474  0.2306
  131OSM    H1S14096   5.467   3.130   6.409 -0.6048  0.5900  1.8093
  131OSM    H1T14097   5.295   3.075   6.364  0.3471  0.1651 -1.2645
  131OSM     NF14098   5.322   3.132   6.639  0.4252  0.2998  0.4155
  131OSM    HNF14099   5.237   3.082   6.653  0.0762  0.4864 -0.8793
  131OSM    C2S14100   5.298   3.216   6.521  0.3564 -0.4289  0.2033
  131OSM    H2S14101   5.350   3.311   6.547 -0.5857 -0.1847  1.2620
  131OSM    C3S14102   5.148   3.253   6.497  0.3990  0.2980  0.1583
  131OSM    H3S14103   5.086   3.162   6.484  2.8889 -1.5692  0.7325
  131OSM     O314104   5.129   3.323   6.380  0.5239  0.0517  0.0444
  131OSM    HO314105   5.216   3.319   6.339  0.0858  1.8134 -1.1735
  131OSM    C4S14106   5.097   3.333   6.611 -0.0080 -0.1043 -0.0381
  131OSM    H4S14107   5.140   3.434   6.608 -1.4697  0.5212 -0.5060
  131OSM    C5S14108   4.997   3.304   6.698  0.2010 -0.0074  0.3933
  131OSM    H5S14109   4.946   3.209   6.674  0.9882  0.1412 -2.1706
  131OSM    C6S14110   4.950   3.399   6.804  0.5820 -0.1254 -0.2009
  131OSM    H6S14111   4.895   3.338   6.879  0.8497  0.9080  0.8557
  131OSM    H6T14112   4.889   3.480   6.759  2.6008  0.5204 -1.9555
  131OSM    C7S14113   5.072   3.475   6.868  1.2934  0.3795 -0.2905
  131OSM    H7S14114   5.096   3.561   6.802  0.6242 -0.6073 -1.8683
  131OSM    H7T14115   5.168   3.422   6.890  2.4856  2.3644 -0.4193
  131OSM    C8S14116   5.036   3.535   7.007 -0.0295  0.4359 -0.4811
  131OSM    H8S14117   4.939   3.590   7.003 -0.6729 -0.4932  1.1333
  131OSM    H8T14118   5.124   3.593   7.041  1.6409 -2.3750  0.3416
  131OSM    C9S14119   5.025   3.431   7.107  0.3178  0.2041 -0.5070
  131OSM    H9S14120   5.108   3.357   7.101 -0.8659 -1.1980 -0.1417
  131OSM    H9T14121   4.931   3.374   7.089 -0.2608  1.5834 -2.1403
  131OSM   C10S14122   5.005   3.483   7.252  0.0720 -0.5034 -0.5201
  131OSM   H10S14123   4.901   3.517   7.272  0.3008 -0.2250  0.2550
  131OSM   H10T14124   5.068   3.570   7.282 -0.9613 -0.0948  0.6253
  131OSM   C11S14125   5.027   3.378   7.366  0.2376 -1.3978  0.2650
  131OSM   H11S14126   5.127   3.340   7.339  1.4424  0.8026  1.3662
  131OSM   H11T14127   4.957   3.291   7.369 -0.0829 -1.1448  2.6020
  131OSM   C12S14128   5.041   3.436   7.511  0.5634 -0.5818 -0.1295
  131OSM   H12S14129   5.104   3.527   7.521 -0.8906  0.3626  0.7649
  131OSM   H12T14130   5.109   3.363   7.560  1.6745 -0.5384 -1.5169
  131OSM   C13S14131   4.906   3.454   7.575  0.1324  0.0771 -0.3086
  131OSM   H13S14132   4.855   3.360   7.544  0.9711  0.5917 -3.6616
  131OSM   H13T14133   4.840   3.529   7.526  0.0426  0.6400  0.6652
  131OSM   C14S14134   4.903   3.465   7.733  0.0185  0.6219 -0.2743
  131OSM   H14S14135   4.808   3.511   7.767 -0.2943 -1.8308  2.5357
  131OSM   H14T14136   4.987   3.532   7.762  1.9146 -1.9847  0.6417
  131OSM   C15S14137   4.925   3.339   7.809  0.0252 -0.5297  0.7536
  131OSM   H15S14138   5.012   3.287   7.763  0.4367  2.7274 -2.5592
  131OSM   H15T14139   4.834   3.277   7.792  0.3424 -0.9105  0.4353
  131OSM   C16S14140   4.924   3.363   7.957  0.3930 -0.2298  0.1723
  131OSM   H16S14141   4.831   3.421   7.973  1.5012  1.5909  0.2652
  131OSM   H16T14142   5.011   3.429   7.977  0.4372 -0.7653  1.9228
  131OSM   C17S14143   4.939   3.231   8.042  0.4897  0.2808  0.6562
  131OSM   H17S14144   5.042   3.198   8.019 -0.1939 -1.0163 -0.6835
  131OSM   H17T14145   4.871   3.164   7.985  1.3380 -1.0233  1.1237
  131OSM   C18S14146   4.914   3.245   8.188  1.1441 -0.3356 -0.3550
  131OSM   H18S14147   4.982   3.319   8.234 -0.7579  0.3119  1.5930
  131OSM   H18T14148   4.928   3.145   8.234 -1.4280 -1.1780 -1.2167
  131OSM   H18U14149   4.808   3.273   8.205  0.7427 -1.6985 -0.4422
  131OSM    C1F14150   5.440   3.106   6.691  0.1537  0.7394 -0.1277
  131OSM     OF14151   5.542   3.160   6.651  0.2898 -0.6960  0.3749
  131OSM    C2F14152   5.441   2.990   6.793 -0.0268  0.5516  0.2180
  131OSM    H2F14153   5.399   2.899   6.745 -1.4546  1.9191 -1.2763
  131OSM    H2G14154   5.367   3.003   6.874 -1.9431  1.4353 -1.5850
  131OSM    C3F14155   5.583   2.965   6.855  0.1777  0.1914  0.4273
  131OSM    H3F14156   5.621   3.056   6.907  0.4231  0.0082  0.5710
  131OSM    H3G14157   5.659   2.933   6.781  0.8851 -1.9484  1.9886
  131OSM    C4F14158   5.574   2.858   6.966  0.1288 -0.1472  0.2485
  131OSM    H4F14159   5.562   2.758   6.919  0.3956 -0.3521  0.6100
  131OSM    H4G14160   5.478   2.867   7.021  0.1005  0.0540  0.1655
  131OSM    C5F14161   5.685   2.846   7.067 -0.0028 -0.3876 -0.6020
  131OSM    H5F14162   5.705   2.944   7.115  0.4983 -0.5423 -0.4888
  131OSM    H5G14163   5.771   2.827   6.998  2.0167  0.2163  1.6249
  131OSM    C6F14164   5.661   2.725   7.166 -0.3471 -0.2649 -0.1072
  131OSM    H6F14165   5.677   2.639   7.097  1.5312 -0.8824  1.0205
  131OSM    H6G14166   5.552   2.711   7.185 -0.2963  0.4119  0.7331
  131OSM    C7F14167   5.754   2.704   7.280 -0.4081 -0.6239 -0.1729
  131OSM    H7F14168   5.734   2.772   7.366  1.6902 -0.4360  0.2102
  131OSM    H7G14169   5.861   2.715   7.254  0.0036 -0.4902  1.4611
  131OSM    C8F14170   5.740   2.561   7.346 -0.4159  0.0944  0.2350
  131OSM    H8F14171   5.768   2.501   7.257 -1.8270  1.0602 -0.9080
  131OSM    H8G14172   5.631   2.543   7.355 -0.4920 -0.2775 -1.1977
  131OSM    C9F14173   5.823   2.557   7.472 -0.2200 -0.3832  0.3942
  131OSM    H9F14174   5.931   2.547   7.453 -0.4849 -3.9384  0.0709
  131OSM   C10F14175   5.784   2.560   7.600  0.7654 -0.3064  0.2161
  131OSM   H10F14176   5.865   2.573   7.674 -0.1378  1.0670  0.9945
  131OSM   C11F14177   5.645   2.563   7.640 -0.4399  0.0982  0.6676
  131OSM   H11F14178   5.620   2.460   7.675  1.5021 -0.8757 -0.6226
  131OSM   H11G14179   5.576   2.570   7.553  1.6261 -0.8820 -1.1517
  131OSM   C12F14180   5.620   2.670   7.746 -0.2766  0.1432 -0.3462
  131OSM   H12F14181   5.677   2.640   7.836 -1.5200 -0.2190  0.3458
  131OSM   H12G14182   5.513   2.656   7.775  0.0730 -4.5815 -0.4890
  131OSM   C13F14183   5.648   2.813   7.706  0.9872  0.8011  0.5647
  131OSM   H13F14184   5.745   2.816   7.651 -0.0173 -2.0948 -1.6077
  131OSM   H13G14185   5.648   2.876   7.797 -1.6866  0.0655  1.1711
  131OSM   C14F14186   5.533   2.866   7.618  0.1823  0.2338  0.0989
  131OSM   H14F14187   5.443   2.885   7.680 -0.2631  0.2289 -0.5249
  131OSM   H14G14188   5.518   2.784   7.543  2.6313 -0.6425  0.4965
  131OSM   C15F14189   5.558   3.003   7.549 -0.6207 -0.2669 -0.3337
  131OSM   H15F14190   5.664   3.022   7.525  0.2652 -2.0162  1.8182
  131OSM   H15G14191   5.528   3.083   7.621  0.3387 -1.4230  1.4347
  131OSM   C16F14192   5.485   3.030   7.415 -0.5297  0.5226 -0.4431
  131OSM   H16F14193   5.377   3.013   7.435 -0.3733 -0.9878 -0.7621
  131OSM   H16G14194   5.501   2.961   7.330  0.5064  1.9344 -1.4357
  131OSM   C17F14195   5.516   3.167   7.362 -0.8022 -0.6709  0.3039
  131OSM   H17F14196   5.624   3.176   7.339 -0.5757 -2.1149  0.7406
  131OSM   H17G14197   5.486   3.252   7.427  0.8404 -0.1926  0.4615
  131OSM   C18F14198   5.437   3.186   7.226 -0.2066 -0.1845 -0.4677
  131OSM   H18F14199   5.328   3.184   7.244  0.1822  1.8484  3.0911
  131OSM   H18G14200   5.461   3.097   7.164 -1.9046 -1.3411  0.4484
  131OSM   H18H14201   5.478   3.281   7.186 -0.5042 -0.3403 -1.1404
  132OSM      N14202   0.460   3.604   6.412  0.7516 -0.1558  0.5071
  132OSM    C1514203   0.340   3.518   6.445 -0.3359 -0.0003 -0.4329
  132OSM   H15A14204   0.257   3.580   6.476 -1.8691 -2.6650  1.1784
  132OSM   H15B14205   0.358   3.468   6.539 -1.7753 -0.0943 -0.1802
  132OSM   H15C14206   0.314   3.445   6.370 -0.3118 -1.1920  0.6834
  132OSM    C1414207   0.430   3.672   6.289  0.2224 -0.4030 -0.3555
  132OSM   H14A14208   0.487   3.763   6.285  0.9273 -0.7186  1.6031
  132OSM   H14B14209   0.332   3.719   6.289 -0.5329 -1.9267 -0.1936
  132OSM   H14C14210   0.457   3.614   6.202 -1.7613  0.0599 -1.3449
  132OSM    C1314211   0.471   3.706   6.524  0.0188  0.0142  0.9539
  132OSM   H13A14212   0.520   3.664   6.611  0.8068 -0.5010  0.2711
  132OSM   H13B14213   0.378   3.760   6.534  0.6147  1.1987  0.2961
  132OSM   H13C14214   0.535   3.787   6.492 -0.7138 -0.4376 -1.8906
  132OSM    C1214215   0.594   3.530   6.405  0.8143 -0.0522  0.2149
  132OSM   H12A14216   0.629   3.482   6.495  1.5725 -0.6339 -0.3755
  132OSM   H12B14217   0.663   3.611   6.383  0.3581  0.4293  0.5355
  132OSM    C1114218   0.600   3.437   6.281  0.3622 -0.1137 -0.4179
  132OSM   H11A14219   0.589   3.490   6.184 -1.6406 -3.6657 -2.3359
  132OSM   H11B14220   0.515   3.365   6.277  1.7755 -1.8975  0.0526
  132OSM      P14221   0.745   3.248   6.378 -0.2795 -0.2722  0.3698
  132OSM    O1314222   0.658   3.137   6.346 -0.3304 -0.0173  0.2135
  132OSM    O1414223   0.894   3.220   6.372 -0.2825 -0.5574 -0.3157
  132OSM    O1114224   0.708   3.303   6.517  0.3774  0.5909 -0.6334
  132OSM    O1214225   0.725   3.371   6.280 -0.2038  0.0064 -0.0960
  132OSM    C1S14226   0.730   3.222   6.638 -0.7606  0.9227 -0.0049
  132OSM    H1S14227   0.828   3.258   6.674  0.7707  1.2754 -4.0408
  132OSM    H1T14228   0.745   3.114   6.618  0.9877  1.3659 -1.2706
  132OSM     NF14229   0.655   3.189   6.868 -0.1538  0.1320 -0.0537
  132OSM    HNF14230   0.635   3.100   6.908  2.2317  0.0140  1.0138
  132OSM    C2S14231   0.616   3.237   6.737 -0.5694 -0.3627 -0.7230
  132OSM    H2S14232   0.586   3.344   6.738 -0.6776 -0.3894 -1.1949
  132OSM    C3S14233   0.499   3.165   6.669 -0.5341  0.2751  0.2066
  132OSM    H3S14234   0.522   3.057   6.653 -1.6041 -0.6881  4.1666
  132OSM     O314235   0.463   3.219   6.541  0.1351  0.4498 -0.1202
  132OSM    HO314236   0.544   3.261   6.511  0.6107 -2.0422 -2.7630
  132OSM    C4S14237   0.387   3.160   6.762  0.8730 -0.3032  0.3897
  132OSM    H4S14238   0.371   3.070   6.823 -1.7882  0.0936  0.4151
  132OSM    C5S14239   0.293   3.249   6.792  0.0925 -0.6121 -0.1886
  132OSM    H5S14240   0.286   3.337   6.726  1.2707 -0.7505 -0.5186
  132OSM    C6S14241   0.174   3.238   6.877  0.4535  0.8810 -0.7381
  132OSM    H6S14242   0.083   3.267   6.820 -0.3570 -1.1114 -0.5459
  132OSM    H6T14243   0.174   3.314   6.957  2.2830  0.5845 -0.4117
  132OSM    C7S14244   0.144   3.099   6.943  0.6254 -0.0234  0.2413
  132OSM    H7S14245   0.155   3.017   6.869  3.4635  0.0697  0.4336
  132OSM    H7T14246   0.041   3.103   6.984 -0.7112 -0.3330 -2.8701
  132OSM    C8S14247   0.235   3.073   7.053  0.1681 -0.8140 -0.4520
  132OSM    H8S14248   0.338   3.105   7.027  0.0949 -0.1532  0.0594
  132OSM    H8T14249   0.224   2.965   7.078  0.2326 -0.4878  1.0305
  132OSM    C9S14250   0.194   3.153   7.179  0.3949  1.1075  0.2561
  132OSM    H9S14251   0.097   3.119   7.220 -0.9220  1.0672 -2.6302
  132OSM    H9T14252   0.210   3.260   7.151  1.8614  0.9631  0.4322
  132OSM   C10S14253   0.288   3.132   7.301 -0.3243 -0.8261 -0.1699
  132OSM   H10S14254   0.390   3.166   7.274 -0.7378  0.3007 -0.3448
  132OSM   H10T14255   0.285   3.022   7.321 -2.2133 -0.4003  2.3927
  132OSM   C11S14256   0.244   3.209   7.430 -0.3828  0.3297 -0.2260
  132OSM   H11S14257   0.265   3.144   7.517 -1.8794  0.3671  0.1905
  132OSM   H11T14258   0.133   3.213   7.433 -0.5152 -2.2036  0.5407
  132OSM   C12S14259   0.311   3.344   7.441  0.0677 -0.6675 -0.3915
  132OSM   H12S14260   0.256   3.407   7.515 -0.1221 -0.8835 -0.3469
  132OSM   H12T14261   0.320   3.401   7.346 -0.8358  1.1354  0.5418
  132OSM   C13S14262   0.449   3.334   7.511  0.3824 -0.1481  0.2488
  132OSM   H13S14263   0.514   3.423   7.495  1.6260 -0.7780  1.5139
  132OSM   H13T14264   0.496   3.251   7.455  0.2350  0.8214 -1.3657
  132OSM   C14S14265   0.445   3.288   7.657 -0.5657 -0.2702  0.1682
  132OSM   H14S14266   0.544   3.240   7.673  0.0370 -0.4502 -3.3369
  132OSM   H14T14267   0.374   3.205   7.676 -0.4071  0.1519  3.1038
  132OSM   C15S14268   0.410   3.399   7.757 -0.3126 -0.1530  0.3556
  132OSM   H15S14269   0.308   3.436   7.732 -0.1806  2.3262  2.9952
  132OSM   H15T14270   0.483   3.481   7.743 -1.9790  1.7480  1.9930
  132OSM   C16S14271   0.413   3.354   7.905  0.6218  0.2538 -0.0339
  132OSM   H16S14272   0.512   3.311   7.930  0.8170 -0.1927 -1.5153
  132OSM   H16T14273   0.336   3.278   7.929 -1.7698  2.8020  1.0376
  132OSM   C17S14274   0.393   3.477   7.998 -0.8015  0.3349 -0.0876
  132OSM   H17S14275   0.286   3.507   7.994 -0.6123  1.4562  1.8706
  132OSM   H17T14276   0.460   3.559   7.964  0.6292 -0.4886  0.6536
  132OSM   C18S14277   0.438   3.453   8.140 -0.0003  0.3152 -0.4437
  132OSM   H18S14278   0.476   3.542   8.195  2.3381  0.0407 -1.4800
  132OSM   H18T14279   0.523   3.381   8.136 -0.8490 -0.6988 -0.5696
  132OSM   H18U14280   0.366   3.404   8.210  2.5459 -1.8040  0.8776
  132OSM    C1F14281   0.722   3.272   6.949 -0.1570 -0.1938  0.3864
  132OSM     OF14282   0.783   3.367   6.901  0.4693  0.1552  0.1376
  132OSM    C2F14283   0.717   3.230   7.095 -0.6366 -0.1219  0.4351
  132OSM    H2F14284   0.768   3.131   7.102  1.2920  0.8932  1.5943
  132OSM    H2G14285   0.610   3.226   7.126 -0.7879 -1.7182 -0.1801
  132OSM    C3F14286   0.803   3.325   7.183  0.7286 -0.1682  0.0630
  132OSM    H3F14287   0.774   3.431   7.169  1.2212 -0.0468 -0.0582
  132OSM    H3G14288   0.906   3.321   7.141 -0.0101 -0.7306 -1.8020
  132OSM    C4F14289   0.808   3.297   7.335 -0.7988 -0.3031 -0.1059
  132OSM    H4F14290   0.754   3.204   7.360 -0.1960 -0.2540  1.4870
  132OSM    H4G14291   0.760   3.379   7.393  2.9442  1.6267  0.6063
  132OSM    C5F14292   0.956   3.287   7.392  0.4794 -0.0972 -0.0886
  132OSM    H5F14293   1.018   3.371   7.354  0.7823 -0.7847 -1.1661
  132OSM    H5G14294   0.998   3.200   7.337  0.6800  0.8190 -1.4362
  132OSM    C6F14295   0.978   3.269   7.538 -0.2320  0.2797 -0.0052
  132OSM    H6F14296   0.945   3.362   7.589  2.4515  0.1595  2.1439
  132OSM    H6G14297   1.086   3.253   7.559 -0.1716  0.9628  0.2340
  132OSM    C7F14298   0.908   3.142   7.601 -0.7030  0.3490 -0.2264
  132OSM    H7F14299   0.961   3.057   7.551  0.6701  0.8271  0.3670
  132OSM    H7G14300   0.800   3.147   7.575 -0.6232 -0.8444 -0.9061
  132OSM    C8F14301   0.919   3.159   7.761 -0.4090 -0.0421 -0.2053
  132OSM    H8F14302   1.021   3.196   7.782 -0.5915  0.4327 -0.1302
  132OSM    H8G14303   0.885   3.066   7.810  2.8246 -1.9574 -1.3496
  132OSM    C9F14304   0.824   3.265   7.825  0.0573 -0.2101 -0.1022
  132OSM    H9F14305   0.748   3.307   7.757 -0.0346 -0.7450 -0.3317
  132OSM   C10F14306   0.817   3.303   7.945  1.0550 -1.0289 -0.0199
  132OSM   H10F14307   0.747   3.385   7.969  1.3996 -0.5973 -0.4599
  132OSM   C11F14308   0.901   3.261   8.066  0.0665  0.3406  0.8132
  132OSM   H11F14309   1.010   3.281   8.053  0.4193 -2.0691 -0.5338
  132OSM   H11G14310   0.904   3.150   8.058  1.2114  0.4442 -0.7625
  132OSM   C12F14311   0.855   3.309   8.200  0.0086  0.1943 -0.5979
  132OSM   H12F14312   0.898   3.240   8.276  2.8162  1.4144 -0.9483
  132OSM   H12G14313   0.746   3.289   8.206  0.1451 -0.5100 -0.4023
  132OSM   C13F14314   0.902   3.453   8.240  0.6442  0.5959  0.2245
  132OSM   H13F14315   0.881   3.533   8.166 -0.8624  0.0409 -0.0033
  132OSM   H13G14316   1.008   3.432   8.263  0.3696 -0.2495  0.7754
  132OSM   C14F14317   0.857   3.505   8.372 -0.8408 -0.1781 -0.3479
  132OSM   H14F14318   0.944   3.571   8.394  0.1667 -1.1663 -1.2324
  132OSM   H14G14319   0.859   3.421   8.445  2.6955 -0.1825 -0.2739
  132OSM   C15F14320   0.739   3.611   8.384 -0.3262  0.3351  0.0805
  132OSM   H15F14321   0.660   3.542   8.348 -1.4715 -0.0072  3.0198
  132OSM   H15G14322   0.751   3.696   8.313 -0.9936 -0.6177 -1.2219
  132OSM   C16F14323   0.704   3.658   8.529  0.3374  0.2218 -0.4113
  132OSM   H16F14324   0.794   3.715   8.560  1.8761 -1.9706 -0.7051
  132OSM   H16G14325   0.683   3.572   8.596  1.0929 -0.6219 -1.2500
  132OSM   C17F14326   0.577   3.743   8.541  1.2485  0.1611 -0.4546
  132OSM   H17F14327   0.572   3.817   8.458 -0.5342 -1.0359 -1.4968
  132OSM   H17G14328   0.570   3.791   8.641 -0.5833  0.8617 -0.8723
  132OSM   C18F14329   0.440   3.668   8.531  0.1014  0.1674  0.0940
  132OSM   H18F14330   0.344   3.723   8.529 -1.0187 -1.6757  0.8442
  132OSM   H18G14331   0.428   3.608   8.623  2.8563  2.5012  2.1696
  132OSM   H18H14332   0.441   3.597   8.445  1.7577 -0.8403  0.8905
  133OSM      N14333   1.409   3.525   6.101 -0.1947  0.4347 -0.1629
  133OSM    C1514334   1.500   3.587   5.998  0.0662  0.6231  0.2389
  133OSM   H15A14335   1.445   3.621   5.912 -1.4128 -2.9245 -0.3693
  133OSM   H15B14336   1.573   3.517   5.960 -0.3072 -0.6478  1.7501
  133OSM   H15C14337   1.557   3.666   6.045 -0.7001  0.6093  1.2203
  133OSM    C1414338   1.290   3.461   6.048  0.0389  0.7650 -0.2622
  133OSM   H14A14339   1.224   3.444   6.132  0.9958 -0.1190  0.3228
  133OSM   H14B14340   1.308   3.361   6.012 -2.2614  0.4874 -0.7913
  133OSM   H14C14341   1.238   3.520   5.973 -0.5797 -0.4797 -0.8531
  133OSM    C1314342   1.486   3.412   6.169  0.0158  0.0326  0.3564
  133OSM   H13A14343   1.573   3.448   6.223  1.5372  0.2628 -2.0873
  133OSM   H13B14344   1.524   3.344   6.094 -2.3939 -0.3542 -0.5847
  133OSM   H13C14345   1.426   3.358   6.240 -0.4912  0.6028  0.3714
  133OSM    C1214346   1.374   3.640   6.194 -0.2177  1.0765  0.4386
  133OSM   H12A14347   1.326   3.708   6.125 -0.6873  0.5170  0.2007
  133OSM   H12B14348   1.467   3.689   6.217  0.9596 -1.3634  1.1683
  133OSM    C1114349   1.284   3.637   6.318  0.1698  0.0455 -0.4849
  133OSM   H11A14350   1.301   3.729   6.378  2.7025 -2.5412  3.2589
  133OSM   H11B14351   1.309   3.553   6.386  1.0984 -0.2960 -1.2169
  133OSM      P14352   1.032   3.729   6.303 -0.3487  0.1354 -0.2847
  133OSM    O1314353   1.079   3.871   6.306  0.3581  0.7849  0.3740
  133OSM    O1414354   0.932   3.694   6.205  0.2179 -0.2539  0.2834
  133OSM    O1114355   0.970   3.696   6.442  0.1074 -0.1965 -0.5706
  133OSM    O1214356   1.149   3.625   6.280 -0.3819  0.1368  0.0284
  133OSM    C1S14357   0.983   3.570   6.512 -0.2258 -0.5381  0.5846
  133OSM    H1S14358   1.078   3.521   6.483 -0.7727 -2.0278  1.2489
  133OSM    H1T14359   0.906   3.497   6.480 -1.6846  1.4206 -0.6307
  133OSM     NF14360   0.989   3.464   6.743 -0.2975  0.5047  0.4408
  133OSM    HNF14361   0.914   3.414   6.785  0.9284 -1.9558 -0.0754
  133OSM    C2S14362   0.958   3.585   6.666 -1.3111  0.2976 -0.6049
  133OSM    H2S14363   1.023   3.672   6.688 -0.0726 -0.1674 -2.2009
  133OSM    C3S14364   0.812   3.640   6.696  0.1131 -0.1294  0.2507
  133OSM    H3S14365   0.746   3.551   6.686  0.0321 -0.0986  0.5003
  133OSM     O314366   0.756   3.732   6.602  0.1734  0.4176 -0.2495
  133OSM    HO314367   0.825   3.741   6.535  1.6717 -0.8386  1.0587
  133OSM    C4S14368   0.800   3.692   6.837 -0.3092  0.5925 -0.1216
  133OSM    H4S14369   0.780   3.606   6.903  0.0726  0.4625 -0.1773
  133OSM    C5S14370   0.794   3.817   6.883  0.9640  0.1748  0.5276
  133OSM    H5S14371   0.792   3.900   6.811  2.9873 -1.2834 -1.3506
  133OSM    C6S14372   0.787   3.859   7.028 -0.3285 -0.8893 -0.5604
  133OSM    H6S14373   0.705   3.934   7.033  2.1800  2.0783 -1.5346
  133OSM    H6T14374   0.884   3.909   7.045 -0.1190 -0.6619 -2.2810
  133OSM    C7S14375   0.765   3.743   7.130  0.5412 -0.5462 -0.5127
  133OSM    H7S14376   0.840   3.663   7.115  1.1679  0.0559 -0.6416
  133OSM    H7T14377   0.667   3.692   7.114 -1.0238  1.6779  1.3672
  133OSM    C8S14378   0.771   3.799   7.272  0.6257  0.6480 -0.9205
  133OSM    H8S14379   0.676   3.855   7.288  0.3520 -0.3699  1.3670
  133OSM    H8T14380   0.859   3.865   7.288  1.1151  0.1536 -1.5397
  133OSM    C9S14381   0.780   3.687   7.386  0.6912  0.2195 -0.0373
  133OSM    H9S14382   0.881   3.640   7.384  0.5317 -0.3463  2.4408
  133OSM    H9T14383   0.706   3.606   7.367  0.2448  0.9068 -1.4344
  133OSM   C10S14384   0.758   3.744   7.528  0.2187  0.1310 -0.6376
  133OSM   H10S14385   0.657   3.790   7.538  1.0001  1.9348 -0.7584
  133OSM   H10T14386   0.834   3.824   7.535 -1.3713  2.0478 -3.3159
  133OSM   C11S14387   0.762   3.642   7.644 -0.5604 -0.2978  0.1460
  133OSM   H11S14388   0.846   3.572   7.624 -1.2417 -1.8042  2.2715
  133OSM   H11T14389   0.672   3.577   7.648 -1.0285  0.2575 -1.0030
  133OSM   C12S14390   0.783   3.693   7.789 -0.1461  0.1422 -0.4391
  133OSM   H12S14391   0.880   3.746   7.794 -0.2849  0.3045  1.1706
  133OSM   H12T14392   0.786   3.606   7.858 -3.7333  2.3374  2.9153
  133OSM   C13S14393   0.668   3.778   7.843 -0.4428  0.3620  1.0323
  133OSM   H13S14394   0.578   3.712   7.840 -0.4508  0.3935  0.3022
  133OSM   H13T14395   0.643   3.868   7.784 -0.4680  1.7740  3.1171
  133OSM   C14S14396   0.679   3.830   7.988 -0.1719  1.4411  0.1308
  133OSM   H14S14397   0.783   3.850   8.022 -0.2099  0.3570  0.9136
  133OSM   H14T14398   0.639   3.752   8.056  0.6032 -0.2745 -1.3251
  133OSM   C15S14399   0.599   3.959   8.017  0.1348  0.5727  0.2952
  133OSM   H15S14400   0.507   3.953   7.956  0.6222  1.5391 -0.5606
  133OSM   H15T14401   0.658   4.045   7.979 -0.4507  0.5091 -0.7937
  133OSM   C16S14402   0.575   3.978   8.171 -0.6734 -0.2134 -0.4249
  133OSM   H16S14403   0.669   4.017   8.215 -1.3470 -1.7449  2.6336
  133OSM   H16T14404   0.559   3.887   8.233 -1.1397  0.9892  1.3151
  133OSM   C17S14405   0.469   4.088   8.199 -0.0153 -0.4136 -0.0047
  133OSM   H17S14406   0.374   4.081   8.142  1.1857 -1.8283 -1.9677
  133OSM   H17T14407   0.523   4.183   8.176 -0.8270 -0.0332 -0.3899
  133OSM   C18S14408   0.432   4.091   8.348  0.2679  0.5822 -0.0452
  133OSM   H18S14409   0.350   4.019   8.372  1.2464 -0.6839 -0.3801
  133OSM   H18T14410   0.395   4.193   8.371 -1.5002  0.5480 -2.3439
  133OSM   H18U14411   0.517   4.054   8.408 -0.1293 -1.8603 -0.8566
  133OSM    C1F14412   1.113   3.421   6.755 -0.3589  0.6982 -0.4899
  133OSM     OF14413   1.207   3.482   6.708  0.3132 -0.2007 -0.6658
  133OSM    C2F14414   1.135   3.307   6.856 -0.3562 -0.0579  0.1459
  133OSM    H2F14415   1.086   3.334   6.952 -1.1512 -1.6282  0.2019
  133OSM    H2G14416   1.242   3.305   6.884 -0.4243  2.0258  0.7723
  133OSM    C3F14417   1.088   3.175   6.805 -0.0198  0.0327  0.2020
  133OSM    H3F14418   1.156   3.142   6.723  0.1709  1.5364 -0.2683
  133OSM    H3G14419   0.984   3.187   6.768  0.5134  2.2547 -0.7198
  133OSM    C4F14420   1.089   3.069   6.925 -0.2935 -0.2315  0.5989
  133OSM    H4F14421   1.022   3.118   7.000  0.1377  3.6162 -1.2705
  133OSM    H4G14422   1.192   3.077   6.966 -0.0185 -0.4730 -0.0467
  133OSM    C5F14423   1.032   2.933   6.887 -0.4647 -0.0907  0.6934
  133OSM    H5F14424   1.112   2.883   6.829 -0.3772  0.0279  0.7116
  133OSM    H5G14425   0.941   2.926   6.824 -0.2575 -0.4298  0.4297
  133OSM    C6F14426   1.021   2.853   7.012 -0.0395 -0.0680 -0.2754
  133OSM    H6F14427   0.940   2.893   7.077 -1.0704 -0.4633 -1.2675
  133OSM    H6G14428   1.122   2.853   7.059 -0.2018  1.6613  0.1494
  133OSM    C7F14429   0.977   2.704   6.984  0.0482  0.0346 -0.5188
  133OSM    H7F14430   1.067   2.658   6.937 -0.3540 -2.2740  0.8204
  133OSM    H7G14431   0.898   2.723   6.908  0.4469  2.3522 -0.4290
  133OSM    C8F14432   0.939   2.623   7.107  0.6161  1.0165 -0.7691
  133OSM    H8F14433   0.889   2.530   7.070  1.6261  1.2271 -2.7802
  133OSM    H8G14434   0.866   2.678   7.170  1.7589 -0.0637  1.5941
  133OSM    C9F14435   1.058   2.568   7.181 -0.7149 -0.0315  0.2199
  133OSM    H9F14436   1.132   2.518   7.117  0.5470 -0.0813  1.6657
  133OSM   C10F14437   1.097   2.604   7.310  0.1059 -0.8476  0.3991
  133OSM   H10F14438   1.191   2.560   7.345  0.5761 -0.9415 -0.9302
  133OSM   C11F14439   1.019   2.691   7.404  0.1810 -0.5542  0.0496
  133OSM   H11F14440   0.910   2.670   7.398 -0.0865  0.5800  0.6836
  133OSM   H11G14441   1.033   2.798   7.380 -0.1317  0.0055  2.1623
  133OSM   C12F14442   1.043   2.653   7.550 -0.2419 -0.1746  0.6223
  133OSM   H12F14443   1.152   2.666   7.567 -0.2222  2.5211 -1.0045
  133OSM   H12G14444   1.019   2.545   7.558 -0.1411 -0.0793  2.4788
  133OSM   C13F14445   0.972   2.737   7.662  0.4531  0.9088 -0.0065
  133OSM   H13F14446   0.862   2.722   7.659  0.7116 -1.2169 -0.0658
  133OSM   H13G14447   0.975   2.845   7.635 -1.4349  0.6774 -1.3482
  133OSM   C14F14448   1.033   2.705   7.802  0.4748 -0.4533  0.2254
  133OSM   H14F14449   1.134   2.749   7.810  0.1265 -0.0079  2.6945
  133OSM   H14G14450   1.038   2.595   7.819  0.2749 -0.2048  2.0261
  133OSM   C15F14451   0.958   2.770   7.922 -0.6148 -0.8188  0.5189
  133OSM   H15F14452   0.866   2.708   7.930 -0.1827 -1.2403  2.6530
  133OSM   H15G14453   0.944   2.880   7.913  1.6398 -0.4848  0.5251
  133OSM   C16F14454   1.045   2.749   8.047 -0.4053  0.5778  0.2903
  133OSM   H16F14455   1.152   2.772   8.029 -0.2807  1.2146  1.7475
  133OSM   H16G14456   1.052   2.640   8.064  1.1183  0.5816 -0.1592
  133OSM   C17F14457   1.018   2.827   8.174 -0.2573 -0.4267 -0.4484
  133OSM   H17F14458   1.010   2.934   8.147 -0.1634 -0.5058 -0.7855
  133OSM   H17G14459   1.097   2.811   8.250 -1.6530 -0.5285  1.0575
  133OSM   C18F14460   0.886   2.792   8.241 -0.4794  0.1927  0.3012
  133OSM   H18F14461   0.871   2.854   8.332  0.0232  0.9139 -0.0945
  133OSM   H18G14462   0.882   2.686   8.274  0.0724 -0.2932 -1.1117
  133OSM   H18H14463   0.799   2.804   8.173 -0.4422  2.2409  0.5440
  134OSM      N14464   1.695   6.011   6.233 -0.2236  0.1123  0.3785
  134OSM    C1514465   1.568   5.966   6.170  0.4660  0.0424  0.0537
  134OSM   H15A14466   1.534   6.049   6.109  0.4078  0.6518  0.8849
  134OSM   H15B14467   1.495   5.924   6.239  1.6112  1.1685  2.0522
  134OSM   H15C14468   1.594   5.889   6.100 -2.8157  0.5766 -2.0033
  134OSM    C1414469   1.765   5.888   6.284  0.4201  0.0418 -0.7038
  134OSM   H14A14470   1.818   5.898   6.378  0.1729  1.6070 -0.7075
  134OSM   H14B14471   1.829   5.842   6.211 -2.5698 -0.1683 -3.3775
  134OSM   H14C14472   1.693   5.810   6.302 -0.5182  1.1941  0.8067
  134OSM    C1314473   1.775   6.068   6.123  0.5035 -0.0005 -0.1480
  134OSM   H13A14474   1.728   6.158   6.087  0.3631  0.0951  0.2676
  134OSM   H13B14475   1.793   6.015   6.031 -1.8244  1.4656 -1.5547
  134OSM   H13C14476   1.865   6.101   6.173  0.3892  1.0454 -0.6071
  134OSM    C1214477   1.661   6.110   6.344 -0.1372  0.1402 -0.8102
  134OSM   H12A14478   1.746   6.146   6.401 -0.4824  1.2268 -0.9536
  134OSM   H12B14479   1.600   6.061   6.418  1.7437 -0.7199  0.2616
  134OSM    C1114480   1.573   6.229   6.297  0.3306 -0.8713  0.4546
  134OSM   H11A14481   1.521   6.263   6.388 -1.4745 -1.9849 -0.1181
  134OSM   H11B14482   1.487   6.207   6.230  0.0729 -1.8627  1.0922
  134OSM      P14483   1.748   6.418   6.333  0.0439 -0.2483 -0.5510
  134OSM    O1314484   1.884   6.407   6.278  0.8470 -0.1804 -0.0970
  134OSM    O1414485   1.697   6.557   6.344  0.2361 -0.0890  0.4536
  134OSM    O1114486   1.746   6.357   6.480 -0.1414  0.0519 -0.1214
  134OSM    O1214487   1.645   6.336   6.246  0.2491 -0.2535 -0.0463
  134OSM    C1S14488   1.819   6.431   6.589 -0.0628  0.6663  0.5800
  134OSM    H1S14489   1.884   6.509   6.544 -0.5508 -0.6126 -2.6796
  134OSM    H1T14490   1.892   6.365   6.640 -0.2452 -0.5722 -0.6891
  134OSM     NF14491   1.801   6.560   6.806  0.2589  0.0750  0.2548
  134OSM    HNF14492   1.821   6.523   6.897  1.0208  0.3910  0.2193
  134OSM    C2S14493   1.728   6.488   6.700  0.2385 -0.3243 -0.0914
  134OSM    H2S14494   1.661   6.562   6.652  1.5217  1.0613  0.1651
  134OSM    C3S14495   1.637   6.372   6.753 -0.4944 -0.0127 -0.4461
  134OSM    H3S14496   1.712   6.302   6.795 -0.1356  0.5747 -0.0901
  134OSM     O314497   1.567   6.298   6.654 -0.1807  0.2105  0.4334
  134OSM    HO314498   1.615   6.320   6.574 -1.0391 -2.9152 -1.1173
  134OSM    C4S14499   1.546   6.427   6.852  0.9347 -0.0248  0.5501
  134OSM    H4S14500   1.597   6.444   6.948 -0.1472  0.5954  1.0266
  134OSM    C5S14501   1.421   6.478   6.844  0.7296 -0.2585 -0.2504
  134OSM    H5S14502   1.381   6.492   6.742  1.3456 -0.1373 -0.4772
  134OSM    C6S14503   1.326   6.538   6.959 -0.2231  0.5785  0.5393
  134OSM    H6S14504   1.244   6.467   6.981 -0.3739  0.3372 -0.7297
  134OSM    H6T14505   1.289   6.638   6.929  1.5391  1.3809  0.9138
  134OSM    C7S14506   1.406   6.556   7.092  0.0586 -0.0760  0.0367
  134OSM    H7S14507   1.471   6.644   7.075 -1.3673  0.8570 -0.7260
  134OSM    H7T14508   1.464   6.463   7.112 -1.2025 -0.8366  0.2577
  134OSM    C8S14509   1.301   6.594   7.209 -0.3009  0.8659 -0.0228
  134OSM    H8S14510   1.230   6.509   7.216  1.3935 -1.0604 -3.7407
  134OSM    H8T14511   1.248   6.690   7.188 -0.5395  1.4500  2.7547
  134OSM    C9S14512   1.376   6.620   7.335  1.2258 -0.1121  0.5608
  134OSM    H9S14513   1.459   6.691   7.314  0.9339 -0.3513 -1.7686
  134OSM    H9T14514   1.423   6.524   7.366 -0.5748 -0.9078  0.9345
  134OSM   C10S14515   1.283   6.683   7.438 -0.6141  0.1058  0.3750
  134OSM   H10S14516   1.179   6.644   7.446 -0.2887 -0.9918 -0.5083
  134OSM   H10T14517   1.270   6.788   7.403 -0.7874  0.0448  0.2506
  134OSM   C11S14518   1.342   6.694   7.578 -0.4410 -0.3219  0.1530
  134OSM   H11S14519   1.276   6.758   7.640  0.7169  0.5625  0.5070
  134OSM   H11T14520   1.434   6.757   7.577 -0.7946  0.3122 -2.7005
  134OSM   C12S14521   1.368   6.559   7.650  0.3225  0.1657 -0.0316
  134OSM   H12S14522   1.473   6.526   7.637  0.1298  0.1159 -1.7276
  134OSM   H12T14523   1.301   6.487   7.597  0.0756 -0.9474  1.6821
  134OSM   C13S14524   1.341   6.559   7.806 -0.4653  0.0524 -0.8084
  134OSM   H13S14525   1.351   6.457   7.850  3.0057  0.7096  0.2302
  134OSM   H13T14526   1.241   6.597   7.835 -0.7633  1.1466 -3.0386
  134OSM   C14S14527   1.447   6.642   7.894  0.0286  0.1935  0.1093
  134OSM   H14S14528   1.447   6.750   7.871 -3.8437  0.1052 -0.9493
  134OSM   H14T14529   1.545   6.605   7.856  0.5346  0.8326  0.7769
  134OSM   C15S14530   1.440   6.603   8.047  0.2124 -0.3288 -0.0491
  134OSM   H15S14531   1.461   6.494   8.050  1.6417 -0.1249 -1.3762
  134OSM   H15T14532   1.339   6.616   8.093 -1.0295 -2.5138 -1.9260
  134OSM   C16S14533   1.555   6.660   8.125 -0.3573  0.4917 -0.1692
  134OSM   H16S14534   1.562   6.771   8.117  0.4337  0.4388 -0.3316
  134OSM   H16T14535   1.641   6.610   8.076 -1.9018 -3.8470  1.1206
  134OSM   C17S14536   1.551   6.627   8.281  0.2500 -0.1562 -0.6472
  134OSM   H17S14537   1.656   6.621   8.316 -0.4083 -1.1316  1.3033
  134OSM   H17T14538   1.526   6.519   8.290  0.3388 -0.1332 -0.1017
  134OSM   C18S14539   1.466   6.728   8.363 -0.1925  0.1849  0.7918
  134OSM   H18S14540   1.519   6.826   8.363  1.9723 -0.9129  1.2332
  134OSM   H18T14541   1.455   6.687   8.465  0.9697 -3.0792 -0.2698
  134OSM   H18U14542   1.363   6.731   8.322  0.0413 -0.9888  0.0642
  134OSM    C1F14543   1.827   6.689   6.797 -0.0486 -0.5370  0.5304
  134OSM     OF14544   1.772   6.754   6.713  0.0401 -0.4472 -0.5524
  134OSM    C2F14545   1.904   6.760   6.907 -0.4235  0.3524 -0.3166
  134OSM    H2F14546   2.008   6.723   6.895 -0.0097  0.8924  1.3860
  134OSM    H2G14547   1.868   6.726   7.007  2.7211 -2.7061 -0.0437
  134OSM    C3F14548   1.912   6.905   6.871 -0.0188 -0.2474 -0.0071
  134OSM    H3F14549   1.813   6.947   6.897 -0.7771 -1.4376 -0.8552
  134OSM    H3G14550   1.935   6.916   6.762  1.2310  1.7502  0.4065
  134OSM    C4F14551   2.022   6.975   6.957 -0.2803 -0.0575  1.2218
  134OSM    H4F14552   2.009   7.083   6.933 -0.8997 -0.4459 -0.2657
  134OSM    H4G14553   2.122   6.954   6.912 -0.1851  0.1778  1.3201
  134OSM    C5F14554   2.013   6.943   7.111  0.0282  0.4339  0.1312
  134OSM    H5F14555   2.065   6.846   7.128 -0.1651  0.4301  0.7207
  134OSM    H5G14556   1.904   6.938   7.133 -0.5317 -0.4659 -2.4742
  134OSM    C6F14557   2.078   7.065   7.190 -0.1329 -0.4740 -0.1701
  134OSM    H6F14558   2.002   7.141   7.164 -0.1831 -0.8689 -1.2206
  134OSM    H6G14559   2.179   7.089   7.153 -0.2294  1.8670  0.9082
  134OSM    C7F14560   2.078   7.054   7.342  0.2156 -0.2140  0.1924
  134OSM    H7F14561   2.135   7.137   7.390  1.5960 -1.4278  0.7259
  134OSM    H7G14562   2.136   6.967   7.376 -0.2171  0.3752  2.6476
  134OSM    C8F14563   1.941   7.035   7.409 -0.9749  0.4513 -0.1185
  134OSM    H8F14564   1.958   6.995   7.511 -2.2479  0.2922  0.0367
  134OSM    H8G14565   1.881   6.953   7.364 -0.8491  0.8762 -1.0926
  134OSM    C9F14566   1.860   7.162   7.411  0.0363 -0.2911 -0.2195
  134OSM    H9F14567   1.783   7.173   7.333 -0.3161  1.1151  0.2893
  134OSM   C10F14568   1.869   7.265   7.497 -0.6076  0.0230  0.5306
  134OSM   H10F14569   1.804   7.353   7.485  0.7859  0.8909 -1.3121
  134OSM   C11F14570   1.964   7.280   7.613  0.2528  0.2226 -1.2394
  134OSM   H11F14571   2.039   7.351   7.574  1.3759 -0.9351 -1.2667
  134OSM   H11G14572   2.014   7.185   7.640  1.7638  1.3567  0.1059
  134OSM   C12F14573   1.901   7.330   7.749  0.0496  0.2289 -0.2895
  134OSM   H12F14574   1.812   7.268   7.771  0.3486  0.0007  0.2804
  134OSM   H12G14575   1.856   7.427   7.717  0.0438  0.2480 -0.2224
  134OSM   C13F14576   2.001   7.344   7.862 -0.9798  0.6424  0.2009
  134OSM   H13F14577   1.959   7.403   7.946  2.5123  0.8816  1.9856
  134OSM   H13G14578   2.086   7.408   7.830 -0.0276 -0.2559  0.8639
  134OSM   C14F14579   2.073   7.214   7.912 -0.3680 -0.7993  0.2809
  134OSM   H14F14580   2.176   7.207   7.871 -0.5203  2.0253 -0.8587
  134OSM   H14G14581   2.011   7.125   7.889  0.1445 -1.0235 -0.2541
  134OSM   C15F14582   2.103   7.229   8.062  0.3600  0.4575  0.2296
  134OSM   H15F14583   2.010   7.268   8.109 -1.5199 -0.7395 -2.2457
  134OSM   H15G14584   2.190   7.298   8.073  2.1145 -1.7471  0.9255
  134OSM   C16F14585   2.151   7.106   8.137 -0.1230 -0.0813 -0.1420
  134OSM   H16F14586   2.219   7.048   8.073 -1.0361 -0.4600 -0.7900
  134OSM   H16G14587   2.071   7.029   8.145  0.0395 -0.6695 -3.2098
  134OSM   C17F14588   2.222   7.144   8.260 -0.2153  0.1012 -0.2519
  134OSM   H17F14589   2.298   7.224   8.251  2.0139 -1.4662  2.9949
  134OSM   H17G14590   2.254   7.048   8.305  1.9508  0.0295 -1.8059
  134OSM   C18F14591   2.125   7.204   8.367 -0.0674 -0.6842 -0.2960
  134OSM   H18F14592   2.180   7.193   8.463 -0.7057 -0.4818  0.1001
  134OSM   H18G14593   2.035   7.140   8.378  0.0875 -0.4859  3.0451
  134OSM   H18H14594   2.099   7.312   8.355  0.5660 -0.3551  1.0718
  135OSM      N14595   0.967   6.188   6.232  0.3077 -0.2030 -0.0061
  135OSM    C1514596   1.115   6.220   6.208  0.6811  0.0594 -0.4693
  135OSM   H15A14597   1.151   6.269   6.297  2.1191 -0.6428 -0.6295
  135OSM   H15B14598   1.120   6.276   6.116 -0.4912 -1.6350 -1.6337
  135OSM   H15C14599   1.163   6.124   6.193  2.4211  0.5222  1.6364
  135OSM    C1414600   0.922   6.113   6.105 -0.0136  0.3636  0.5772
  135OSM   H14A14601   0.928   6.180   6.020  2.3576  1.2260  1.3249
  135OSM   H14B14602   0.821   6.078   6.117 -0.4933  0.6489 -2.1232
  135OSM   H14C14603   0.981   6.023   6.095  0.1426  0.2389  2.2673
  135OSM    C1314604   0.954   6.098   6.348 -0.7645  0.1950  0.4672
  135OSM   H13A14605   1.017   6.010   6.352 -2.4995 -1.0780  3.7183
  135OSM   H13B14606   0.857   6.051   6.344  0.1905 -1.8411 -1.9988
  135OSM   H13C14607   0.967   6.155   6.438 -3.8377  2.9833 -0.6851
  135OSM    C1214608   0.884   6.311   6.262  0.1992  0.8827  0.2633
  135OSM   H12A14609   0.784   6.271   6.264  0.6658 -0.3192  0.9334
  135OSM   H12B14610   0.890   6.380   6.179 -1.2224  2.5159  1.4345
  135OSM    C1114611   0.915   6.393   6.389 -0.1324  0.2291 -0.8574
  135OSM   H11A14612   0.902   6.322   6.474 -0.0504  1.1266 -0.0774
  135OSM   H11B14613   0.832   6.467   6.391 -0.8745 -0.5730 -1.3170
  135OSM      P14614   1.089   6.565   6.319 -0.0938  0.2808 -0.1847
  135OSM    O1314615   1.218   6.528   6.256 -0.0405  0.5079  0.9007
  135OSM    O1414616   0.977   6.616   6.236 -0.1565  0.5289 -0.4375
  135OSM    O1114617   1.112   6.673   6.428 -0.1557 -0.1449  0.3138
  135OSM    O1214618   1.045   6.447   6.401 -0.5058 -0.1852  0.1068
  135OSM    C1S14619   1.027   6.705   6.541 -0.1755 -0.5664  0.1480
  135OSM    H1S14620   0.971   6.617   6.579 -1.7480  0.7459  1.0380
  135OSM    H1T14621   0.967   6.793   6.508 -0.6042 -1.5126 -1.7031
  135OSM     NF14622   1.018   6.748   6.783 -0.2341 -0.2927 -0.1574
  135OSM    HNF14623   0.980   6.836   6.812  1.1831  0.7333 -1.2843
  135OSM    C2S14624   1.109   6.745   6.673  0.7840 -0.3126  0.4638
  135OSM    H2S14625   1.184   6.666   6.693  0.6752 -0.3990  0.5333
  135OSM    C3S14626   1.175   6.877   6.647  0.1261 -0.0865 -0.1522
  135OSM    H3S14627   1.107   6.964   6.651  1.7139  1.1638  1.3366
  135OSM     O314628   1.237   6.900   6.520  0.1090  0.2377 -0.0101
  135OSM    HO314629   1.203   6.833   6.461  2.5634 -0.2997 -0.9303
  135OSM    C4S14630   1.266   6.906   6.770 -0.3939 -0.6237 -0.2660
  135OSM    H4S14631   1.219   6.942   6.863  0.3888 -0.7375  0.1793
  135OSM    C5S14632   1.395   6.883   6.768 -0.5376 -0.2662 -0.4592
  135OSM    H5S14633   1.439   6.834   6.680 -1.5409 -3.1504  0.5269
  135OSM    C6S14634   1.494   6.910   6.879 -0.2207  0.3216 -0.6549
  135OSM    H6S14635   1.572   6.982   6.847 -0.2240 -0.0100 -1.4177
  135OSM    H6T14636   1.545   6.814   6.902  0.0638  0.9321  1.4678
  135OSM    C7S14637   1.432   6.966   7.007 -0.5633  0.1141 -0.0205
  135OSM    H7S14638   1.349   6.897   7.032  1.1205 -2.3881 -0.9883
  135OSM    H7T14639   1.379   7.063   6.994 -0.5536  0.4058  1.7885
  135OSM    C8S14640   1.532   6.989   7.124  0.2298 -0.1290 -0.7386
  135OSM    H8S14641   1.622   7.054   7.112  1.1263 -1.3657 -0.9091
  135OSM    H8T14642   1.584   6.894   7.148 -1.0552 -0.8823 -0.8609
  135OSM    C9S14643   1.451   7.028   7.253  0.8625 -0.6514 -0.6631
  135OSM    H9S14644   1.386   6.939   7.272 -0.4112  0.8305  2.7831
  135OSM    H9T14645   1.388   7.119   7.241  1.4291 -0.2959 -0.9453
  135OSM   C10S14646   1.536   7.035   7.374  0.7646 -0.7039  0.4282
  135OSM   H10S14647   1.612   7.114   7.356 -0.0203 -0.6416 -3.5513
  135OSM   H10T14648   1.592   6.941   7.396  2.1780  0.2883  1.2100
  135OSM   C11S14649   1.459   7.068   7.502 -0.3451  0.5732  0.7586
  135OSM   H11S14650   1.381   6.990   7.506  0.0469  0.1250  0.0308
  135OSM   H11T14651   1.392   7.157   7.497 -0.0429  0.7564 -2.7034
  135OSM   C12S14652   1.553   7.089   7.614  0.3766  0.5042  0.9201
  135OSM   H12S14653   1.615   7.180   7.599  0.1584  0.1375 -3.1158
  135OSM   H12T14654   1.620   7.000   7.619 -0.2891  0.0501  2.1182
  135OSM   C13S14655   1.481   7.090   7.753  0.1259 -0.0279  0.5299
  135OSM   H13S14656   1.464   6.982   7.771  2.4112 -0.2793  1.5773
  135OSM   H13T14657   1.383   7.141   7.747  0.4762  0.5206 -2.6719
  135OSM   C14S14658   1.565   7.155   7.861  0.3583 -0.3687 -0.1222
  135OSM   H14S14659   1.599   7.258   7.840 -0.0161 -0.2296 -0.0571
  135OSM   H14T14660   1.663   7.103   7.865  0.9308  0.7153  0.2398
  135OSM   C15S14661   1.503   7.133   8.003  0.3012  0.2825 -0.4315
  135OSM   H15S14662   1.574   7.171   8.080  1.1280  0.9140 -1.4707
  135OSM   H15T14663   1.500   7.022   8.012 -0.8781  0.2317 -1.2521
  135OSM   C16S14664   1.368   7.207   8.040  0.3689 -0.1569  0.9223
  135OSM   H16S14665   1.287   7.170   7.974 -0.7876  0.8506  1.7404
  135OSM   H16T14666   1.382   7.315   8.021  0.7561 -0.5354 -1.1453
  135OSM   C17S14667   1.338   7.179   8.190 -0.2991  1.0964  0.0598
  135OSM   H17S14668   1.267   7.253   8.235  1.3054  2.0395  1.1494
  135OSM   H17T14669   1.430   7.183   8.253 -0.5346  0.6023  0.4399
  135OSM   C18S14670   1.275   7.042   8.206 -0.4956 -0.0921 -0.5947
  135OSM   H18S14671   1.172   7.042   8.163  0.0802  1.4210 -2.0885
  135OSM   H18T14672   1.276   7.034   8.317  2.7951 -0.7882 -0.5779
  135OSM   H18U14673   1.327   6.957   8.157 -0.4329 -0.1831 -0.3727
  135OSM    C1F14674   0.960   6.641   6.835 -0.5693  0.0119 -0.7752
  135OSM     OF14675   0.978   6.526   6.797 -0.4055  0.5558  0.8679
  135OSM    C2F14676   0.862   6.664   6.949 -0.1024  0.6961 -0.1358
  135OSM    H2F14677   0.764   6.628   6.910 -0.2170  0.7144  0.1331
  135OSM    H2G14678   0.871   6.773   6.966 -1.3157  0.7458  0.2483
  135OSM    C3F14679   0.897   6.591   7.078 -0.0912 -0.4338  0.4376
  135OSM    H3F14680   0.979   6.641   7.134  0.3336 -1.3463  0.6459
  135OSM    H3G14681   0.942   6.494   7.048 -0.1520 -0.7018  1.2027
  135OSM    C4F14682   0.771   6.554   7.160  0.1508 -0.8600  0.1379
  135OSM    H4F14683   0.742   6.454   7.122 -1.5173 -0.3779  0.0655
  135OSM    H4G14684   0.698   6.638   7.160  2.9031  1.7312 -0.8018
  135OSM    C5F14685   0.797   6.527   7.314  0.2371  0.0418  0.2174
  135OSM    H5F14686   0.855   6.434   7.325 -0.8352 -0.6682 -0.0115
  135OSM    H5G14687   0.693   6.510   7.351 -0.5533 -0.3152 -2.0296
  135OSM    C6F14688   0.863   6.638   7.392  0.4342 -0.5742 -0.3747
  135OSM    H6F14689   0.811   6.731   7.360 -0.6470 -1.0795 -0.1322
  135OSM    H6G14690   0.968   6.655   7.361  0.4058  2.9350  0.8912
  135OSM    C7F14691   0.864   6.626   7.546  0.1977 -0.0178 -0.1098
  135OSM    H7F14692   0.909   6.529   7.576  0.7824  0.3651  0.2747
  135OSM    H7G14693   0.757   6.608   7.569  0.0696  0.0659 -0.6389
  135OSM    C8F14694   0.931   6.749   7.620  0.6417 -0.3607 -0.3744
  135OSM    H8F14695   1.038   6.758   7.590  0.9077 -2.0686 -0.0677
  135OSM    H8G14696   0.932   6.718   7.727  0.8251  1.1714  0.0914
  135OSM    C9F14697   0.850   6.877   7.607 -0.3986  1.2221 -0.6475
  135OSM    H9F14698   0.850   6.932   7.512 -1.3313  3.2115  0.4278
  135OSM   C10F14699   0.769   6.943   7.693  0.1208  0.2263 -0.5279
  135OSM   H10F14700   0.733   7.042   7.661 -4.2029 -0.2772  1.9851
  135OSM   C11F14701   0.739   6.905   7.835 -0.1066 -0.2055 -0.4257
  135OSM   H11F14702   0.735   6.794   7.841  2.6929 -0.3039  1.6864
  135OSM   H11G14703   0.642   6.947   7.868  0.0793  1.0347 -1.4133
  135OSM   C12F14704   0.834   6.946   7.947  0.0080 -0.5320  0.7841
  135OSM   H12F14705   0.847   7.056   7.958  3.3565 -0.0835 -4.2437
  135OSM   H12G14706   0.936   6.906   7.925 -0.0863 -0.8780  0.9705
  135OSM   C13F14707   0.799   6.898   8.090  0.7453 -0.6702  0.2595
  135OSM   H13F14708   0.781   6.790   8.107 -1.6906 -0.2934  0.3204
  135OSM   H13G14709   0.699   6.945   8.106  0.6327  0.3008 -2.7552
  135OSM   C14F14710   0.906   6.942   8.188  0.3926 -1.0525 -0.5687
  135OSM   H14F14711   0.994   6.967   8.125  0.6383  0.6468  0.3791
  135OSM   H14G14712   0.924   6.859   8.259 -0.3473 -1.1345 -0.4674
  135OSM   C15F14713   0.870   7.056   8.283 -0.5777 -0.7307 -0.1469
  135OSM   H15F14714   0.833   7.145   8.229  0.4669 -0.7414 -0.9295
  135OSM   H15G14715   0.963   7.087   8.335 -0.9978  3.1534 -1.4250
  135OSM   C16F14716   0.776   7.016   8.399  0.3772 -0.5465  0.2818
  135OSM   H16F14717   0.827   6.942   8.463 -1.3662 -2.4403 -0.4062
  135OSM   H16G14718   0.685   6.965   8.360  0.1536 -0.0946  0.1982
  135OSM   C17F14719   0.734   7.142   8.490  0.0372 -0.2283  0.0499
  135OSM   H17F14720   0.652   7.201   8.446 -0.1429 -1.1388 -0.8906
  135OSM   H17G14721   0.829   7.192   8.520  0.4683 -1.5086  0.9370
  135OSM   C18F14722   0.666   7.088   8.613 -0.3107 -0.3644  0.1447
  135OSM   H18F14723   0.604   6.998   8.589  1.3940 -1.4576 -0.3648
  135OSM   H18G14724   0.602   7.162   8.664 -1.1183 -0.2950 -0.9295
  135OSM   H18H14725   0.742   7.054   8.687 -1.3127 -0.8951  0.9513
  136OSM      N14726   6.576   0.087   6.071  0.4699 -0.1037 -0.2732
  136OSM    C1514727   6.662   0.007   5.987  0.0421 -0.3719  0.1568
  136OSM   H15A14728   6.739   0.057   5.931  1.1053 -1.7638  0.3329
  136OSM   H15B14729   6.608  -0.047   5.911 -2.0163  1.2754  0.3522
  136OSM   H15C14730   6.716  -0.061   6.050  1.0022 -0.1578 -0.4088
  136OSM    C1414731   6.492   0.182   5.988  0.2714 -0.0344  0.3998
  136OSM   H14A14732   6.560   0.247   5.934  2.5535 -4.4233 -2.6541
  136OSM   H14B14733   6.420   0.236   6.048 -1.1478 -2.1152  0.6946
  136OSM   H14C14734   6.453   0.125   5.904  0.3987 -0.9800  0.9768
  136OSM    C1314735   6.485  -0.002   6.152 -0.2763 -0.3764 -0.2981
  136OSM   H13A14736   6.547  -0.045   6.230  3.4137  2.6873 -1.2330
  136OSM   H13B14737   6.444  -0.084   6.096 -0.1389 -0.3288 -0.4683
  136OSM   H13C14738   6.404   0.057   6.192  1.3201  1.6754  0.1308
  136OSM    C1214739   6.652   0.170   6.179  0.4966  0.0492  0.2397
  136OSM   H12A14740   6.720   0.222   6.113  0.8353  0.8557  1.1960
  136OSM   H12B14741   6.703   0.099   6.242 -1.1467 -0.5886  0.9079
  136OSM    C1114742   6.569   0.267   6.274 -0.2998  0.4602 -0.1537
  136OSM   H11A14743   6.627   0.311   6.358 -0.2371  2.6273 -1.2721
  136OSM   H11B14744   6.486   0.213   6.323  0.0579  2.2126  2.5950
  136OSM      P14745   6.380   0.440   6.228  0.2708 -0.1496  0.2963
  136OSM    O1314746   6.372   0.574   6.169  0.0020  0.4067  0.2435
  136OSM    O1414747   6.279   0.344   6.180  0.4214  0.1083  0.2362
  136OSM    O1114748   6.377   0.451   6.383  0.2205 -0.5040 -0.0780
  136OSM    O1214749   6.523   0.370   6.196 -0.0698  0.0181 -0.5529
  136OSM    C1S14750   6.309   0.371   6.477  0.6893  0.1016 -0.2533
  136OSM    H1S14751   6.311   0.264   6.450  2.5039  0.0087  0.1306
  136OSM    H1T14752   6.202   0.403   6.474  0.1996 -0.5996  3.7549
  136OSM     NF14753   6.326   0.296   6.704  0.0898 -0.3759  0.1456
  136OSM    HNF14754   6.258   0.329   6.768  0.8385  0.0358  0.7427
  136OSM    C2S14755   6.369   0.399   6.615  0.6727 -0.4303 -0.2957
  136OSM    H2S14756   6.480   0.392   6.616  0.7662  0.6345 -1.0627
  136OSM    C3S14757   6.327   0.542   6.669  0.4230  0.1948  0.3394
  136OSM    H3S14758   6.217   0.555   6.663  0.4065  0.1188  0.4840
  136OSM     O314759   6.385   0.655   6.600  0.6611 -0.0263  0.2599
  136OSM    HO314760   6.426   0.616   6.522 -1.3244  0.0345 -0.8768
  136OSM    C4S14761   6.368   0.552   6.810 -0.1504 -0.0394 -0.1751
  136OSM    H4S14762   6.279   0.517   6.864 -1.2345  0.0572 -1.8455
  136OSM    C5S14763   6.477   0.614   6.863  1.0730 -0.1026 -0.9033
  136OSM    H5S14764   6.551   0.657   6.794  2.1062  0.5698  0.5581
  136OSM    C6S14765   6.520   0.626   7.010  0.1416 -0.0478  0.2040
  136OSM    H6S14766   6.547   0.732   7.028  0.7754 -0.2051  0.1811
  136OSM    H6T14767   6.608   0.562   7.026  0.3651  0.6123  1.7312
  136OSM    C7S14768   6.418   0.584   7.108 -0.3599  0.4097 -0.3904
  136OSM    H7S14769   6.407   0.475   7.093  2.6440 -0.4468  2.3950
  136OSM    H7T14770   6.319   0.633   7.098 -0.2961  0.3279 -1.5600
  136OSM    C8S14771   6.476   0.617   7.248  0.9131  0.8072  0.0974
  136OSM    H8S14772   6.501   0.725   7.249 -0.4578  1.1467 -0.6397
  136OSM    H8T14773   6.572   0.565   7.270  0.2529  0.0239  1.2069
  136OSM    C9S14774   6.381   0.577   7.372 -0.2651 -0.2942 -0.1054
  136OSM    H9S14775   6.386   0.467   7.387  0.2723  0.0625  2.9674
  136OSM    H9T14776   6.280   0.612   7.344  0.5326  0.9542 -1.5141
  136OSM   C10S14777   6.427   0.644   7.499 -0.2581 -0.7794  0.4768
  136OSM   H10S14778   6.424   0.752   7.472  0.0500 -0.4289  1.7986
  136OSM   H10T14779   6.521   0.613   7.549 -0.2024  0.6069  1.2847
  136OSM   C11S14780   6.320   0.625   7.618 -0.3365 -0.3866  0.0564
  136OSM   H11S14781   6.278   0.522   7.611  0.8025 -0.9219  0.8141
  136OSM   H11T14782   6.235   0.696   7.604 -0.4781 -0.8452 -1.6289
  136OSM   C12S14783   6.378   0.644   7.752 -0.2560 -0.0316  0.0833
  136OSM   H12S14784   6.418   0.745   7.774  0.5244 -0.8153  2.6316
  136OSM   H12T14785   6.467   0.577   7.744 -0.7037 -0.4332 -2.6466
  136OSM   C13S14786   6.293   0.605   7.875 -0.6782  0.2451  0.1856
  136OSM   H13S14787   6.283   0.495   7.879 -1.9257  0.3526  0.3465
  136OSM   H13T14788   6.193   0.650   7.854 -0.4507  0.2127 -1.0690
  136OSM   C14S14789   6.352   0.667   8.005  0.8693  0.1814 -0.5214
  136OSM   H14S14790   6.351   0.778   8.002  0.0491  0.1837 -0.4594
  136OSM   H14T14791   6.459   0.645   8.024  0.1762 -1.5991  1.7114
  136OSM   C15S14792   6.270   0.612   8.123  0.5923 -0.2783  0.1408
  136OSM   H15S14793   6.269   0.501   8.122 -1.4098 -0.3339  1.5205
  136OSM   H15T14794   6.165   0.644   8.109  0.9488  2.7980  3.0756
  136OSM   C16S14795   6.330   0.664   8.257  0.1147  0.0351  0.4762
  136OSM   H16S14796   6.313   0.773   8.267  1.5257  0.4070 -0.9033
  136OSM   H16T14797   6.441   0.659   8.258  0.3375  3.0695  0.4633
  136OSM   C17S14798   6.278   0.582   8.374  0.1850  0.1561 -0.2039
  136OSM   H17S14799   6.303   0.475   8.358  1.1167  0.4625 -0.8797
  136OSM   H17T14800   6.167   0.584   8.376  0.1730  0.7036 -0.8367
  136OSM   C18S14801   6.339   0.631   8.509 -0.6575 -0.5027  0.4843
  136OSM   H18S14802   6.322   0.740   8.522  1.0293 -0.1571 -0.0321
  136OSM   H18T14803   6.447   0.610   8.501 -0.8030 -0.8735 -0.8548
  136OSM   H18U14804   6.293   0.582   8.598 -0.9548 -1.7744 -0.3422
  136OSM    C1F14805   6.360   0.163   6.697  0.2597 -0.6131  0.5453
  136OSM     OF14806   6.452   0.132   6.621 -0.1447 -0.1015  0.7145
  136OSM    C2F14807   6.276   0.072   6.782 -0.0656  0.4670 -0.1927
  136OSM    H2F14808   6.200   0.022   6.717 -0.6786  2.0306 -0.7324
  136OSM    H2G14809   6.219   0.130   6.858  0.4521  0.4985  0.1713
  136OSM    C3F14810   6.367  -0.023   6.856 -0.1390 -0.8372  1.0178
  136OSM    H3F14811   6.413   0.024   6.945  2.1768  2.6446 -1.7536
  136OSM    H3G14812   6.447  -0.069   6.793 -0.1677 -0.2490  0.5459
  136OSM    C4F14813   6.289  -0.148   6.908  0.7540 -0.6490  0.7222
  136OSM    H4F14814   6.223  -0.199   6.834 -1.1325  0.6912  1.4086
  136OSM    H4G14815   6.210  -0.110   6.976  1.6055 -0.5341  1.6572
  136OSM    C5F14816   6.371  -0.252   6.975 -0.6195  0.5219  0.0519
  136OSM    H5F14817   6.455  -0.269   6.905  1.1969  2.2657  1.6584
  136OSM    H5G14818   6.317  -0.349   6.979  2.3465 -1.2899 -1.0209
  136OSM    C6F14819   6.430  -0.207   7.112 -0.4612 -0.6583 -0.1681
  136OSM    H6F14820   6.352  -0.178   7.185  0.8708  0.4496  0.8615
  136OSM    H6G14821   6.488  -0.114   7.092 -0.5725 -0.9427 -1.9520
  136OSM    C7F14822   6.531  -0.309   7.165 -0.2600 -0.2819 -0.9774
  136OSM    H7F14823   6.615  -0.320   7.092  1.2146 -1.9118  0.8609
  136OSM    H7G14824   6.478  -0.406   7.166  0.9773 -0.9819 -0.1320
  136OSM    C8F14825   6.572  -0.282   7.313 -1.1023  0.6829 -0.5579
  136OSM    H8F14826   6.641  -0.196   7.322 -0.4874  0.2315 -0.9010
  136OSM    H8G14827   6.638  -0.366   7.342 -0.5627  0.7641 -1.5077
  136OSM    C9F14828   6.459  -0.285   7.417  0.0357 -0.4819 -0.2664
  136OSM    H9F14829   6.372  -0.345   7.385  0.9382 -3.1818  1.9040
  136OSM   C10F14830   6.440  -0.211   7.530 -0.4812 -0.6061 -0.6229
  136OSM   H10F14831   6.356  -0.225   7.599  0.8083 -1.7025  0.7987
  136OSM   C11F14832   6.548  -0.113   7.573  0.4238 -0.1455 -0.7630
  136OSM   H11F14833   6.534  -0.014   7.525  0.9180  1.1773  1.6209
  136OSM   H11G14834   6.648  -0.144   7.537  0.4692  1.1018 -1.8068
  136OSM   C12F14835   6.548  -0.091   7.726  0.2812 -0.7199 -0.0735
  136OSM   H12F14836   6.452  -0.052   7.764  0.8195  0.6737 -0.0806
  136OSM   H12G14837   6.625  -0.016   7.756 -1.4889  0.5461  1.5051
  136OSM   C13F14838   6.573  -0.220   7.799  0.5561  0.0933  0.1348
  136OSM   H13F14839   6.669  -0.268   7.772 -0.2655 -1.8353  0.4454
  136OSM   H13G14840   6.505  -0.300   7.762  0.5552 -0.6244  1.6399
  136OSM   C14F14841   6.550  -0.230   7.954  0.3546 -0.7360  0.9702
  136OSM   H14F14842   6.512  -0.133   7.995  1.9589  0.0290  0.7157
  136OSM   H14G14843   6.649  -0.248   8.001  1.3780  0.8690 -0.4401
  136OSM   C15F14844   6.457  -0.340   7.992 -0.7980 -0.1639  0.1492
  136OSM   H15F14845   6.501  -0.433   7.951 -2.4901 -0.5226 -0.9775
  136OSM   H15G14846   6.358  -0.332   7.941 -2.1230  0.7643  2.6789
  136OSM   C16F14847   6.430  -0.359   8.144 -0.9046  0.0001  0.5385
  136OSM   H16F14848   6.338  -0.313   8.185 -0.5844 -1.9830  3.8612
  136OSM   H16G14849   6.518  -0.310   8.191 -1.2070 -0.8754  2.0582
  136OSM   C17F14850   6.415  -0.503   8.198  0.0243 -0.3955 -0.3474
  136OSM   H17F14851   6.508  -0.562   8.190  0.8362  0.6095  1.0834
  136OSM   H17G14852   6.341  -0.560   8.138 -0.3032 -2.7538  2.1242
  136OSM   C18F14853   6.378  -0.522   8.345  0.1998 -0.1094 -0.1227
  136OSM   H18F14854   6.468  -0.517   8.410 -1.5476  0.0069  2.4176
  136OSM   H18G14855   6.328  -0.619   8.362 -0.1483  0.1010  0.0571
  136OSM   H18H14856   6.296  -0.449   8.362 -1.0101 -1.1442 -1.3407
  137OSM      N14857   2.290   5.836   6.108 -0.2985 -0.3911 -0.2626
  137OSM    C1514858   2.174   5.923   6.102 -1.0199 -0.0586  0.8344
  137OSM   H15A14859   2.195   6.027   6.122 -1.8846 -0.1524  2.4192
  137OSM   H15B14860   2.108   5.905   6.186  0.5210 -1.9202  1.7134
  137OSM   H15C14861   2.116   5.906   6.013 -0.2227 -0.6181  0.4131
  137OSM    C1414862   2.254   5.689   6.113  0.3086  0.3653 -0.1007
  137OSM   H14A14863   2.336   5.620   6.113  0.3924  0.3385 -2.9773
  137OSM   H14B14864   2.193   5.662   6.028 -0.1081 -1.0078  0.6184
  137OSM   H14C14865   2.190   5.679   6.199 -0.8488  4.3727 -0.2663
  137OSM    C1314866   2.365   5.852   5.974 -0.2821 -0.6304 -0.1427
  137OSM   H13A14867   2.303   5.830   5.888  2.2962 -0.3691 -2.2039
  137OSM   H13B14868   2.456   5.795   5.972  0.3839  0.2700  2.2048
  137OSM   H13C14869   2.397   5.954   5.956 -0.1887 -0.8457 -1.2928
  137OSM    C1214870   2.388   5.883   6.210  0.2967  0.0064 -1.0220
  137OSM   H12A14871   2.403   5.990   6.199 -1.8494  0.4456 -0.1898
  137OSM   H12B14872   2.479   5.827   6.190 -0.4640 -0.6016 -3.0864
  137OSM    C1114873   2.350   5.859   6.366  0.4954 -0.2469  0.5099
  137OSM   H11A14874   2.262   5.922   6.388 -0.3090 -1.0694 -0.2626
  137OSM   H11B14875   2.433   5.885   6.435  1.3419 -1.9944  0.2410
  137OSM      P14876   2.409   5.610   6.420 -0.0632 -0.1511 -0.1307
  137OSM    O1314877   2.381   5.488   6.351  0.0110  0.1710  0.2572
  137OSM    O1414878   2.549   5.661   6.404  0.1967  0.2872  0.9199
  137OSM    O1114879   2.388   5.579   6.575  0.5667  0.7492  0.3533
  137OSM    O1214880   2.301   5.726   6.393 -0.3680 -0.5316  0.0053
  137OSM    C1S14881   2.274   5.636   6.643 -0.0069  0.4833  0.1440
  137OSM    H1S14882   2.186   5.569   6.631 -0.5868  1.2924 -0.2348
  137OSM    H1T14883   2.242   5.738   6.611 -1.0265  0.2520  0.3846
  137OSM     NF14884   2.170   5.678   6.863 -0.6008  0.0758  0.6444
  137OSM    HNF14885   2.163   5.776   6.880 -0.0765  0.3511 -0.5777
  137OSM    C2S14886   2.295   5.644   6.799 -0.1689 -0.2001 -0.0914
  137OSM    H2S14887   2.322   5.543   6.837 -1.7835 -0.9816 -0.9138
  137OSM    C3S14888   2.402   5.752   6.839  0.0811 -0.6286  0.9937
  137OSM    H3S14889   2.365   5.848   6.798 -1.5229 -0.7037  2.1686
  137OSM     O314890   2.524   5.722   6.768  0.3077  0.0308 -0.3283
  137OSM    HO314891   2.493   5.655   6.706 -0.3507 -0.6404  0.6995
  137OSM    C4S14892   2.431   5.766   6.985  0.2471 -0.1471  0.6974
  137OSM    H4S14893   2.426   5.666   7.031  1.6560 -0.0584  1.0929
  137OSM    C5S14894   2.461   5.873   7.051 -0.2477 -0.5677 -0.4588
  137OSM    H5S14895   2.488   5.965   6.998 -0.8197  1.8642  3.1205
  137OSM    C6S14896   2.483   5.879   7.204  0.5649 -0.4642  0.2951
  137OSM    H6S14897   2.439   5.973   7.243  2.4419 -0.3427  2.2942
  137OSM    H6T14898   2.593   5.881   7.221  0.8006  0.2075 -1.1340
  137OSM    C7S14899   2.421   5.766   7.294 -0.2556  0.1428 -0.7650
  137OSM    H7S14900   2.473   5.672   7.265 -0.9012 -0.8862  1.2446
  137OSM    H7T14901   2.314   5.763   7.264  0.2695  1.0685 -2.9555
  137OSM    C8S14902   2.448   5.780   7.442  0.1093  0.4254 -0.2555
  137OSM    H8S14903   2.440   5.886   7.472  0.7757  0.6225 -0.7464
  137OSM    H8T14904   2.551   5.747   7.465  1.2055  2.1125 -2.3907
  137OSM    C9S14905   2.332   5.710   7.516  0.4224  0.8899 -0.3324
  137OSM    H9S14906   2.321   5.605   7.480  0.3054  0.0013  2.1107
  137OSM    H9T14907   2.232   5.757   7.501  0.0625  0.0790 -0.5707
  137OSM   C10S14908   2.353   5.706   7.676  0.2241 -0.1289  0.2417
  137OSM   H10S14909   2.334   5.812   7.707  2.5931  1.5313 -3.2779
  137OSM   H10T14910   2.461   5.680   7.684  0.1916 -0.0073  1.2955
  137OSM   C11S14911   2.272   5.608   7.750 -0.1766  0.0300 -0.6758
  137OSM   H11S14912   2.308   5.504   7.732  1.9212  0.5286  0.4077
  137OSM   H11T14913   2.164   5.608   7.724 -0.0426 -0.8839 -1.3107
  137OSM   C12S14914   2.289   5.628   7.908 -0.0624  0.1507 -0.2857
  137OSM   H12S14915   2.253   5.731   7.930  0.9212  0.3149  0.6204
  137OSM   H12T14916   2.398   5.628   7.928 -0.2143 -0.9817  0.6229
  137OSM   C13S14917   2.228   5.527   7.998  0.6159  0.5203  0.6231
  137OSM   H13S14918   2.287   5.434   8.011  1.3351  1.2819  4.0193
  137OSM   H13T14919   2.126   5.492   7.971  1.5615 -2.1311  0.1889
  137OSM   C14S14920   2.206   5.578   8.142  0.6010 -0.1636  0.0285
  137OSM   H14S14921   2.134   5.510   8.191  0.5011 -0.3173 -0.3307
  137OSM   H14T14922   2.173   5.684   8.144 -1.0996 -0.6374 -1.3476
  137OSM   C15S14923   2.338   5.575   8.226  0.4198  0.6032  0.3825
  137OSM   H15S14924   2.415   5.647   8.190  1.9201 -0.6095  1.0854
  137OSM   H15T14925   2.385   5.476   8.209 -0.6580  0.0924  0.3168
  137OSM   C16S14926   2.325   5.613   8.372 -0.8047 -0.5633 -1.1246
  137OSM   H16S14927   2.279   5.531   8.431  0.1428  0.6768  1.4931
  137OSM   H16T14928   2.266   5.705   8.393  1.2183 -0.1177  3.7164
  137OSM   C17S14929   2.469   5.654   8.426  0.4540 -0.3628 -0.0059
  137OSM   H17S14930   2.516   5.725   8.355  1.5447 -1.3998 -0.3603
  137OSM   H17T14931   2.524   5.561   8.399 -0.0463 -0.4848 -0.6361
  137OSM   C18S14932   2.487   5.709   8.566  0.1380  0.0176  0.1718
  137OSM   H18S14933   2.461   5.634   8.644 -0.7454 -0.7944 -0.8807
  137OSM   H18T14934   2.425   5.800   8.581  0.0660 -0.2833  1.9852
  137OSM   H18U14935   2.594   5.737   8.581  0.3490  0.8112 -2.3427
  137OSM    C1F14936   2.066   5.593   6.873 -1.1272  0.4990 -0.5209
  137OSM     OF14937   2.090   5.472   6.865 -0.6493  0.2544 -0.7098
  137OSM    C2F14938   1.934   5.651   6.907  0.3093  0.5602  0.0305
  137OSM    H2F14939   1.888   5.710   6.826  1.1744  0.5685 -0.4717
  137OSM    H2G14940   1.955   5.726   6.986  1.9407  0.3835 -0.2012
  137OSM    C3F14941   1.847   5.537   6.975  0.0524 -0.3534 -0.0919
  137OSM    H3F14942   1.894   5.501   7.069  1.3691  1.7152  0.0859
  137OSM    H3G14943   1.822   5.464   6.895  2.9373 -0.4700 -0.9753
  137OSM    C4F14944   1.708   5.596   7.016  0.5013 -0.5512 -0.1893
  137OSM    H4F14945   1.663   5.645   6.928 -1.4116  1.5931  1.8678
  137OSM    H4G14946   1.734   5.673   7.092  0.1786  1.0577 -1.6609
  137OSM    C5F14947   1.622   5.483   7.083  0.4555  0.1905 -0.3372
  137OSM    H5F14948   1.678   5.390   7.105 -2.2248 -1.7829 -1.4262
  137OSM    H5G14949   1.535   5.452   7.023 -0.5743  1.2900  0.5277
  137OSM    C6F14950   1.573   5.533   7.226 -0.3796  0.4457  0.0067
  137OSM    H6F14951   1.479   5.481   7.254  0.4049  0.0335  1.9816
  137OSM    H6G14952   1.553   5.642   7.214 -0.3908  0.6250  1.4779
  137OSM    C7F14953   1.663   5.496   7.340  0.4093 -0.2404 -0.7257
  137OSM    H7F14954   1.760   5.541   7.309  1.0445 -0.2471  1.0931
  137OSM    H7G14955   1.678   5.387   7.356  2.7334  0.0114 -0.8396
  137OSM    C8F14956   1.610   5.551   7.467  0.0398  0.1913 -0.1482
  137OSM    H8F14957   1.502   5.524   7.461 -0.5354  1.8321  1.8659
  137OSM    H8G14958   1.611   5.662   7.465 -2.3380  0.3681  2.7926
  137OSM    C9F14959   1.672   5.499   7.587  0.5107  0.7923 -0.2805
  137OSM    H9F14960   1.662   5.390   7.602  1.3943  0.6661 -0.5166
  137OSM   C10F14961   1.748   5.563   7.678 -0.9926  0.7898  0.2687
  137OSM   H10F14962   1.798   5.514   7.762 -1.2780  0.2749  0.1468
  137OSM   C11F14963   1.786   5.709   7.676  0.4201 -0.3997  0.0215
  137OSM   H11F14964   1.759   5.754   7.578  0.2324 -1.8742 -0.6335
  137OSM   H11G14965   1.896   5.719   7.663  0.1154  1.3106 -1.7994
  137OSM   C12F14966   1.765   5.787   7.810 -0.1190 -1.5588  0.5243
  137OSM   H12F14967   1.661   5.826   7.812  0.0728 -0.9177 -0.7209
  137OSM   H12G14968   1.823   5.878   7.784 -2.9274 -0.5226 -2.8583
  137OSM   C13F14969   1.813   5.729   7.934 -0.0995  0.2906  0.1583
  137OSM   H13F14970   1.917   5.691   7.931  1.0535  3.0513 -4.0412
  137OSM   H13G14971   1.745   5.641   7.934 -0.2943  0.3971 -1.6600
  137OSM   C14F14972   1.779   5.809   8.064 -0.4175  0.6827 -0.3564
  137OSM   H14F14973   1.673   5.840   8.069 -1.0212 -1.3801  1.2616
  137OSM   H14G14974   1.834   5.905   8.056 -0.2849  0.7816  1.2786
  137OSM   C15F14975   1.819   5.739   8.199  0.8430  0.0072  0.5086
  137OSM   H15F14976   1.928   5.718   8.191  1.6107  3.8972 -1.7149
  137OSM   H15G14977   1.766   5.641   8.196 -0.9341  0.9608 -1.0623
  137OSM   C16F14978   1.787   5.816   8.333 -0.8702 -0.5243 -0.4502
  137OSM   H16F14979   1.792   5.743   8.417 -1.3786 -0.7609 -0.6240
  137OSM   H16G14980   1.685   5.858   8.332  0.8994  4.5681  0.2205
  137OSM   C17F14981   1.879   5.937   8.366 -0.4179  0.7787  0.9262
  137OSM   H17F14982   1.839   6.026   8.311 -2.3917 -0.4130  0.3293
  137OSM   H17G14983   1.982   5.927   8.325 -0.8312  0.0732  0.0405
  137OSM   C18F14984   1.902   5.960   8.518  0.4832 -0.5924  1.0476
  137OSM   H18F14985   1.813   6.003   8.567  0.5026 -0.2903  0.8276
  137OSM   H18G14986   1.984   6.035   8.513 -0.3340  0.5017 -5.9446
  137OSM   H18H14987   1.954   5.869   8.555 -0.7361 -1.1898  1.3102
  138OSM      N14988   3.445   1.843   5.762  0.0070 -0.2450 -0.3994
  138OSM    C1514989   3.361   1.766   5.667  0.8507  0.6236  0.3978
  138OSM   H15A14990   3.255   1.786   5.669  1.0523  1.9541 -0.4939
  138OSM   H15B14991   3.371   1.660   5.683  0.7875  0.6239  0.4353
  138OSM   H15C14992   3.397   1.781   5.566  0.6350 -2.0767 -0.1460
  138OSM    C1414993   3.581   1.774   5.764  0.2748  0.6613 -0.1477
  138OSM   H14A14994   3.583   1.679   5.816 -3.1013  0.8077  0.5246
  138OSM   H14B14995   3.651   1.826   5.827  0.4889 -0.6820  0.7718
  138OSM   H14C14996   3.622   1.764   5.665 -2.6382 -0.2362 -1.3718
  138OSM    C1314997   3.465   1.981   5.713  0.7028 -0.3827 -0.3010
  138OSM   H13A14998   3.371   2.024   5.682  0.1272 -1.1566  0.3210
  138OSM   H13B14999   3.534   1.975   5.630  0.0638 -0.6016 -0.8235
  138OSM   H13C15000   3.499   2.043   5.794 -3.1042  0.1809  1.0684
  138OSM    C1215001   3.383   1.847   5.904  0.7231 -0.0923  0.2193
  138OSM   H12A15002   3.377   1.743   5.933 -1.9751  0.2058  1.0125
  138OSM   H12B15003   3.281   1.883   5.901  0.9771  0.6335 -3.4678
  138OSM    C1115004   3.463   1.931   6.019  0.3952 -0.3622  0.6937
  138OSM   H11A15005   3.564   1.886   6.024 -0.3053 -2.0501  0.5195
  138OSM   H11B15006   3.416   1.917   6.119 -0.6961 -0.0732  0.2311
  138OSM      P15007   3.561   2.168   6.026  0.2145 -0.0694 -0.3415
  138OSM    O1315008   3.681   2.126   5.952 -0.7440  0.6361 -0.2848
  138OSM    O1415009   3.505   2.301   5.995  0.0021 -0.2562 -0.1592
  138OSM    O1115010   3.585   2.160   6.185 -0.1668  0.3543  0.6825
  138OSM    O1215011   3.444   2.073   5.994 -0.0590  0.7067  0.1347
  138OSM    C1S15012   3.682   2.076   6.238 -0.5364  0.2900  0.3646
  138OSM    H1S15013   3.779   2.112   6.197 -1.5879  2.2761 -0.5487
  138OSM    H1T15014   3.661   1.973   6.202  1.2384  0.5496 -1.6337
  138OSM     NF15015   3.797   2.021   6.444  0.0072 -0.5628  0.2405
  138OSM    HNF15016   3.788   1.936   6.495  1.8869 -0.3481  1.0226
  138OSM    C2S15017   3.683   2.086   6.391  0.3840 -0.7565 -0.1746
  138OSM    H2S15018   3.679   2.196   6.409 -1.0979 -0.3477 -2.4619
  138OSM    C3S15019   3.548   2.035   6.461  0.6715 -0.0539  0.6486
  138OSM    H3S15020   3.548   1.924   6.449  1.6902 -0.0345  0.3710
  138OSM     O315021   3.427   2.074   6.394 -0.2406 -0.2769 -0.0052
  138OSM    HO315022   3.460   2.136   6.328 -1.7575  1.5131  0.8262
  138OSM    C4S15023   3.548   2.070   6.613  0.1965 -0.1854  0.2304
  138OSM    H4S15024   3.587   1.988   6.674  1.8693  0.8506  0.6235
  138OSM    C5S15025   3.488   2.172   6.671  0.1783  0.0253 -0.5304
  138OSM    H5S15026   3.444   2.254   6.612  0.2418  0.7192  0.3597
  138OSM    C6S15027   3.495   2.191   6.824  0.1107  0.4728 -0.4313
  138OSM    H6S15028   3.537   2.098   6.867  0.6671  0.1979 -1.5439
  138OSM    H6T15029   3.392   2.214   6.861 -0.0098  0.8525 -0.9792
  138OSM    C7S15030   3.577   2.311   6.866 -0.5142  0.0425  0.3459
  138OSM    H7S15031   3.560   2.390   6.791 -0.6682  0.2022  0.5468
  138OSM    H7T15032   3.686   2.288   6.870 -0.7887 -1.5671 -0.4758
  138OSM    C8S15033   3.536   2.355   7.008 -0.8942 -0.5528 -0.2987
  138OSM    H8S15034   3.528   2.258   7.062  1.4649 -0.3038  0.6230
  138OSM    H8T15035   3.431   2.391   7.003 -0.7128 -0.0495 -0.4642
  138OSM    C9S15036   3.626   2.448   7.079  0.7452  0.4802 -0.3433
  138OSM    H9S15037   3.655   2.533   7.014 -0.9514  0.9325 -0.5549
  138OSM    H9T15038   3.720   2.399   7.113 -0.3324  0.3379  2.7268
  138OSM   C10S15039   3.568   2.499   7.212 -0.2117  0.7307  0.3363
  138OSM   H10S15040   3.459   2.518   7.205  0.0324  2.0321 -0.2029
  138OSM   H10T15041   3.623   2.590   7.242  1.4038 -0.0471 -0.1540
  138OSM   C11S15042   3.585   2.396   7.322  0.6981  0.6647  0.5470
  138OSM   H11S15043   3.690   2.362   7.332  0.5005 -0.0974  0.0799
  138OSM   H11T15044   3.535   2.302   7.292  2.8969 -0.3173 -0.1920
  138OSM   C12S15045   3.528   2.439   7.450  0.9803  0.2029 -0.2858
  138OSM   H12S15046   3.419   2.420   7.447  1.5857 -4.0421 -0.7441
  138OSM   H12T15047   3.541   2.547   7.473  0.6643  0.1203  0.3011
  138OSM   C13S15048   3.583   2.379   7.579  0.1059  0.1639  0.0609
  138OSM   H13S15049   3.693   2.387   7.591 -0.0458 -1.0634  2.9761
  138OSM   H13T15050   3.556   2.271   7.578 -0.9241  0.3977  0.9675
  138OSM   C14S15051   3.520   2.445   7.705 -0.1107  0.1346  0.3121
  138OSM   H14S15052   3.410   2.438   7.692  0.0698  0.0852 -1.4632
  138OSM   H14T15053   3.544   2.554   7.699 -0.3201  0.1141 -2.6708
  138OSM   C15S15054   3.568   2.391   7.835  0.7373  0.6362 -0.5290
  138OSM   H15S15055   3.678   2.383   7.825  0.5818 -0.0402 -2.0958
  138OSM   H15T15056   3.530   2.288   7.849 -0.7329  1.2620  0.3091
  138OSM   C16S15057   3.528   2.476   7.959 -0.3067  0.7630  0.1749
  138OSM   H16S15058   3.417   2.480   7.956 -0.7487 -4.3167 -3.9420
  138OSM   H16T15059   3.585   2.572   7.951  0.4453  0.1574 -3.4575
  138OSM   C17S15060   3.568   2.414   8.095  0.6611  0.2424 -0.0680
  138OSM   H17S15061   3.679   2.414   8.094  0.6913 -0.6574 -2.4451
  138OSM   H17T15062   3.535   2.308   8.100  0.2889  0.1757 -2.7016
  138OSM   C18S15063   3.524   2.477   8.228  0.4176 -0.3865  0.1169
  138OSM   H18S15064   3.591   2.428   8.302 -0.1544 -0.7443  0.4086
  138OSM   H18T15065   3.421   2.444   8.256 -0.2586  0.4201 -1.3220
  138OSM   H18U15066   3.536   2.587   8.229 -1.5850 -0.1332  0.6830
  138OSM    C1F15067   3.921   2.067   6.430 -0.0803 -0.0053  0.6440
  138OSM     OF15068   3.943   2.168   6.364  0.1934 -0.3116  0.6460
  138OSM    C2F15069   4.033   1.979   6.482 -0.3332  0.6123  0.0752
  138OSM    H2F15070   4.053   1.899   6.407 -1.1358  1.7730 -1.4173
  138OSM    H2G15071   3.987   1.935   6.573 -4.0038  1.0031 -1.4302
  138OSM    C3F15072   4.172   2.060   6.491  0.2546 -0.3733  0.5537
  138OSM    H3F15073   4.176   2.145   6.562  1.9871 -1.2968  1.6268
  138OSM    H3G15074   4.189   2.107   6.392  0.2261 -0.5334  0.4722
  138OSM    C4F15075   4.290   1.967   6.522 -0.0794 -0.5801  0.0258
  138OSM    H4F15076   4.386   2.015   6.494  0.4315 -1.4369  0.2927
  138OSM    H4G15077   4.271   1.870   6.472 -0.2265 -0.4934 -0.0894
  138OSM    C5F15078   4.288   1.931   6.675 -0.4107 -0.4164 -0.5051
  138OSM    H5F15079   4.366   1.857   6.705  0.1171  0.9276  1.6414
  138OSM    H5G15080   4.186   1.900   6.706  0.0143 -0.3508  1.0589
  138OSM    C6F15081   4.325   2.048   6.769 -0.2444 -0.4435  0.5973
  138OSM    H6F15082   4.240   2.113   6.798  1.0695  0.7681  1.9248
  138OSM    H6G15083   4.408   2.104   6.721  0.2069  1.8170  3.6997
  138OSM    C7F15084   4.380   2.017   6.909 -0.2329 -0.4189  0.8409
  138OSM    H7F15085   4.436   2.106   6.943  0.9504 -1.3571  1.4504
  138OSM    H7G15086   4.462   1.941   6.912  0.7186  0.5300 -0.2186
  138OSM    C8F15087   4.282   1.966   7.016  0.0183  0.2164  0.3403
  138OSM    H8F15088   4.331   1.876   7.060  2.8421  1.9505  0.9855
  138OSM    H8G15089   4.198   1.919   6.960  0.3760 -0.2761  0.2025
  138OSM    C9F15090   4.249   2.088   7.099  0.1136 -0.0611 -0.2687
  138OSM    H9F15091   4.212   2.173   7.040 -1.5565  1.3454  2.6192
  138OSM   C10F15092   4.277   2.113   7.226 -0.8629  0.3686 -0.0805
  138OSM   H10F15093   4.259   2.218   7.253 -0.0303  0.5026 -0.0021
  138OSM   C11F15094   4.349   2.024   7.325 -0.1814 -0.1040 -0.3276
  138OSM   H11F15095   4.389   2.088   7.407  1.7311  1.0780 -2.0801
  138OSM   H11G15096   4.442   1.987   7.277  0.4719  2.5109 -1.2480
  138OSM   C12F15097   4.267   1.912   7.387 -0.3229  0.1929  0.3458
  138OSM   H12F15098   4.218   1.845   7.313 -0.2914 -1.3992  1.6981
  138OSM   H12G15099   4.182   1.951   7.446  0.0362  1.1408  0.2512
  138OSM   C13F15100   4.361   1.826   7.471 -1.1118 -0.2167  0.1379
  138OSM   H13F15101   4.448   1.886   7.506 -0.6130 -0.7708 -0.1377
  138OSM   H13G15102   4.388   1.741   7.406  1.8950  1.3690 -0.8575
  138OSM   C14F15103   4.305   1.776   7.605 -0.5773  0.0672  0.3783
  138OSM   H14F15104   4.377   1.696   7.629  0.1342 -0.2889 -2.5338
  138OSM   H14G15105   4.206   1.725   7.598 -0.7816  0.3125  1.3687
  138OSM   C15F15106   4.303   1.893   7.705  0.0301 -0.2093 -0.5584
  138OSM   H15F15107   4.233   1.975   7.681 -1.1769 -0.7012  1.1034
  138OSM   H15G15108   4.401   1.946   7.712 -0.7100  1.0836  0.3056
  138OSM   C16F15109   4.261   1.835   7.841  0.6691  0.2792 -0.4644
  138OSM   H16F15110   4.299   1.733   7.863 -3.6259 -0.9649  2.6597
  138OSM   H16G15111   4.151   1.818   7.845  0.3750  1.8547 -0.8394
  138OSM   C17F15112   4.297   1.929   7.954 -0.1567  0.1769 -0.3137
  138OSM   H17F15113   4.223   2.012   7.952  0.8153  1.1247  1.1418
  138OSM   H17G15114   4.396   1.972   7.931 -0.0895  0.7721  0.9666
  138OSM   C18F15115   4.288   1.867   8.099  0.1059 -0.2384 -0.0167
  138OSM   H18F15116   4.340   1.929   8.176  0.8299 -0.0246 -0.6643
  138OSM   H18G15117   4.344   1.771   8.105 -1.0844 -1.1697 -2.4357
  138OSM   H18H15118   4.187   1.858   8.144  0.5081  1.2660  1.2884
  139OSM      N15119   2.144   2.498   6.177  0.6537  0.8434 -0.5098
  139OSM    C1515120   2.279   2.535   6.231 -0.2690 -0.2246  0.3679
  139OSM   H15A15121   2.297   2.639   6.253  0.8939 -0.4136  0.3793
  139OSM   H15B15122   2.348   2.501   6.155 -0.8079 -0.1704 -0.1485
  139OSM   H15C15123   2.293   2.482   6.324 -2.8429  2.6817  2.6066
  139OSM    C1415124   2.125   2.561   6.048  0.6379 -0.7589  0.5477
  139OSM   H14A15125   2.205   2.539   5.978  0.9483  1.2625  0.1989
  139OSM   H14B15126   2.118   2.667   6.064 -0.2825 -0.5413 -1.0008
  139OSM   H14C15127   2.028   2.527   6.014  1.2104 -1.6710 -0.2278
  139OSM    C1315128   2.135   2.349   6.156 -0.1032  0.8120 -0.1478
  139OSM   H13A15129   2.039   2.319   6.116 -0.6039  1.4408  0.5630
  139OSM   H13B15130   2.177   2.294   6.239 -1.3170 -0.7821 -0.5428
  139OSM   H13C15131   2.214   2.330   6.085 -0.0020  0.7212 -0.0121
  139OSM    C1215132   2.033   2.539   6.266  0.1548  0.4410 -0.4920
  139OSM   H12A15133   2.041   2.636   6.312 -1.2472  1.3332 -2.0330
  139OSM   H12B15134   2.038   2.467   6.347  1.2581 -0.0874 -1.0031
  139OSM    C1115135   1.891   2.543   6.213  0.5901  0.0656  0.0885
  139OSM   H11A15136   1.879   2.627   6.141  0.2378  0.3335  0.4513
  139OSM   H11B15137   1.843   2.575   6.307  1.5856  1.2294  0.2247
  139OSM      P15138   1.754   2.334   6.253  0.0223 -0.3751  0.1213
  139OSM    O1315139   1.620   2.386   6.245  0.5637  0.0681  0.3170
  139OSM    O1415140   1.765   2.195   6.203  0.3103 -0.4154 -0.0408
  139OSM    O1115141   1.809   2.352   6.397  0.5162 -0.0661 -0.1055
  139OSM    O1215142   1.841   2.418   6.159 -0.0845 -0.0365  0.1156
  139OSM    C1S15143   1.920   2.273   6.445  0.0569  0.9303 -0.1920
  139OSM    H1S15144   2.001   2.279   6.370  0.8007  0.3972  0.5530
  139OSM    H1T15145   1.885   2.167   6.448  1.3817  0.4883  0.5145
  139OSM     NF15146   2.104   2.254   6.614 -0.1587 -0.1292 -0.4643
  139OSM    HNF15147   2.114   2.166   6.660 -0.9723  0.2683  0.5059
  139OSM    C2S15148   1.977   2.312   6.589  0.9260  0.7185  0.1153
  139OSM    H2S15149   1.986   2.422   6.592  0.1421  0.7900 -0.0218
  139OSM    C3S15150   1.868   2.266   6.688  0.2732 -0.2912 -0.2667
  139OSM    H3S15151   1.875   2.155   6.682  0.4937 -0.2046 -3.8115
  139OSM     O315152   1.732   2.296   6.653  0.0269  0.6019 -0.1900
  139OSM    HO315153   1.737   2.324   6.561  1.2489 -2.1822 -1.0597
  139OSM    C4S15154   1.906   2.320   6.825  0.1420 -0.6376  0.1595
  139OSM    H4S15155   1.968   2.410   6.827  0.1916 -0.6262 -1.1184
  139OSM    C5S15156   1.877   2.255   6.939  0.0675  0.6929 -0.2636
  139OSM    H5S15157   1.832   2.154   6.937  2.1963 -0.3134 -0.5182
  139OSM    C6S15158   1.900   2.304   7.078 -0.0346 -0.4754 -0.9421
  139OSM    H6S15159   1.807   2.301   7.139 -0.5924  1.3351 -1.6104
  139OSM    H6T15160   1.934   2.410   7.067 -0.2015 -0.3600 -0.3690
  139OSM    C7S15161   2.017   2.217   7.132  0.2071 -0.3506 -0.6114
  139OSM    H7S15162   2.107   2.227   7.068 -0.7170 -0.0374 -1.9080
  139OSM    H7T15163   1.991   2.109   7.130  1.0980 -0.5848  0.2432
  139OSM    C8S15164   2.053   2.254   7.279  0.0635  0.2873  0.0820
  139OSM    H8S15165   2.084   2.361   7.282 -0.0521  0.3189  0.1406
  139OSM    H8T15166   2.142   2.196   7.310  0.5006  1.3403  0.8369
  139OSM    C9S15167   1.944   2.227   7.383  0.2246  0.5408 -0.1281
  139OSM    H9S15168   1.916   2.120   7.393  1.5858  0.2066  0.4108
  139OSM    H9T15169   1.852   2.288   7.371  0.0519  0.5973  1.2923
  139OSM   C10S15170   1.999   2.270   7.519 -0.3465  0.6092 -0.0389
  139OSM   H10S15171   2.040   2.371   7.539  0.0508  0.4471 -0.0259
  139OSM   H10T15172   2.078   2.199   7.552  0.5673  1.7943  0.3719
  139OSM   C11S15173   1.877   2.265   7.615 -0.2042  0.4628 -0.0223
  139OSM   H11S15174   1.829   2.167   7.597 -0.6258 -0.1007  3.4194
  139OSM   H11T15175   1.800   2.345   7.608 -0.4155  0.2653  0.0355
  139OSM   C12S15176   1.917   2.267   7.767  0.5365 -0.1733 -0.5659
  139OSM   H12S15177   1.974   2.359   7.793 -0.8730  0.7608 -0.6413
  139OSM   H12T15178   1.963   2.170   7.796  0.4932  0.2786  1.1626
  139OSM   C13S15179   1.796   2.259   7.863  0.2795  0.0178 -0.6291
  139OSM   H13S15180   1.754   2.157   7.855  0.2101  0.0320 -0.4504
  139OSM   H13T15181   1.716   2.336   7.851 -0.7724 -1.2043 -1.7158
  139OSM   C14S15182   1.846   2.269   8.005  0.3918 -0.7928  0.2394
  139OSM   H14S15183   1.892   2.365   8.035 -2.1683  0.2783  1.0229
  139OSM   H14T15184   1.916   2.184   8.022 -0.1335 -1.1863  0.5043
  139OSM   C15S15185   1.740   2.226   8.112  0.1261 -0.1993  0.0804
  139OSM   H15S15186   1.711   2.125   8.077 -0.4337  0.3038 -0.9704
  139OSM   H15T15187   1.652   2.293   8.098 -0.3720 -0.4218  1.9006
  139OSM   C16S15188   1.795   2.224   8.257  0.1176 -0.0245  0.5513
  139OSM   H16S15189   1.877   2.152   8.273  0.2329  0.4323  2.2402
  139OSM   H16T15190   1.712   2.187   8.322 -0.8937 -0.9859 -1.2102
  139OSM   C17S15191   1.820   2.361   8.316  0.8101 -0.0988  0.1258
  139OSM   H17S15192   1.718   2.402   8.327  0.3202 -0.6147 -2.0463
  139OSM   H17T15193   1.890   2.424   8.256 -1.6361  1.8478 -0.8713
  139OSM   C18S15194   1.891   2.348   8.446  0.5986  0.4456  0.1991
  139OSM   H18S15195   1.824   2.334   8.534  0.7859  0.6698  0.3757
  139OSM   H18T15196   1.947   2.443   8.459  0.8898  0.3434 -0.2920
  139OSM   H18U15197   1.959   2.260   8.440 -0.7904 -0.7325  0.9274
  139OSM    C1F15198   2.215   2.297   6.548  0.5631 -0.3433  0.0119
  139OSM     OF15199   2.206   2.396   6.476 -0.1181 -0.2906  0.6538
  139OSM    C2F15200   2.340   2.211   6.553 -0.1486  0.0727 -0.1421
  139OSM    H2F15201   2.328   2.139   6.470  1.6770 -0.9137  0.3762
  139OSM    H2G15202   2.337   2.143   6.641  0.8854 -1.9650 -1.5948
  139OSM    C3F15203   2.475   2.288   6.538  0.3192  0.4041 -0.4395
  139OSM    H3F15204   2.469   2.359   6.453 -2.5840  1.1793  0.2943
  139OSM    H3G15205   2.558   2.217   6.517  0.0087  0.0853 -0.5991
  139OSM    C4F15206   2.515   2.383   6.659  0.0766 -0.7233 -0.2504
  139OSM    H4F15207   2.454   2.476   6.666 -2.2027 -2.2884  2.1719
  139OSM    H4G15208   2.617   2.417   6.630  0.8744  0.0207  3.0220
  139OSM    C5F15209   2.511   2.307   6.795  0.3116 -0.8576 -0.2685
  139OSM    H5F15210   2.561   2.212   6.766  0.9088 -0.7657  0.4295
  139OSM    H5G15211   2.409   2.286   6.835 -0.2379  0.2058 -1.0500
  139OSM    C6F15212   2.575   2.362   6.921 -0.1473 -0.8801  0.3736
  139OSM    H6F15213   2.544   2.469   6.928  0.2349 -0.6367 -1.3050
  139OSM    H6G15214   2.685   2.358   6.904 -0.3723 -1.7232 -1.0070
  139OSM    C7F15215   2.531   2.297   7.052 -0.4867 -0.5403  0.2584
  139OSM    H7F15216   2.554   2.189   7.043 -2.8016 -0.8952 -2.8127
  139OSM    H7G15217   2.422   2.310   7.072 -0.5113  1.4005 -0.9323
  139OSM    C8F15218   2.620   2.351   7.162  0.4708 -0.3176  0.0639
  139OSM    H8F15219   2.628   2.462   7.163  0.3179 -0.2396 -2.1997
  139OSM    H8G15220   2.725   2.315   7.148  1.0623  1.7380 -1.1769
  139OSM    C9F15221   2.570   2.292   7.300 -0.5543  0.9406 -0.2964
  139OSM    H9F15222   2.494   2.357   7.346 -0.0171  0.4767  1.3462
  139OSM   C10F15223   2.606   2.184   7.358 -0.3199  0.8109  0.0756
  139OSM   H10F15224   2.551   2.158   7.449  1.5045  0.9968  1.2786
  139OSM   C11F15225   2.706   2.072   7.322  0.9089  0.1349  0.0677
  139OSM   H11F15226   2.777   2.117   7.249 -2.4021  1.2245 -2.7759
  139OSM   H11G15227   2.652   1.990   7.271  1.9965 -0.0483 -0.8144
  139OSM   C12F15228   2.792   2.003   7.434 -0.0144  0.5893  0.4427
  139OSM   H12F15229   2.877   2.067   7.466  1.5443 -0.2477 -1.7591
  139OSM   H12G15230   2.833   1.909   7.391 -0.1605  0.5608  0.3648
  139OSM   C13F15231   2.714   1.952   7.554 -0.0227 -0.2894 -0.1318
  139OSM   H13F15232   2.671   1.860   7.509 -2.1799 -0.7643  2.6013
  139OSM   H13G15233   2.627   2.018   7.575 -0.3864 -1.0734  0.9715
  139OSM   C14F15234   2.800   1.922   7.681  0.3975 -0.5469  0.4648
  139OSM   H14F15235   2.842   2.011   7.732  0.5037  0.4486 -1.3052
  139OSM   H14G15236   2.886   1.857   7.653  1.3585  1.2123 -0.7782
  139OSM   C15F15237   2.711   1.850   7.789  0.2463  0.2209  0.4245
  139OSM   H15F15238   2.671   1.766   7.729  3.2213 -0.5832 -0.6132
  139OSM   H15G15239   2.624   1.914   7.815 -0.1515  0.7252 -1.9273
  139OSM   C16F15240   2.785   1.792   7.911  0.2056  0.0773 -0.3338
  139OSM   H16F15241   2.823   1.881   7.965 -1.5425  0.1464  0.8671
  139OSM   H16G15242   2.873   1.741   7.867 -0.3157 -1.0805 -0.0698
  139OSM   C17F15243   2.712   1.683   7.987 -0.0016 -0.8366  0.3019
  139OSM   H17F15244   2.661   1.626   7.906  1.2641 -0.6603 -0.6434
  139OSM   H17G15245   2.623   1.727   8.038  2.1435  1.2937  2.4522
  139OSM   C18F15246   2.783   1.590   8.077 -0.4494 -0.3262 -0.7994
  139OSM   H18F15247   2.831   1.641   8.164  0.6359 -0.3111 -1.3949
  139OSM   H18G15248   2.858   1.534   8.017 -0.6282  0.6694 -1.9651
  139OSM   H18H15249   2.715   1.514   8.121  0.4713 -0.7091  0.0309
  140OSM      N15250   2.946   3.486   6.380  0.1431  0.2741 -0.0296
  140OSM    C1515251   3.000   3.376   6.294  0.4804  0.2250  0.3561
  140OSM   H15A15252   3.025   3.286   6.349 -1.3183  0.9148  2.4938
  140OSM   H15B15253   3.063   3.399   6.210  1.3802  1.0345  1.2286
  140OSM   H15C15254   2.903   3.347   6.255  0.3945 -0.2390  0.8893
  140OSM    C1415255   3.036   3.535   6.488 -0.0260  0.1693 -0.0099
  140OSM   H14A15256   3.047   3.457   6.562  0.4056 -0.6266 -0.8957
  140OSM   H14B15257   3.005   3.631   6.528 -0.7549 -0.7817  1.7891
  140OSM   H14C15258   3.131   3.557   6.440 -0.2055  1.1893  0.0687
  140OSM    C1315259   2.913   3.601   6.293 -0.5831  0.3166  0.2064
  140OSM   H13A15260   2.992   3.618   6.221 -0.8645  0.9207  0.0307
  140OSM   H13B15261   2.898   3.698   6.338  0.8257  2.5412 -3.6066
  140OSM   H13C15262   2.821   3.570   6.246 -0.8190 -1.9943  2.0197
  140OSM    C1215263   2.819   3.438   6.447  0.2564 -0.5477 -0.2189
  140OSM   H12A15264   2.799   3.506   6.529 -0.8166  0.3441 -1.1894
  140OSM   H12B15265   2.841   3.344   6.496 -0.1000  0.0187  1.0703
  140OSM    C1115266   2.693   3.415   6.359 -0.0100  0.1242 -0.4519
  140OSM   H11A15267   2.672   3.513   6.310  0.1848  0.2371 -0.3107
  140OSM   H11B15268   2.609   3.394   6.428 -1.1278  0.6691 -1.5926
  140OSM      P15269   2.667   3.167   6.286  0.3514 -0.3314 -0.2069
  140OSM    O1315270   2.554   3.140   6.199  0.7545 -0.6895  0.2419
  140OSM    O1415271   2.789   3.081   6.263 -0.0439  0.7514 -0.3774
  140OSM    O1115272   2.620   3.155   6.437 -0.6519  0.1848 -0.5618
  140OSM    O1215273   2.702   3.320   6.255 -0.2854  0.3104 -0.3939
  140OSM    C1S15274   2.714   3.113   6.531 -0.2284 -0.3676  0.3853
  140OSM    H1S15275   2.811   3.164   6.515 -0.3205 -0.4354 -0.4649
  140OSM    H1T15276   2.738   3.006   6.512  1.7765  0.2153 -0.6079
  140OSM     NF15277   2.758   3.095   6.760  0.4889 -0.0066 -0.8866
  140OSM    HNF15278   2.745   3.006   6.804 -5.1909  0.8497 -0.0870
  140OSM    C2S15279   2.656   3.133   6.670 -0.2456 -0.2876 -0.6759
  140OSM    H2S15280   2.616   3.237   6.677 -1.2152 -0.7242  0.6575
  140OSM    C3S15281   2.531   3.045   6.690  0.5196  0.1075  0.2322
  140OSM    H3S15282   2.548   2.936   6.677 -1.7236 -0.4675  1.5577
  140OSM     O315283   2.437   3.064   6.587  0.4540 -0.1292 -0.2119
  140OSM    HO315284   2.487   3.102   6.515 -0.8157 -2.0922 -2.2440
  140OSM    C4S15285   2.467   3.054   6.829 -0.1156 -0.1309  0.3586
  140OSM    H4S15286   2.500   3.134   6.897 -4.2991  3.3373 -1.2407
  140OSM    C5S15287   2.392   2.949   6.882 -0.6981 -0.5918  0.2082
  140OSM    H5S15288   2.392   2.863   6.813 -0.9132 -1.7591  1.6063
  140OSM    C6S15289   2.330   2.944   7.023 -0.2103 -0.3309 -0.2378
  140OSM    H6S15290   2.377   2.877   7.098 -1.7965  0.4801  1.5727
  140OSM    H6T15291   2.226   2.905   7.020  0.1996 -1.3993 -2.2699
  140OSM    C7S15292   2.301   3.089   7.088  0.3195  0.5551 -0.0774
  140OSM    H7S15293   2.241   3.160   7.027 -2.3421 -0.0054  1.7029
  140OSM    H7T15294   2.400   3.138   7.105  0.5310  0.7307 -1.6774
  140OSM    C8S15295   2.242   3.063   7.232  0.3814  0.3722 -0.0644
  140OSM    H8S15296   2.293   2.976   7.277  2.5914  1.1036 -1.0222
  140OSM    H8T15297   2.136   3.032   7.221  0.2144  1.6517 -3.2143
  140OSM    C9S15298   2.255   3.195   7.304 -0.2077 -0.3695  0.0455
  140OSM    H9S15299   2.254   3.276   7.227  1.7647 -1.0986 -0.7864
  140OSM    H9T15300   2.352   3.199   7.357  0.9785  0.2722 -2.0476
  140OSM   C10S15301   2.148   3.221   7.416 -0.5340  0.2913 -0.6828
  140OSM   H10S15302   2.049   3.212   7.367 -0.9981 -2.3429  0.5741
  140OSM   H10T15303   2.160   3.325   7.454 -0.5791 -0.6332  2.0465
  140OSM   C11S15304   2.174   3.118   7.528  0.1834 -0.3030  0.3559
  140OSM   H11S15305   2.273   3.144   7.572  0.0488  0.7056  0.1005
  140OSM   H11T15306   2.176   3.013   7.491 -0.0697  0.4913 -2.1128
  140OSM   C12S15307   2.067   3.121   7.638  0.2677 -0.5201 -0.2614
  140OSM   H12S15308   1.969   3.114   7.586  0.3240 -0.7456 -0.3370
  140OSM   H12T15309   2.077   3.221   7.685 -1.5227 -1.4512  2.3539
  140OSM   C13S15310   2.084   3.019   7.753  0.0361 -0.1664  0.1449
  140OSM   H13S15311   2.070   2.915   7.716  3.4652 -0.9740  0.7631
  140OSM   H13T15312   2.000   3.040   7.823 -0.3539 -0.5018 -0.2208
  140OSM   C14S15313   2.219   3.031   7.820  0.4166 -0.0301  0.2750
  140OSM   H14S15314   2.236   3.132   7.862  1.7311  0.0354 -0.3700
  140OSM   H14T15315   2.310   3.010   7.759  0.2274 -0.2973  0.0844
  140OSM   C15S15316   2.216   2.930   7.940  0.3087  0.0875  0.5655
  140OSM   H15S15317   2.223   2.830   7.893 -0.7063  0.3357 -0.1560
  140OSM   H15T15318   2.128   2.951   8.004  0.1310 -0.1949  0.4129
  140OSM   C16S15319   2.334   2.911   8.048  0.3413  0.1970 -0.7914
  140OSM   H16S15320   2.356   3.013   8.087  1.7697 -0.8333  1.2356
  140OSM   H16T15321   2.422   2.864   8.000  0.7770  1.1563 -0.9600
  140OSM   C17S15322   2.294   2.828   8.174 -0.0209  0.2172 -0.4144
  140OSM   H17S15323   2.205   2.875   8.221  1.0420  1.6790  0.2000
  140OSM   H17T15324   2.385   2.832   8.237 -0.2055 -0.3687 -0.1023
  140OSM   C18S15325   2.259   2.683   8.140 -0.0803  0.0761 -0.2296
  140OSM   H18S15326   2.164   2.684   8.082 -0.5203 -2.3606  0.3198
  140OSM   H18T15327   2.236   2.629   8.235  1.6693 -1.7178 -0.7512
  140OSM   H18U15328   2.334   2.627   8.081 -0.3319 -2.1376  1.3918
  140OSM    C1F15329   2.862   3.169   6.789 -0.0496  0.1173  0.4026
  140OSM     OF15330   2.892   3.264   6.724 -0.3298  0.1309 -0.4134
  140OSM    C2F15331   2.952   3.116   6.892  0.3507 -0.0419 -0.1955
  140OSM    H2F15332   3.055   3.157   6.883  0.9372 -1.7388 -1.9829
  140OSM    H2G15333   2.956   3.006   6.874 -1.1355  0.2151 -2.6083
  140OSM    C3F15334   2.901   3.149   7.034  0.1275 -0.0857 -0.0838
  140OSM    H3F15335   2.805   3.094   7.043 -0.6333  1.2211  0.0540
  140OSM    H3G15336   2.869   3.252   7.061  1.1099  0.5858 -1.3658
  140OSM    C4F15337   3.005   3.110   7.138 -0.2295  0.1566  0.4348
  140OSM    H4F15338   3.104   3.142   7.100 -0.4000  1.1572  0.8123
  140OSM    H4G15339   3.000   2.999   7.140 -1.5728  0.0842 -2.0798
  140OSM    C5F15340   2.973   3.157   7.283  0.0861  0.1452 -0.3415
  140OSM    H5F15341   2.864   3.150   7.298  0.1593  1.2394  0.9010
  140OSM    H5G15342   3.005   3.262   7.297  1.6201 -0.6920  4.5013
  140OSM    C6F15343   3.037   3.068   7.391 -1.0571  0.0235 -0.2286
  140OSM    H6F15344   3.144   3.098   7.386 -0.8550 -0.6218  0.0647
  140OSM    H6G15345   3.013   2.963   7.365  0.2172 -0.6044  0.9717
  140OSM    C7F15346   2.999   3.111   7.533  0.2984 -0.1430 -0.5707
  140OSM    H7F15347   2.965   3.026   7.596  1.8649  1.2176  2.3079
  140OSM    H7G15348   2.911   3.179   7.535  1.2259  1.0752  1.0315
  140OSM    C8F15349   3.108   3.172   7.625 -0.0216  0.2457 -0.0515
  140OSM    H8F15350   3.051   3.224   7.705 -0.7640 -1.3365  0.4759
  140OSM    H8G15351   3.164   3.256   7.577  0.7238  0.5606  1.3047
  140OSM    C9F15352   3.213   3.074   7.671 -0.1635  0.1029  0.4553
  140OSM    H9F15353   3.256   3.031   7.580  0.2596  1.6251 -0.0949
  140OSM   C10F15354   3.243   3.017   7.786 -0.0353  0.5735 -0.1274
  140OSM   H10F15355   3.341   2.968   7.786 -0.5716 -0.5380 -1.1345
  140OSM   C11F15356   3.173   3.038   7.922 -0.7312 -0.6178 -0.3822
  140OSM   H11F15357   3.173   2.939   7.973  0.2501 -0.5187 -0.1649
  140OSM   H11G15358   3.067   3.062   7.899 -0.4447  1.8025  0.5413
  140OSM   C12F15359   3.229   3.145   8.016  0.2691 -0.2548  1.0943
  140OSM   H12F15360   3.168   3.153   8.108 -0.6851 -3.5727  0.8778
  140OSM   H12G15361   3.234   3.241   7.960  2.2347 -0.6679  0.4683
  140OSM   C13F15362   3.380   3.110   8.048 -0.6336 -0.0953  0.4082
  140OSM   H13F15363   3.426   3.194   8.105  0.9879 -1.0118  0.5248
  140OSM   H13G15364   3.449   3.098   7.962 -1.3221 -1.3869  0.0070
  140OSM   C14F15365   3.395   2.977   8.120 -0.6123  0.2097  0.7769
  140OSM   H14F15366   3.370   2.897   8.046 -2.0102  0.3190  1.1078
  140OSM   H14G15367   3.324   2.965   8.204  1.4084 -2.5183  2.2510
  140OSM   C15F15368   3.536   2.953   8.186  0.1915 -0.3102  0.8960
  140OSM   H15F15369   3.521   2.867   8.255 -0.6800 -0.1766  0.8824
  140OSM   H15G15370   3.559   3.047   8.240 -0.1985  0.1161  0.3257
  140OSM   C16F15371   3.641   2.916   8.082 -0.0107 -0.0707  0.3724
  140OSM   H16F15372   3.646   3.002   8.012 -1.2541 -1.3280 -1.3322
  140OSM   H16G15373   3.609   2.825   8.027 -0.8577  0.3780  0.1132
  140OSM   C17F15374   3.778   2.894   8.133 -0.1329  0.2648 -0.0474
  140OSM   H17F15375   3.803   2.982   8.196 -1.8683  2.8010 -2.6447
  140OSM   H17G15376   3.846   2.900   8.046 -2.0643  0.5574 -1.6036
  140OSM   C18F15377   3.804   2.754   8.190 -0.2256 -0.2146 -0.4589
  140OSM   H18F15378   3.909   2.748   8.224 -0.1097 -1.2880 -0.9657
  140OSM   H18G15379   3.789   2.679   8.109  2.2596  1.7563 -2.9361
  140OSM   H18H15380   3.729   2.732   8.269 -0.6799 -0.7051 -1.0077
  141OSM      N15381   1.775   5.377   5.855  0.0188  0.5080 -0.0229
  141OSM    C1515382   1.809   5.526   5.859  0.6115  0.7779 -0.8245
  141OSM   H15A15383   1.916   5.535   5.847  0.8021 -2.4053 -2.7700
  141OSM   H15B15384   1.793   5.557   5.961  1.6636 -2.1617  0.3373
  141OSM   H15C15385   1.758   5.590   5.788 -0.4280  1.0113  0.1185
  141OSM    C1415386   1.803   5.330   5.710  0.4258 -0.1468  0.2332
  141OSM   H14A15387   1.796   5.223   5.696  0.5023 -0.0239 -0.7666
  141OSM   H14B15388   1.908   5.343   5.691  0.5295 -0.5241  0.5214
  141OSM   H14C15389   1.762   5.394   5.634  1.3853  1.2783  0.8706
  141OSM    C1315390   1.868   5.304   5.949 -0.8247 -0.7084  0.3030
  141OSM   H13A15391   1.859   5.337   6.051 -0.2076 -1.5762  0.6597
  141OSM   H13B15392   1.967   5.331   5.915 -1.9851  4.5125  0.3130
  141OSM   H13C15393   1.848   5.198   5.951 -2.2870 -0.4717 -0.3115
  141OSM    C1215394   1.632   5.340   5.882 -0.1631  0.8593  0.1755
  141OSM   H12A15395   1.598   5.246   5.841 -2.4104  1.5035  0.3769
  141OSM   H12B15396   1.556   5.402   5.836 -0.4241  0.4123  0.0043
  141OSM    C1115397   1.594   5.342   6.035  0.0170  0.0200 -0.1899
  141OSM   H11A15398   1.666   5.276   6.088  0.1250  0.8928  0.7707
  141OSM   H11B15399   1.488   5.310   6.047  0.5159 -1.1981  1.2012
  141OSM      P15400   1.507   5.585   6.103 -0.2048  0.3147  0.2967
  141OSM    O1315401   1.554   5.706   6.027  0.3577  0.3080  0.1189
  141OSM    O1415402   1.373   5.535   6.071  0.0244  0.2456 -0.0585
  141OSM    O1115403   1.524   5.617   6.249 -0.0048  0.4777 -0.0847
  141OSM    O1215404   1.619   5.472   6.083  0.5139 -0.6588 -0.2030
  141OSM    C1S15405   1.511   5.528   6.359 -0.2808  0.5420 -0.1243
  141OSM    H1S15406   1.564   5.433   6.339  4.9772  3.1201 -0.2869
  141OSM    H1T15407   1.406   5.495   6.373 -0.2538  0.0693 -0.9791
  141OSM     NF15408   1.542   5.482   6.602  0.3204 -0.7877 -0.4477
  141OSM    HNF15409   1.460   5.476   6.658  1.3007  0.0692  1.1709
  141OSM    C2S15410   1.552   5.586   6.501  0.4823 -0.2209  0.6451
  141OSM    H2S15411   1.658   5.609   6.475  0.8991 -0.2965  2.1771
  141OSM    C3S15412   1.478   5.714   6.538 -0.0877  0.1541  0.9604
  141OSM    H3S15413   1.368   5.695   6.539  0.0602 -0.8241 -0.0623
  141OSM     O315414   1.511   5.801   6.430  0.6318 -0.6217 -0.4008
  141OSM    HO315415   1.534   5.743   6.357  2.2711  0.0667 -0.4849
  141OSM    C4S15416   1.526   5.781   6.665 -0.1489 -0.0063 -0.5619
  141OSM    H4S15417   1.625   5.829   6.661 -1.4328  2.8492 -0.5942
  141OSM    C5S15418   1.458   5.791   6.776  0.1545 -0.2674 -0.4310
  141OSM    H5S15419   1.355   5.752   6.773 -0.4258  1.1186  0.4758
  141OSM    C6S15420   1.501   5.869   6.897  0.0390  0.0785  0.0321
  141OSM    H6S15421   1.602   5.911   6.880 -0.5066  0.9085 -1.3051
  141OSM    H6T15422   1.503   5.807   6.989 -1.6127 -1.6139 -0.9954
  141OSM    C7S15423   1.403   5.989   6.920 -0.3488 -0.3409 -0.3795
  141OSM    H7S15424   1.296   5.967   6.937 -0.3823 -0.2361 -0.4578
  141OSM    H7T15425   1.393   6.042   6.823 -1.2973  0.6935  0.2547
  141OSM    C8S15426   1.471   6.092   7.020 -0.3302 -0.0104 -0.1000
  141OSM    H8S15427   1.419   6.190   7.015 -1.3666 -0.2879  3.1129
  141OSM    H8T15428   1.563   6.123   6.966  0.7035 -2.2015  0.2836
  141OSM    C9S15429   1.498   6.057   7.168 -0.1301 -0.1852 -0.1765
  141OSM    H9S15430   1.572   5.975   7.178  0.8247  0.4810 -1.4277
  141OSM    H9T15431   1.397   6.026   7.201  0.4973 -0.5764  1.5004
  141OSM   C10S15432   1.538   6.175   7.259 -0.5950 -0.7887 -0.4755
  141OSM   H10S15433   1.477   6.267   7.252  2.4336  1.4001 -0.1613
  141OSM   H10T15434   1.637   6.217   7.228 -1.8341  2.8368 -0.0209
  141OSM   C11S15435   1.536   6.134   7.407  0.4494  0.9622  0.4862
  141OSM   H11S15436   1.596   6.042   7.424 -1.4934 -0.2926  0.9587
  141OSM   H11T15437   1.428   6.117   7.428  0.4007  0.3465 -0.2139
  141OSM   C12S15438   1.575   6.250   7.504  0.0098  0.4817 -0.0158
  141OSM   H12S15439   1.509   6.338   7.485  1.7954  1.5358 -1.6911
  141OSM   H12T15440   1.679   6.282   7.484  0.6872 -1.3308  0.4178
  141OSM   C13S15441   1.563   6.220   7.659  0.4454 -0.3610  0.3643
  141OSM   H13S15442   1.612   6.121   7.668  0.0595 -0.4341  2.2411
  141OSM   H13T15443   1.456   6.219   7.687  0.3226  2.8368  0.4635
  141OSM   C14S15444   1.640   6.309   7.754 -0.1920 -0.4479 -0.3412
  141OSM   H14S15445   1.568   6.375   7.806  1.0690  0.3512  0.4387
  141OSM   H14T15446   1.720   6.361   7.697 -0.3585  0.6983  0.4363
  141OSM   C15S15447   1.709   6.234   7.870  0.4545 -0.6267 -0.6818
  141OSM   H15S15448   1.804   6.192   7.832  0.1475 -0.8162 -1.2441
  141OSM   H15T15449   1.655   6.145   7.908 -0.6881 -0.0530 -0.8955
  141OSM   C16S15450   1.749   6.338   7.982  0.1330  0.4018  0.0235
  141OSM   H16S15451   1.653   6.374   8.026 -0.4670 -0.0806 -0.8706
  141OSM   H16T15452   1.810   6.417   7.935 -0.3539  0.2610 -0.8698
  141OSM   C17S15453   1.836   6.274   8.094 -0.0768 -1.0669  0.3751
  141OSM   H17S15454   1.935   6.238   8.057  1.4733  2.5849  0.4295
  141OSM   H17T15455   1.776   6.186   8.124 -0.4174 -1.1152 -0.4275
  141OSM   C18S15456   1.856   6.369   8.210 -0.5655  0.4732  0.2486
  141OSM   H18S15457   1.931   6.448   8.190  0.0056  0.0357  0.6375
  141OSM   H18T15458   1.888   6.311   8.299 -2.1327  3.3511  2.8531
  141OSM   H18U15459   1.759   6.418   8.231  0.0594  2.6779 -1.5693
  141OSM    C1F15460   1.636   5.384   6.615  0.0376  0.6657  0.5155
  141OSM     OF15461   1.753   5.396   6.572  0.3144 -0.2228 -0.0339
  141OSM    C2F15462   1.595   5.257   6.676  0.1856 -1.1328  0.3450
  141OSM    H2F15463   1.620   5.175   6.606  0.1648  0.3780 -1.5243
  141OSM    H2G15464   1.488   5.267   6.705 -0.2488  1.2880 -1.6974
  141OSM    C3F15465   1.679   5.221   6.798 -0.2443  0.6353  0.3811
  141OSM    H3F15466   1.668   5.304   6.872 -0.7007 -0.2049  1.2929
  141OSM    H3G15467   1.785   5.228   6.768  0.3785  1.7687  2.5759
  141OSM    C4F15468   1.637   5.093   6.875  0.6618 -0.0632  0.5069
  141OSM    H4F15469   1.678   5.008   6.817  1.2726 -0.6007  1.6738
  141OSM    H4G15470   1.529   5.080   6.894  0.6246  0.3279  0.5760
  141OSM    C5F15471   1.702   5.081   7.021  0.4902 -0.6118  0.2049
  141OSM    H5F15472   1.664   5.174   7.068 -0.0861 -1.4319  1.4183
  141OSM    H5G15473   1.812   5.088   7.006  0.5889 -1.3183  0.5643
  141OSM    C6F15474   1.646   4.968   7.104 -0.1737 -0.3538 -0.4455
  141OSM    H6F15475   1.672   4.871   7.058  2.7679  0.5345 -0.8565
  141OSM    H6G15476   1.535   4.974   7.115 -0.0396  1.3958  0.3190
  141OSM    C7F15477   1.698   4.971   7.247  0.1075 -0.6908 -0.3432
  141OSM    H7F15478   1.808   4.959   7.237  0.7667  3.5167 -0.0083
  141OSM    H7G15479   1.650   4.899   7.317 -1.8395  0.4493 -0.4519
  141OSM    C8F15480   1.681   5.109   7.323 -0.3792  0.3564  0.4534
  141OSM    H8F15481   1.706   5.194   7.255 -2.1783  0.2419 -0.4167
  141OSM    H8G15482   1.761   5.112   7.400 -0.6126  1.1464  0.6639
  141OSM    C9F15483   1.542   5.130   7.383  0.1527  0.5687  0.4929
  141OSM    H9F15484   1.484   5.200   7.321  2.7425  2.5878  0.1867
  141OSM   C10F15485   1.488   5.071   7.488  0.2070  0.8912 -0.3224
  141OSM   H10F15486   1.385   5.096   7.516 -0.1495 -0.4614 -0.3454
  141OSM   C11F15487   1.562   4.960   7.562 -0.4593 -0.0447 -0.0614
  141OSM   H11F15488   1.666   4.935   7.534 -0.2935 -0.0304  0.5243
  141OSM   H11G15489   1.510   4.863   7.543 -1.6547  0.0126  2.4735
  141OSM   C12F15490   1.580   4.982   7.713 -0.3228  0.0852 -0.6363
  141OSM   H12F15491   1.621   5.083   7.736 -2.0396  0.4548  1.0820
  141OSM   H12G15492   1.653   4.902   7.741  0.7562  0.9123 -1.0088
  141OSM   C13F15493   1.452   4.952   7.792  0.0428  0.5100 -0.3414
  141OSM   H13F15494   1.389   4.871   7.749 -0.0992 -0.1607  1.0684
  141OSM   H13G15495   1.390   5.044   7.784  0.9347  1.1099 -0.5241
  141OSM   C14F15496   1.496   4.922   7.941 -0.0557  0.3718  0.7613
  141OSM   H14F15497   1.579   4.994   7.959  0.1489  0.5172 -0.6618
  141OSM   H14G15498   1.542   4.820   7.941 -2.7253 -0.9452 -1.1119
  141OSM   C15F15499   1.379   4.930   8.034  0.5366 -0.2335 -0.7575
  141OSM   H15F15500   1.315   4.841   8.020  0.0828 -0.4864  2.2934
  141OSM   H15G15501   1.307   5.013   8.019 -0.0898 -0.4503  0.8754
  141OSM   C16F15502   1.415   4.941   8.180 -0.6342 -0.9335 -0.2048
  141OSM   H16F15503   1.503   4.876   8.200 -0.6408 -0.4903  1.3643
  141OSM   H16G15504   1.328   4.903   8.237 -0.7763 -0.3770 -0.0442
  141OSM   C17F15505   1.442   5.087   8.216 -0.3233 -0.7721 -0.3741
  141OSM   H17F15506   1.349   5.148   8.223  0.8469  0.9268  1.0286
  141OSM   H17G15507   1.519   5.124   8.145 -1.9139  0.1200 -1.7232
  141OSM   C18F15508   1.504   5.106   8.356  0.4315  0.2066 -0.0687
  141OSM   H18F15509   1.551   5.206   8.352  3.6430 -1.1798 -0.1486
  141OSM   H18G15510   1.591   5.037   8.367  3.1195  3.2251 -0.8317
  141OSM   H18H15511   1.441   5.104   8.448 -0.0170  1.4713 -0.3246
  142OSM      N15512   3.058   0.232   6.057  0.1652  0.3650 -0.7858
  142OSM    C1515513   2.970   0.319   5.969 -0.1570 -1.2972 -0.1733
  142OSM   H15A15514   2.916   0.260   5.896 -1.3101  0.7864 -1.0869
  142OSM   H15B15515   3.024   0.390   5.910 -1.9269 -0.1172 -0.4575
  142OSM   H15C15516   2.886   0.368   6.015 -0.9312 -1.1017 -1.7436
  142OSM    C1415517   2.971   0.132   6.123  0.4587 -0.4463 -0.8549
  142OSM   H14A15518   3.034   0.064   6.178  0.1088  0.3676  0.6069
  142OSM   H14B15519   2.912   0.070   6.056  2.5677 -2.6181 -0.8419
  142OSM   H14C15520   2.901   0.183   6.187 -0.4827  1.2960 -3.1246
  142OSM    C1315521   3.149   0.152   5.968  0.1332 -0.2177  1.0736
  142OSM   H13A15522   3.194   0.067   6.017 -3.1788 -2.5048  0.5038
  142OSM   H13B15523   3.229   0.208   5.921  0.1756 -0.0291  1.3724
  142OSM   H13C15524   3.084   0.108   5.893  0.8508  1.4895 -0.6448
  142OSM    C1215525   3.139   0.301   6.168 -0.9973 -0.2907 -0.6725
  142OSM   H12A15526   3.219   0.355   6.119 -1.3247 -1.2730 -2.3405
  142OSM   H12B15527   3.199   0.227   6.218  1.8658  2.6898  0.7230
  142OSM    C1115528   3.066   0.380   6.283 -0.3310 -0.4998  0.3445
  142OSM   H11A15529   2.995   0.451   6.235 -0.2193 -1.6328 -1.5949
  142OSM   H11B15530   3.131   0.445   6.346 -1.6766  3.2963 -1.8154
  142OSM      P15531   2.852   0.302   6.422  0.1814 -0.2470  0.0985
  142OSM    O1315532   2.829   0.444   6.469 -0.2537  0.2174 -0.1495
  142OSM    O1415533   2.767   0.258   6.316  0.2589 -0.2103  0.1046
  142OSM    O1115534   2.851   0.192   6.537  0.5217 -0.2375  0.1245
  142OSM    O1215535   2.999   0.288   6.371 -0.2500  0.0433 -0.8546
  142OSM    C1S15536   2.902   0.212   6.673 -0.5477  0.1103  0.2449
  142OSM    H1S15537   2.882   0.316   6.706 -1.0484 -0.0346  0.4124
  142OSM    H1T15538   3.011   0.194   6.667 -0.3466  1.5148 -1.1863
  142OSM     NF15539   2.866   0.162   6.921 -0.6349 -0.6729  0.4512
  142OSM    HNF15540   2.950   0.124   6.960  0.4303 -1.9749 -2.7863
  142OSM    C2S15541   2.837   0.123   6.780  0.0218 -0.1338 -0.3317
  142OSM    H2S15542   2.727   0.131   6.767  0.2475  2.3416 -1.3729
  142OSM    C3S15543   2.874  -0.023   6.740 -0.5077  0.1230  0.6016
  142OSM    H3S15544   2.983  -0.043   6.747 -0.8379 -1.6025  1.2936
  142OSM     O315545   2.825  -0.061   6.615  0.4897 -0.0151 -0.0392
  142OSM    HO315546   2.816   0.029   6.583  2.0407  0.6879  1.3581
  142OSM    C4S15547   2.812  -0.125   6.842  0.3472  0.4297 -0.6477
  142OSM    H4S15548   2.713  -0.165   6.816 -0.8353  1.3173  2.1883
  142OSM    C5S15549   2.882  -0.173   6.946  0.1609  0.0421 -0.5793
  142OSM    H5S15550   2.986  -0.139   6.963 -0.4347  1.0418  1.4045
  142OSM    C6S15551   2.830  -0.263   7.053  0.6266  1.2699  0.3249
  142OSM    H6S15552   2.906  -0.341   7.074 -0.0070  0.5704  0.0307
  142OSM    H6T15553   2.747  -0.319   7.006 -0.0482  1.9555  0.6810
  142OSM    C7S15554   2.789  -0.188   7.186 -0.5027  0.1723  0.0142
  142OSM    H7S15555   2.745  -0.263   7.256 -0.8982  0.7594  0.4078
  142OSM    H7T15556   2.713  -0.109   7.171 -1.2098 -0.5790 -0.4674
  142OSM    C8S15557   2.910  -0.129   7.261 -0.6383  0.0653 -0.2029
  142OSM    H8S15558   2.966  -0.053   7.203  0.8504 -1.3036 -0.6349
  142OSM    H8T15559   2.988  -0.206   7.280 -1.5657 -0.7136  0.5327
  142OSM    C9S15560   2.853  -0.068   7.391  0.3212  0.4149  0.4543
  142OSM    H9S15561   2.846  -0.140   7.476 -1.6201  1.4229  1.1950
  142OSM    H9T15562   2.755  -0.018   7.376 -0.4205 -0.0063  3.2519
  142OSM   C10S15563   2.955   0.035   7.454  0.1022 -0.0166  1.0953
  142OSM   H10S15564   2.971   0.116   7.380 -0.1767 -1.4708 -0.6306
  142OSM   H10T15565   3.051  -0.019   7.474  2.2879  3.0978 -0.1491
  142OSM   C11S15566   2.909   0.085   7.590 -0.0112 -0.1459 -0.2040
  142OSM   H11S15567   2.887  -0.003   7.653  0.6918 -1.8012 -2.1317
  142OSM   H11T15568   2.815   0.136   7.560  0.9861  0.8650 -1.7741
  142OSM   C12S15569   3.010   0.186   7.652  0.5693 -0.5046 -0.4413
  142OSM   H12S15570   3.018   0.281   7.595 -0.4507  0.3642  0.8183
  142OSM   H12T15571   3.110   0.139   7.648 -0.0093 -1.8310  0.0319
  142OSM   C13S15572   2.993   0.222   7.804  0.4486 -0.3122 -0.3818
  142OSM   H13S15573   2.908   0.161   7.840  1.1579 -1.1223 -0.0423
  142OSM   H13T15574   2.959   0.328   7.803 -0.8272 -0.6962  0.2474
  142OSM   C14S15575   3.113   0.199   7.889 -0.4255 -0.3554 -0.6949
  142OSM   H14S15576   3.189   0.273   7.855  0.6738 -0.9596  0.3568
  142OSM   H14T15577   3.159   0.103   7.859  1.2878 -0.0233  0.6870
  142OSM   C15S15578   3.078   0.201   8.038  0.2273  0.2689  0.4300
  142OSM   H15S15579   3.039   0.104   8.075 -0.3817  0.2279 -0.2996
  142OSM   H15T15580   2.993   0.271   8.050 -0.7285 -0.4342 -1.7345
  142OSM   C16S15581   3.199   0.235   8.127  0.1793  0.1046  0.1431
  142OSM   H16S15582   3.231   0.340   8.112  2.0343 -0.2986  1.0649
  142OSM   H16T15583   3.293   0.180   8.105 -0.2218 -1.2943  1.7662
  142OSM   C17S15584   3.162   0.217   8.271 -0.8212  0.4253  0.5575
  142OSM   H17S15585   3.144   0.108   8.277  0.2575  0.2477  0.9046
  142OSM   H17T15586   3.061   0.255   8.298 -1.2658 -1.6717  2.0489
  142OSM   C18S15587   3.274   0.261   8.367  0.5978  0.0744  0.4703
  142OSM   H18S15588   3.261   0.222   8.470 -2.3176  0.0491  0.1602
  142OSM   H18T15589   3.274   0.372   8.379  1.0981 -0.0279  1.5988
  142OSM   H18U15590   3.376   0.252   8.324 -0.3903  1.7044 -2.5121
  142OSM    C1F15591   2.810   0.269   6.973  0.2422 -0.0436 -0.0012
  142OSM     OF15592   2.743   0.345   6.901  0.1903  0.6439  0.0350
  142OSM    C2F15593   2.831   0.295   7.118  0.3321  0.6545 -0.2752
  142OSM    H2F15594   2.937   0.264   7.133 -0.0392 -0.8535 -0.6004
  142OSM    H2G15595   2.773   0.225   7.182  0.6659 -0.1033 -0.8004
  142OSM    C3F15596   2.796   0.437   7.154  0.1638  0.3816 -0.5232
  142OSM    H3F15597   2.686   0.447   7.150  0.2702  1.3601 -1.2882
  142OSM    H3G15598   2.837   0.503   7.074  1.6815  0.0808 -0.0324
  142OSM    C4F15599   2.846   0.479   7.299  0.1950  0.9553  0.8968
  142OSM    H4F15600   2.956   0.482   7.283  0.0121 -3.0002 -2.8949
  142OSM    H4G15601   2.801   0.403   7.367 -1.3675  1.4493  0.4334
  142OSM    C5F15602   2.803   0.614   7.343 -0.2226 -0.9422  0.4307
  142OSM    H5F15603   2.693   0.619   7.358  0.0487  0.8035  2.1280
  142OSM    H5G15604   2.836   0.692   7.272 -0.9057 -0.2177  0.8970
  142OSM    C6F15605   2.886   0.655   7.470  0.3305  0.3328 -0.1840
  142OSM    H6F15606   2.874   0.760   7.501  1.9801  0.7047 -0.7005
  142OSM    H6G15607   2.993   0.649   7.441 -0.4985  1.2105 -4.0662
  142OSM    C7F15608   2.855   0.562   7.592 -0.1350  0.1240  0.3606
  142OSM    H7F15609   2.919   0.471   7.599 -1.0557 -0.5511  0.2606
  142OSM    H7G15610   2.746   0.537   7.597 -0.1092 -0.4208 -1.1033
  142OSM    C8F15611   2.875   0.633   7.731 -0.7248  0.4547  0.5506
  142OSM    H8F15612   2.831   0.557   7.800  0.3360 -0.7292 -0.0338
  142OSM    H8G15613   2.804   0.719   7.725 -1.5919 -0.1612  1.5704
  142OSM    C9F15614   3.021   0.652   7.763  0.8733 -0.4201  0.7643
  142OSM    H9F15615   3.085   0.572   7.724 -0.3430 -0.0524 -2.1708
  142OSM   C10F15616   3.069   0.757   7.836 -0.6090  0.5599 -0.0803
  142OSM   H10F15617   3.177   0.758   7.859 -0.7441  0.4727  0.5825
  142OSM   C11F15618   2.990   0.861   7.910  0.9185  0.1076 -0.0458
  142OSM   H11F15619   2.895   0.880   7.856  2.2141  2.5798 -1.6948
  142OSM   H11G15620   3.026   0.966   7.903  2.2416 -0.2842  0.4042
  142OSM   C12F15621   2.965   0.821   8.054 -0.6634 -0.0096  0.2512
  142OSM   H12F15622   3.058   0.804   8.113 -0.0371  0.3752 -0.6033
  142OSM   H12G15623   2.900   0.731   8.056 -0.1030 -0.4231  0.2115
  142OSM   C13F15624   2.909   0.936   8.148 -0.6841 -0.2134  0.4081
  142OSM   H13F15625   2.804   0.961   8.118 -0.0090 -0.7675 -2.8547
  142OSM   H13G15626   2.979   1.020   8.129 -1.0458 -0.3468 -1.7887
  142OSM   C14F15627   2.912   0.900   8.302 -0.6845 -1.0989 -0.1367
  142OSM   H14F15628   2.988   0.821   8.317  0.7818  0.4955  1.1395
  142OSM   H14G15629   2.815   0.859   8.337 -1.6205  0.7135 -0.5117
  142OSM   C15F15630   2.956   1.019   8.393  0.0371 -0.2822  0.3635
  142OSM   H15F15631   2.870   1.090   8.395  1.1870  1.1383  1.9582
  142OSM   H15G15632   3.041   1.068   8.341 -0.1216 -1.8962 -1.5483
  142OSM   C16F15633   2.991   0.975   8.534  0.9886 -0.2936  0.5303
  142OSM   H16F15634   2.915   0.907   8.578  1.1017  0.1429  1.4243
  142OSM   H16G15635   2.999   1.066   8.598 -0.4793 -0.2589  0.7026
  142OSM   C17F15636   3.123   0.902   8.546 -0.4617 -0.0926  0.6842
  142OSM   H17F15637   3.203   0.963   8.499 -0.1291  0.6843  2.2082
  142OSM   H17G15638   3.120   0.809   8.485 -3.4960 -1.5288  2.7714
  142OSM   C18F15639   3.160   0.869   8.689 -0.7025  0.1024  0.0591
  142OSM   H18F15640   3.083   0.815   8.748  0.6358 -0.9044  0.9509
  142OSM   H18G15641   3.169   0.966   8.743 -0.5714 -0.4702  1.0897
  142OSM   H18H15642   3.249   0.804   8.696  0.0427  1.2644  3.1891
  143OSM      N15643   4.709   3.145   6.337  0.4148 -0.1454 -0.2814
  143OSM    C1515644   4.622   3.259   6.388  0.3943  0.3039  1.0975
  143OSM   H15A15645   4.557   3.303   6.313  0.1480 -0.3422  0.9214
  143OSM   H15B15646   4.683   3.330   6.440  1.7324 -1.3942  1.9482
  143OSM   H15C15647   4.549   3.223   6.459 -0.2384  0.1324  0.3745
  143OSM    C1415648   4.790   3.184   6.213 -0.0067 -0.6943 -0.2731
  143OSM   H14A15649   4.740   3.222   6.126  0.2016  1.7712  0.6018
  143OSM   H14B15650   4.840   3.092   6.185 -2.4246 -1.0463 -4.1312
  143OSM   H14C15651   4.866   3.255   6.240  0.3280 -1.6769  1.5552
  143OSM    C1315652   4.805   3.108   6.447  0.2635 -0.0348  0.3814
  143OSM   H13A15653   4.756   3.068   6.535 -0.4224  1.5129  0.7405
  143OSM   H13B15654   4.854   3.197   6.484 -0.9827  1.4091 -1.2702
  143OSM   H13C15655   4.879   3.035   6.420 -0.2187  0.2914 -2.0127
  143OSM    C1215656   4.619   3.025   6.307 -0.3669 -0.2215 -0.5160
  143OSM   H12A15657   4.585   2.991   6.404  2.4144  1.6876  1.2620
  143OSM   H12B15658   4.671   2.943   6.258 -1.9588  0.2408 -3.2213
  143OSM    C1115659   4.499   3.066   6.214 -0.5153 -0.4500 -0.3906
  143OSM   H11A15660   4.482   2.969   6.163  2.6996 -0.9484 -0.6937
  143OSM   H11B15661   4.518   3.145   6.139 -0.7338  1.1171  1.1322
  143OSM      P15662   4.293   3.019   6.372  0.2968 -0.0729  0.0965
  143OSM    O1315663   4.160   3.024   6.306  0.1013  0.4840  0.7009
  143OSM    O1415664   4.351   2.881   6.381  0.2828 -0.5155  0.1793
  143OSM    O1115665   4.286   3.075   6.523 -0.1434  0.2394 -0.3476
  143OSM    O1215666   4.387   3.111   6.292  0.4461  0.3063 -0.0227
  143OSM    C1S15667   4.297   3.216   6.544  0.1738 -0.0637  0.1267
  143OSM    H1S15668   4.199   3.259   6.514 -0.7628 -1.1316  1.5394
  143OSM    H1T15669   4.377   3.268   6.488 -0.5044  1.3286  0.3855
  143OSM     NF15670   4.288   3.386   6.726 -0.5306  0.2249 -0.1754
  143OSM    HNF15671   4.363   3.444   6.756  1.6009 -2.1935 -0.5682
  143OSM    C2S15672   4.327   3.253   6.693  0.8216 -0.1128 -0.6161
  143OSM    H2S15673   4.268   3.184   6.758  0.4297 -0.5572 -1.4324
  143OSM    C3S15674   4.479   3.224   6.719  0.1255 -0.2500 -0.0409
  143OSM    H3S15675   4.542   3.293   6.660 -0.0767  0.1446  0.2021
  143OSM     O315676   4.531   3.095   6.692  0.8326  0.3839  0.5976
  143OSM    HO315677   4.460   3.034   6.670  1.6493 -1.2978  2.2518
  143OSM    C4S15678   4.515   3.259   6.859  0.2796 -0.0930  0.0403
  143OSM    H4S15679   4.469   3.191   6.933  2.2961  1.4637  2.9532
  143OSM    C5S15680   4.602   3.347   6.906  0.6014 -0.4328 -0.3041
  143OSM    H5S15681   4.653   3.419   6.840 -0.6861 -1.9751 -3.1350
  143OSM    C6S15682   4.638   3.364   7.052 -0.0739  0.9304  0.8704
  143OSM    H6S15683   4.636   3.473   7.071  2.9055  0.9913  1.3180
  143OSM    H6T15684   4.734   3.310   7.066  0.7163  1.1237 -2.9231
  143OSM    C7S15685   4.532   3.293   7.147  0.0992  0.1361  0.2837
  143OSM    H7S15686   4.544   3.182   7.140  0.0961  0.0623  1.2969
  143OSM    H7T15687   4.430   3.330   7.125 -0.5889 -0.0007  2.9948
  143OSM    C8S15688   4.547   3.322   7.301  0.1956  0.0615 -1.1158
  143OSM    H8S15689   4.505   3.422   7.324  0.0144 -0.4714  1.0620
  143OSM    H8T15690   4.653   3.325   7.335  0.2503  1.0409 -1.3536
  143OSM    C9S15691   4.466   3.218   7.388  0.6582 -0.9488  0.3706
  143OSM    H9S15692   4.513   3.118   7.385  2.8966  0.0606 -0.3416
  143OSM    H9T15693   4.357   3.211   7.366  0.9538  0.1522 -1.6865
  143OSM   C10S15694   4.488   3.261   7.538 -0.0727 -0.6019 -0.0932
  143OSM   H10S15695   4.482   3.372   7.547  0.6704 -0.6091  0.5673
  143OSM   H10T15696   4.595   3.238   7.556 -0.9056 -3.1766  2.1630
  143OSM   C11S15697   4.396   3.190   7.646 -0.5139 -0.2868  0.5989
  143OSM   H11S15698   4.384   3.093   7.594 -0.0087  0.1376 -0.3336
  143OSM   H11T15699   4.297   3.242   7.645  0.7091  2.4983 -3.8634
  143OSM   C12S15700   4.469   3.175   7.775  0.5187  0.4839 -0.3867
  143OSM   H12S15701   4.561   3.113   7.769  0.2387 -0.0672  0.8268
  143OSM   H12T15702   4.410   3.108   7.841 -0.4915  0.1905 -1.5554
  143OSM   C13S15703   4.502   3.312   7.847 -0.1628  0.5842  0.6083
  143OSM   H13S15704   4.421   3.383   7.822  2.6032  4.5070  1.6999
  143OSM   H13T15705   4.590   3.346   7.788 -1.1565  1.2848 -0.5289
  143OSM   C14S15706   4.530   3.299   7.996  0.0576 -1.0139  0.1179
  143OSM   H14S15707   4.580   3.391   8.032  0.8436 -1.7779  1.0430
  143OSM   H14T15708   4.599   3.213   8.008 -0.1722 -1.6985 -2.8045
  143OSM   C15S15709   4.394   3.287   8.081 -0.2757  0.8556 -0.1612
  143OSM   H15S15710   4.328   3.205   8.047 -2.3444  2.5304 -0.3952
  143OSM   H15T15711   4.332   3.379   8.084 -1.7588 -0.1177 -0.0001
  143OSM   C16S15712   4.437   3.256   8.230 -0.2083 -0.3904  0.8353
  143OSM   H16S15713   4.490   3.346   8.266  1.5383 -1.7478  1.8321
  143OSM   H16T15714   4.510   3.173   8.216  0.9142  0.6703  0.2877
  143OSM   C17S15715   4.322   3.216   8.324  0.3214  0.1481  0.7838
  143OSM   H17S15716   4.357   3.165   8.416 -0.1268  2.3536  2.2713
  143OSM   H17T15717   4.252   3.150   8.270  0.9387 -0.4064  0.6520
  143OSM   C18S15718   4.240   3.331   8.380  0.2873  0.4886 -0.6382
  143OSM   H18S15719   4.309   3.403   8.428 -0.5767  0.3483  0.8799
  143OSM   H18T15720   4.176   3.289   8.461  0.1673 -1.1344 -1.5354
  143OSM   H18U15721   4.169   3.388   8.315 -0.9208  0.1175  0.3193
  143OSM    C1F15722   4.161   3.421   6.725  0.1163 -0.3743  0.0849
  143OSM     OF15723   4.066   3.348   6.695  0.5987 -0.4551  0.2272
  143OSM    C2F15724   4.137   3.561   6.773 -0.3534  0.3219 -0.2182
  143OSM    H2F15725   4.077   3.613   6.695 -1.0526 -0.0217  0.0806
  143OSM    H2G15726   4.231   3.619   6.771  0.5777 -0.9944  1.9832
  143OSM    C3F15727   4.072   3.574   6.911  0.0360 -0.0563 -0.1793
  143OSM    H3F15728   3.968   3.538   6.898 -0.8990  2.2378  0.4354
  143OSM    H3G15729   4.063   3.684   6.920 -1.5393 -0.1105 -0.7191
  143OSM    C4F15730   4.153   3.525   7.034  0.2251  0.2415 -0.1388
  143OSM    H4F15731   4.248   3.583   7.042 -0.4014  1.0225  3.5219
  143OSM    H4G15732   4.169   3.415   7.040 -1.0951  0.0736  0.8499
  143OSM    C5F15733   4.082   3.566   7.166  0.3727  0.3771  0.3200
  143OSM    H5F15734   3.979   3.525   7.155  0.0047  0.9453  1.5117
  143OSM    H5G15735   4.072   3.676   7.172 -0.9277  0.2158  1.8003
  143OSM    C6F15736   4.147   3.502   7.295 -0.1919 -0.4861 -0.6881
  143OSM    H6F15737   4.246   3.551   7.302 -2.2109  4.6618 -2.9166
  143OSM    H6G15738   4.168   3.393   7.285  1.3254 -0.3294  0.4461
  143OSM    C7F15739   4.049   3.529   7.413 -0.2134  0.0801 -0.0792
  143OSM    H7F15740   4.091   3.479   7.503 -2.8347  1.3557  2.0040
  143OSM    H7G15741   3.952   3.476   7.401 -0.6696  0.9286 -0.1885
  143OSM    C8F15742   4.019   3.678   7.440  0.3325 -0.1175 -0.1119
  143OSM    H8F15743   3.954   3.710   7.356 -1.0747 -0.3959  0.8314
  143OSM    H8G15744   4.116   3.730   7.440 -0.3734  1.2618  0.9817
  143OSM    C9F15745   3.947   3.709   7.572 -0.4625  0.0847  0.4781
  143OSM    H9F15746   3.838   3.699   7.579 -0.6119  2.3719  2.7525
  143OSM   C10F15747   4.016   3.739   7.687 -0.7019  0.0742 -0.1224
  143OSM   H10F15748   3.961   3.760   7.780 -0.2708  0.8307 -0.0306
  143OSM   C11F15749   4.166   3.744   7.700 -0.0104  0.1037  0.5955
  143OSM   H11F15750   4.190   3.838   7.753 -0.1719 -0.1806  1.1775
  143OSM   H11G15751   4.218   3.748   7.602 -0.8257  1.1161  0.1881
  143OSM   C12F15752   4.230   3.635   7.790  0.1166  0.2700  0.2847
  143OSM   H12F15753   4.341   3.648   7.790 -0.0602  2.0406  0.4893
  143OSM   H12G15754   4.200   3.538   7.746 -0.3938  0.8705 -0.7214
  143OSM   C13F15755   4.191   3.619   7.937 -0.2308  0.3681 -0.0693
  143OSM   H13F15756   4.251   3.552   8.001 -0.6140  0.3455  0.2699
  143OSM   H13G15757   4.088   3.580   7.954 -0.3652  0.9499  0.4924
  143OSM   C14F15758   4.199   3.748   8.017  0.2098  1.1026 -0.4230
  143OSM   H14F15759   4.126   3.821   7.976 -1.5607 -0.5702 -0.4062
  143OSM   H14G15760   4.306   3.777   8.020  1.6912 -3.4064 -1.6089
  143OSM   C15F15761   4.158   3.723   8.174 -0.2515  1.3253 -0.2879
  143OSM   H15F15762   4.209   3.633   8.215  1.1468  2.2181  0.0159
  143OSM   H15G15763   4.048   3.712   8.184  0.0619 -0.7537  1.6442
  143OSM   C16F15764   4.199   3.849   8.253  0.1494  0.2152  0.7639
  143OSM   H16F15765   4.126   3.925   8.216  0.0009 -1.1736 -2.0512
  143OSM   H16G15766   4.301   3.888   8.234  0.5383 -0.7879  0.7535
  143OSM   C17F15767   4.190   3.840   8.409  0.6021  0.0083  0.7209
  143OSM   H17F15768   4.211   3.938   8.456  1.4320 -0.0227  0.4323
  143OSM   H17G15769   4.259   3.767   8.456  0.8134  0.9530  1.9099
  143OSM   C18F15770   4.053   3.798   8.458 -0.3502  0.1443 -0.8358
  143OSM   H18F15771   4.046   3.794   8.569 -1.3794 -1.3642 -0.9241
  143OSM   H18G15772   4.031   3.691   8.437 -0.6353 -0.2416  1.1866
  143OSM   H18H15773   3.969   3.855   8.415  0.2392  0.8447 -1.0872
  144OSM      N15774   3.091   2.188   5.974  0.3575 -0.1997 -0.0970
  144OSM    C1515775   3.123   2.139   6.109  0.3707 -0.2861 -0.0767
  144OSM   H15A15776   3.228   2.114   6.111  0.1297 -2.1579 -3.2751
  144OSM   H15B15777   3.067   2.048   6.127 -1.7076  0.9128 -0.1847
  144OSM   H15C15778   3.091   2.215   6.179 -3.0330  0.0992 -1.8413
  144OSM    C1415779   2.940   2.226   5.983 -0.0060 -0.2229  0.0266
  144OSM   H14A15780   2.920   2.296   5.903  3.0564 -0.4882 -1.0890
  144OSM   H14B15781   2.914   2.275   6.076 -0.9231 -1.3914  0.4177
  144OSM   H14C15782   2.879   2.138   5.972  1.6359 -1.2402 -1.1354
  144OSM    C1315783   3.192   2.300   5.947  0.3053 -0.3670  0.2035
  144OSM   H13A15784   3.170   2.358   5.858  1.5182 -0.4552 -0.1731
  144OSM   H13B15785   3.288   2.256   5.923  0.7258  0.8692 -0.4419
  144OSM   H13C15786   3.204   2.360   6.035 -1.1744 -2.0936  1.6738
  144OSM    C1215787   3.117   2.076   5.882  0.3159 -0.2619 -0.0032
  144OSM   H12A15788   3.222   2.050   5.887  0.2582 -0.7524 -1.0508
  144OSM   H12B15789   3.104   2.110   5.780  0.4618 -1.6935 -0.5207
  144OSM    C1115790   3.038   1.949   5.891  0.2922 -0.1873  0.5973
  144OSM   H11A15791   3.032   1.886   5.799 -0.6152  0.7523 -0.0116
  144OSM   H11B15792   2.931   1.967   5.914 -0.7560 -4.0087 -0.5549
  144OSM      P15793   3.002   1.757   6.073  0.3110 -0.0401 -0.6856
  144OSM    O1315794   2.866   1.817   6.102 -0.1200  0.2612  0.0832
  144OSM    O1415795   2.986   1.628   6.000  0.1684 -0.2012  0.4987
  144OSM    O1115796   3.074   1.741   6.215 -0.2054  0.1113  0.4459
  144OSM    O1215797   3.087   1.866   5.992  0.4177  0.0623  0.0637
  144OSM    C1S15798   3.101   1.853   6.298 -0.0315  0.8811  0.1527
  144OSM    H1S15799   3.017   1.923   6.319 -0.6077  0.4545 -0.6815
  144OSM    H1T15800   3.194   1.905   6.265  0.3934 -0.0222 -0.0888
  144OSM     NF15801   3.165   1.904   6.539  0.0824 -0.3211 -0.6187
  144OSM    HNF15802   3.260   1.928   6.560  0.9313 -2.5307 -1.6102
  144OSM    C2S15803   3.141   1.798   6.445 -0.9737 -0.2310 -0.3089
  144OSM    H2S15804   3.053   1.740   6.479  1.3771 -2.6698  2.1724
  144OSM    C3S15805   3.271   1.709   6.431  0.6650  0.3612 -0.0378
  144OSM    H3S15806   3.358   1.761   6.386 -0.7391  2.2221 -0.7650
  144OSM     O315807   3.264   1.590   6.346 -0.5949 -0.3296  0.5049
  144OSM    HO315808   3.176   1.591   6.308  0.4690 -0.7871 -2.1441
  144OSM    C4S15809   3.299   1.644   6.564  1.0466  1.2381 -0.6197
  144OSM    H4S15810   3.211   1.594   6.607  1.0383  1.6487 -0.1457
  144OSM    C5S15811   3.401   1.639   6.655 -0.3438  0.3954 -0.9793
  144OSM    H5S15812   3.498   1.682   6.624  0.3600 -0.9068 -0.6848
  144OSM    C6S15813   3.400   1.564   6.793 -0.0738  0.0280  0.6207
  144OSM    H6S15814   3.500   1.527   6.826 -0.1263 -1.7717 -1.0748
  144OSM    H6T15815   3.355   1.465   6.774  0.4117 -0.0375 -0.2585
  144OSM    C7S15816   3.343   1.649   6.902  0.4569  0.0992  0.1902
  144OSM    H7S15817   3.389   1.750   6.899 -2.0696  1.3546  0.8665
  144OSM    H7T15818   3.370   1.596   6.996  0.7081  1.0668  0.6821
  144OSM    C8S15819   3.187   1.650   6.905 -0.1203 -0.3062 -0.8093
  144OSM    H8S15820   3.147   1.553   6.941  0.1079  0.1758  0.8384
  144OSM    H8T15821   3.146   1.673   6.804 -1.7308 -0.7620 -0.2856
  144OSM    C9S15822   3.124   1.770   6.985  0.5275  0.4837 -0.0797
  144OSM    H9S15823   3.019   1.744   7.007  0.1970  2.6178  1.0143
  144OSM    H9T15824   3.124   1.856   6.914  0.3586  2.1273  1.8347
  144OSM   C10S15825   3.193   1.815   7.115 -0.4580  0.3550  0.3574
  144OSM   H10S15826   3.299   1.834   7.092  0.5076 -0.9550  3.2156
  144OSM   H10T15827   3.193   1.728   7.184  0.0679  2.1677  2.7822
  144OSM   C11S15828   3.113   1.937   7.175 -0.0516  0.3342 -0.2771
  144OSM   H11S15829   3.015   1.907   7.217 -0.0789  0.1408 -0.4777
  144OSM   H11T15830   3.094   2.002   7.087  1.0731  0.0422 -0.7663
  144OSM   C12S15831   3.200   2.017   7.269  0.0786 -0.0690  0.1412
  144OSM   H12S15832   3.150   2.114   7.290  1.0615  0.6505 -0.7378
  144OSM   H12T15833   3.297   2.047   7.224  1.2002 -2.1582  1.0172
  144OSM   C13S15834   3.231   1.932   7.395 -0.1116 -0.4705 -0.1462
  144OSM   H13S15835   3.289   1.843   7.364  0.7843 -0.4366  1.3156
  144OSM   H13T15836   3.137   1.895   7.443 -0.6421 -1.1928 -1.6829
  144OSM   C14S15837   3.327   2.004   7.490 -0.0817 -0.0817  0.4658
  144OSM   H14S15838   3.417   2.047   7.440  3.6287 -4.2535  2.8679
  144OSM   H14T15839   3.374   1.946   7.572 -1.0050 -3.0620 -0.9813
  144OSM   C15S15840   3.268   2.119   7.571  0.3137 -0.6683 -0.2624
  144OSM   H15S15841   3.228   2.188   7.494  1.0011 -1.6303 -1.5253
  144OSM   H15T15842   3.342   2.175   7.631  2.5648 -2.5253 -1.1284
  144OSM   C16S15843   3.150   2.081   7.665  0.3292  0.5698  0.7435
  144OSM   H16S15844   3.173   2.018   7.754 -1.9212 -1.9592 -0.2918
  144OSM   H16T15845   3.081   2.030   7.594  0.8158  2.1176 -0.9209
  144OSM   C17S15846   3.075   2.202   7.716 -0.4983 -0.7917 -0.1102
  144OSM   H17S15847   3.133   2.255   7.794 -0.2849 -0.7213 -0.3158
  144OSM   H17T15848   2.988   2.170   7.777 -0.5843  1.0480  0.8255
  144OSM   C18S15849   3.025   2.316   7.630 -0.2528  0.2817  0.6378
  144OSM   H18S15850   2.996   2.279   7.530  1.8725 -1.4490  0.5837
  144OSM   H18T15851   3.105   2.389   7.605 -0.2296 -0.5490 -1.9573
  144OSM   H18U15852   2.934   2.367   7.669 -0.8838  0.5185 -1.0853
  144OSM    C1F15853   3.070   1.980   6.596 -0.0841  0.5320 -0.9395
  144OSM     OF15854   2.956   1.952   6.581 -0.1170  0.3600 -0.3019
  144OSM    C2F15855   3.114   2.097   6.680  0.0260 -0.1961 -0.2331
  144OSM    H2F15856   3.199   2.150   6.631 -0.0770 -0.5664 -0.8208
  144OSM    H2G15857   3.152   2.055   6.776 -0.1432  0.8542  0.3040
  144OSM    C3F15858   2.993   2.186   6.712  1.0529 -0.6133 -0.5008
  144OSM    H3F15859   2.912   2.126   6.759  1.4471 -0.1228  0.8393
  144OSM    H3G15860   2.957   2.241   6.622 -1.6042 -0.6728  0.4302
  144OSM    C4F15861   3.038   2.305   6.803 -0.4030  0.2400  0.0506
  144OSM    H4F15862   2.958   2.382   6.800 -0.4128  0.2213 -0.1731
  144OSM    H4G15863   3.132   2.350   6.765  0.5533 -1.4865  0.2366
  144OSM    C5F15864   3.054   2.276   6.952  0.1059 -0.3040  0.0649
  144OSM    H5F15865   3.132   2.197   6.958 -0.3898 -0.8967 -1.1027
  144OSM    H5G15866   2.963   2.221   6.983 -0.0458  0.7547  1.6301
  144OSM    C6F15867   3.085   2.404   7.029 -0.0674 -0.2015 -0.7582
  144OSM    H6F15868   2.998   2.473   7.024  0.6959  1.0068  1.2657
  144OSM    H6G15869   3.180   2.446   6.989  0.8392 -1.3843  0.1029
  144OSM    C7F15870   3.091   2.373   7.178  0.3894 -0.5279  0.1412
  144OSM    H7F15871   3.194   2.338   7.201  0.3098 -0.7847  0.1125
  144OSM    H7G15872   3.016   2.293   7.200 -0.6524  0.1329 -0.8967
  144OSM    C8F15873   3.066   2.501   7.266  0.2293  0.5013  0.6600
  144OSM    H8F15874   3.045   2.463   7.368 -1.0399  0.9701  0.5900
  144OSM    H8G15875   2.968   2.544   7.237  1.2059  1.2481 -1.8012
  144OSM    C9F15876   3.172   2.603   7.260  0.1011 -0.3364  0.7701
  144OSM    H9F15877   3.226   2.613   7.165  1.6580  0.5172  1.6916
  144OSM   C10F15878   3.193   2.699   7.344  0.7301 -0.1335  0.3258
  144OSM   H10F15879   3.283   2.761   7.331  0.4881  0.4947  1.4909
  144OSM   C11F15880   3.122   2.712   7.475 -0.0120  0.3029 -0.7647
  144OSM   H11F15881   3.029   2.653   7.484  0.2804 -0.0991 -0.2870
  144OSM   H11G15882   3.094   2.817   7.498  0.9954  0.0331  2.1272
  144OSM   C12F15883   3.206   2.668   7.600  0.2880  0.3741  0.0716
  144OSM   H12F15884   3.284   2.744   7.621 -1.4540  1.8841  1.4448
  144OSM   H12G15885   3.259   2.573   7.582  0.2791  0.0839  1.4663
  144OSM   C13F15886   3.107   2.664   7.722  0.2424  0.1786 -0.3824
  144OSM   H13F15887   3.031   2.584   7.705  0.0271  0.5734 -1.3430
  144OSM   H13G15888   3.042   2.755   7.727  0.2603  0.1621  0.2674
  144OSM   C14F15889   3.168   2.625   7.859 -0.5969 -0.2122  0.3439
  144OSM   H14F15890   3.263   2.678   7.883  1.3098 -2.8527 -0.8819
  144OSM   H14G15891   3.206   2.521   7.847  0.4331  0.2497 -0.5669
  144OSM   C15F15892   3.094   2.636   7.994  0.1379 -0.2248 -0.0143
  144OSM   H15F15893   2.999   2.581   7.978  0.0271  0.7455 -3.2982
  144OSM   H15G15894   3.076   2.744   8.007  2.0423  0.2446 -0.9700
  144OSM   C16F15895   3.176   2.583   8.105  0.3083 -0.2094 -0.3281
  144OSM   H16F15896   3.284   2.609   8.098  0.6217 -1.6410 -1.1766
  144OSM   H16G15897   3.170   2.472   8.106  1.2356 -0.2976  1.4952
  144OSM   C17F15898   3.125   2.633   8.240  0.6285 -0.5077 -0.7259
  144OSM   H17F15899   3.149   2.741   8.246  1.6249 -0.7724  0.3992
  144OSM   H17G15900   3.186   2.593   8.324  1.0820  0.3533 -0.6375
  144OSM   C18F15901   2.973   2.598   8.265 -0.4707 -0.0687  0.2592
  144OSM   H18F15902   2.905   2.665   8.209 -0.1194 -0.1367 -0.2633
  144OSM   H18G15903   2.941   2.600   8.371 -0.9838 -2.0206  0.1857
  144OSM   H18H15904   2.948   2.496   8.228 -2.3791  0.0924  1.0382
  145SAPE     N15905   1.054   1.913  10.613 -0.0641 -0.2472  0.1080
  145SAPE   HN115906   1.125   1.843  10.582  0.0472 -0.5501  1.0191
  145SAPE   HN215907   0.992   1.914  10.529 -1.6825  0.4029  1.2582
  145SAPE   HN315908   1.108   1.999  10.634  1.3343 -0.5271 -2.0046
  145SAPE   C1215909   0.969   1.877  10.726  0.0619  0.1412 -0.3194
  145SAPE  H12A15910   0.941   1.968  10.784 -1.8331 -0.0724 -0.8188
  145SAPE  H12B15911   1.009   1.800  10.795 -3.2195 -0.2276  1.3972
  145SAPE   C1115912   0.825   1.826  10.685  0.3345  0.3322  0.7470
  145SAPE  H11A15913   0.785   1.898  10.611 -0.0054 -2.8385 -2.4553
  145SAPE  H11B15914   0.761   1.833  10.775  0.0352  0.9784  0.4922
  145SAPE     P15915   0.851   1.569  10.745 -0.5237 -0.0837  0.3696
  145SAPE   O1315916   0.953   1.593  10.856  0.3234 -0.3081 -0.4366
  145SAPE   O1415917   0.712   1.546  10.789 -0.9472  1.2709 -0.1230
  145SAPE   O1215918   0.840   1.687  10.638 -0.4684 -0.3843 -0.1926
  145SAPE   O1115919   0.894   1.443  10.657  0.0556 -0.1320  0.6118
  145SAPE    C115920   0.978   1.463  10.536  0.7990 -0.2751 -0.1120
  145SAPE    HA15921   0.987   1.571  10.515 -1.8162  0.3565  1.4312
  145SAPE    HB15922   1.079   1.420  10.552 -0.2433 -1.9676  2.9749
  145SAPE    C215923   0.908   1.401  10.408 -0.0099  0.8469  0.8139
  145SAPE    HS15924   0.799   1.426  10.407  0.1403  1.5086 -0.2395
  145SAPE   O2115925   0.932   1.258  10.414 -0.3952 -0.2511  0.2966
  145SAPE   C2115926   0.838   1.192  10.348  0.7983  0.1271  0.3381
  145SAPE   O2215927   0.736   1.240  10.301  0.0263  0.5185  0.3312
  145SAPE   C2215928   0.883   1.049  10.331 -0.4708  0.2377 -0.3802
  145SAPE   H2R15929   0.979   1.026  10.382 -0.2822 -0.5857 -1.0854
  145SAPE   H2S15930   0.808   0.981  10.378  1.8420 -2.4380 -0.2894
  145SAPE    C315931   0.972   1.452  10.275 -0.0885  0.1004  0.0735
  145SAPE    HX15932   1.060   1.391  10.247 -0.7640 -0.0357 -1.9506
  145SAPE    HY15933   1.008   1.556  10.293  0.8751 -0.1497 -0.3721
  145SAPE   O3115934   0.881   1.440  10.161  0.4289  0.2860  0.2145
  145SAPE   C3115935   0.802   1.538  10.151  0.3134 -0.1378 -0.2182
  145SAPE   O3215936   0.812   1.648  10.207 -0.3699 -0.2303  0.2283
  145SAPE   C3215937   0.686   1.503  10.056 -1.1778  0.3779  0.5508
  145SAPE   H2X15938   0.591   1.559  10.074 -1.3175  0.2438  0.2434
  145SAPE   H2Y15939   0.669   1.394  10.069  0.4958  0.1611  1.1172
  145SAPE   C2315940   0.891   1.005  10.189  0.5853  0.2146 -0.0775
  145SAPE   H3R15941   0.791   1.015  10.141 -0.4711 -0.1318  1.9392
  145SAPE   H3S15942   0.909   0.895  10.185 -0.5170  0.0198 -0.0538
  145SAPE   C2415943   0.975   1.086  10.092  0.3773 -0.0348 -0.0899
  145SAPE   H4R15944   0.928   1.183  10.063 -1.0185 -0.2967  1.2045
  145SAPE   H4S15945   0.983   1.022  10.001 -1.0133 -0.4741  0.0675
  145SAPE   C2515946   1.105   1.117  10.153 -0.2545  0.8408  0.5168
  145SAPE   H5R15947   1.098   1.185  10.239  2.0221  1.5214  0.2297
  145SAPE   C2615948   1.223   1.057  10.133  0.4022 -0.3130 -0.0090
  145SAPE   H6R15949   1.305   1.090  10.199 -1.9252  1.1996  2.3202
  145SAPE   C2715950   1.260   0.946  10.037  0.3038  0.9377 -0.0669
  145SAPE   H7R15951   1.190   0.864  10.014  0.4580  0.7327  0.1874
  145SAPE   H7S15952   1.338   0.890  10.092  0.9169  1.5005 -0.3450
  145SAPE   C2815953   1.325   1.008   9.917  0.2707  0.2394 -0.0679
  145SAPE   H8R15954   1.406   1.081   9.932 -1.0694  1.2573  2.9590
  145SAPE   C2915955   1.294   0.973   9.789 -0.5261  0.3632  0.5350
  145SAPE   H9R15956   1.355   1.020   9.710 -1.7173 -0.8068 -1.1732
  145SAPE  C21015957   1.200   0.871   9.731  0.2692 -0.0937 -0.5935
  145SAPE  H10R15958   1.137   0.831   9.814 -0.1902 -1.5850 -1.6301
  145SAPE  H10S15959   1.258   0.790   9.684  0.3224 -1.5060  1.7426
  145SAPE  C21115960   1.097   0.938   9.648 -0.1952 -0.1046 -0.2913
  145SAPE  H11R15961   1.046   1.023   9.696 -2.0737 -1.1300 -0.3765
  145SAPE  C21215962   1.054   0.920   9.524 -0.2231 -0.7894  0.0705
  145SAPE  H12R15963   0.980   0.983   9.474  1.3046 -1.1361 -2.8392
  145SAPE  C21315964   1.106   0.829   9.418 -0.4208  0.3153 -0.1313
  145SAPE  H13R15965   1.034   0.814   9.336 -0.4978 -0.2294  0.0317
  145SAPE  H13S15966   1.125   0.734   9.473  2.8304  1.3940  0.8760
  145SAPE  C21415967   1.246   0.867   9.375 -0.7000 -0.1627 -0.4853
  145SAPE  H14R15968   1.316   0.889   9.456  0.1089  2.5129 -1.7932
  145SAPE  C21515969   1.300   0.860   9.252  0.1209  0.1564 -0.2063
  145SAPE  H15R15970   1.401   0.900   9.235 -0.0240  0.5706 -0.1071
  145SAPE  C21615971   1.223   0.823   9.123 -0.3673  0.0659  0.6503
  145SAPE  H16R15972   1.177   0.917   9.084  0.6796  0.3416  0.0314
  145SAPE  H16S15973   1.141   0.755   9.154 -0.6542 -0.9124 -1.9892
  145SAPE  C21715974   1.300   0.751   9.009  0.0151  0.2423  0.5263
  145SAPE  H17R15975   1.353   0.660   9.045 -1.1953 -0.8806 -0.4272
  145SAPE  H17S15976   1.371   0.825   8.966 -1.9885  1.4337 -0.9081
  145SAPE  C21815977   1.210   0.705   8.888 -0.6448  0.1800 -0.0304
  145SAPE  H18R15978   1.151   0.794   8.860 -2.2744 -0.7179  0.4366
  145SAPE  H18S15979   1.144   0.619   8.914 -0.3759 -1.1061 -3.1605
  145SAPE  C21915980   1.289   0.661   8.768 -1.2751  0.0079 -0.2964
  145SAPE  H19R15981   1.369   0.591   8.800 -1.1259 -1.1654 -3.0201
  145SAPE  H19S15982   1.336   0.751   8.724  2.1727  0.0073  2.9061
  145SAPE  C22015983   1.206   0.592   8.655  0.4238  0.3878 -0.7386
  145SAPE  H20R15984   1.269   0.569   8.566  0.1155 -0.6864 -0.6982
  145SAPE  H20S15985   1.136   0.670   8.618  1.9261  1.8619 -0.5902
  145SAPE  H20T15986   1.165   0.501   8.704  0.0577  2.3382  2.9190
  145SAPE   C3315987   0.722   1.544   9.910 -0.1884  1.0749 -0.4172
  145SAPE   H3X15988   0.815   1.487   9.888 -2.0796 -1.7985 -1.4203
  145SAPE   H3Y15989   0.730   1.655   9.897  1.4579  0.7883 -2.6087
  145SAPE   C3415990   0.616   1.494   9.808  0.3098 -1.0447 -0.1520
  145SAPE   H4X15991   0.509   1.515   9.832  0.4233 -1.8252  1.1430
  145SAPE   H4Y15992   0.605   1.384   9.809 -0.5127 -0.9841 -1.2361
  145SAPE   C3515993   0.651   1.549   9.668 -0.0532 -0.1242 -0.4587
  145SAPE   H5X15994   0.741   1.496   9.630 -0.8495  0.5168 -3.4768
  145SAPE   H5Y15995   0.668   1.658   9.665 -0.8856  0.0010 -2.1581
  145SAPE   C3615996   0.533   1.511   9.570  0.6471 -0.1160 -0.7789
  145SAPE   H6X15997   0.446   1.560   9.619  0.9201  0.0021 -0.4078
  145SAPE   H6Y15998   0.507   1.404   9.565 -0.2828  0.0888 -0.3902
  145SAPE   C3715999   0.552   1.554   9.424 -0.0276 -0.1049 -0.0632
  145SAPE   H7X16000   0.651   1.523   9.384  0.8198 -0.4983  2.1944
  145SAPE   H7Y16001   0.557   1.665   9.426 -0.4685 -0.0872  0.2046
  145SAPE   C3816002   0.437   1.500   9.349 -0.7722  0.1223 -0.1579
  145SAPE   H8X16003   0.335   1.507   9.393 -0.6811 -2.5085  0.6492
  145SAPE   H8Y16004   0.450   1.391   9.336  3.7612  0.1457  2.3956
  145SAPE   C3916005   0.424   1.547   9.201  0.0704  0.3856 -0.3102
  145SAPE   H9X16006   0.518   1.538   9.142  0.3824  3.1303 -0.3827
  145SAPE   H9Y16007   0.391   1.653   9.198 -0.1276  0.2984 -1.8851
  145SAPE  C31016008   0.311   1.471   9.126  0.6233  0.3062  0.4223
  145SAPE  H10X16009   0.207   1.491   9.159 -1.1993 -1.2278 -3.7736
  145SAPE  H10Y16010   0.320   1.361   9.136 -0.3421  0.2098  0.3216
  145SAPE  C31116011   0.312   1.504   8.976  0.5275  0.2603  0.8514
  145SAPE  H11X16012   0.412   1.469   8.943  1.1428  0.2547  2.5940
  145SAPE  H11Y16013   0.326   1.614   8.962  1.6215  0.1756  1.1718
  145SAPE  C31216014   0.187   1.450   8.896  0.0565 -0.1408 -0.3077
  145SAPE  H12X16015   0.094   1.501   8.928  0.2899  0.7663 -1.0137
  145SAPE  H12Y16016   0.163   1.345   8.923 -0.0881 -0.8420 -2.8632
  145SAPE  C31316017   0.188   1.470   8.743 -0.5385  0.1627 -0.2172
  145SAPE  H13X16018   0.257   1.396   8.697 -1.9717 -0.5622 -1.2780
  145SAPE  H13Y16019   0.229   1.573   8.732 -0.6842  0.4700  1.8579
  145SAPE  C31416020   0.051   1.453   8.672  0.6881  0.3387  0.9670
  145SAPE  H14X16021  -0.029   1.496   8.737 -1.1681 -1.7724  0.2158
  145SAPE  H14Y16022   0.028   1.344   8.671  0.2914  0.4142 -0.2406
  145SAPE  C31516023   0.051   1.504   8.524 -0.1209  0.7841  0.2010
  145SAPE  H15X16024   0.125   1.586   8.512 -0.6855  1.1735 -0.7016
  145SAPE  H15Y16025  -0.048   1.543   8.494 -0.3831  0.9080  1.2022
  145SAPE  C31616026   0.081   1.384   8.429  0.7581 -0.2429 -0.3967
  145SAPE  H16X16027   0.001   1.306   8.421  0.6501 -0.2099  0.2665
  145SAPE  H16Y16028   0.173   1.334   8.467  1.5297  1.8871  0.6579
  145SAPE  C31716029   0.123   1.436   8.294  0.0128 -0.6907 -0.2516
  145SAPE  H17X16030   0.199   1.515   8.311 -0.8892  0.2452 -0.4419
  145SAPE  H17Y16031   0.039   1.495   8.252 -0.1469 -0.5207  0.2952
  145SAPE  C31816032   0.174   1.328   8.203 -0.4877 -0.0451 -0.9328
  145SAPE  H18X16033   0.093   1.252   8.206 -1.6002  1.0854 -0.9474
  145SAPE  H18Y16034   0.269   1.285   8.242 -0.0410  0.1320 -1.8075
  145SAPE  H18Z16035   0.179   1.354   8.095 -1.3520 -1.6565 -1.3861
  146SAPE     N16036   0.169   4.351  10.747  0.4033 -0.0883  0.1146
  146SAPE   HN116037   0.135   4.276  10.811  1.1782 -1.4034 -0.9527
  146SAPE   HN216038   0.263   4.320  10.714 -1.0633 -1.9086 -2.7819
  146SAPE   HN316039   0.196   4.439  10.794  0.3483 -0.6031  1.1397
  146SAPE   C1216040   0.092   4.383  10.619  0.5987  0.0886 -0.3828
  146SAPE  H12A16041   0.079   4.287  10.563 -0.8056 -0.9478  1.5748
  146SAPE  H12B16042   0.145   4.464  10.565  0.4559  1.5867  1.5958
  146SAPE   C1116043  -0.039   4.433  10.665  0.3541 -0.2480 -0.0772
  146SAPE  H11A16044  -0.113   4.455  10.585  1.1740  1.8390 -0.3274
  146SAPE  H11B16045  -0.014   4.528  10.716  1.6366 -0.9821  0.7429
  146SAPE     P16046  -0.198   4.243  10.729  0.1473  0.3578  0.1840
  146SAPE   O1316047  -0.107   4.132  10.687  0.4560 -0.1903  0.3298
  146SAPE   O1416048  -0.274   4.213  10.853 -0.0593  0.1686  0.2744
  146SAPE   O1216049  -0.109   4.364  10.766 -0.2281  0.4840 -0.3799
  146SAPE   O1116050  -0.290   4.295  10.611 -0.2407  0.3051 -0.1592
  146SAPE    C116051  -0.427   4.271  10.630  0.5829 -0.0857 -0.2606
  146SAPE    HA16052  -0.469   4.258  10.732 -0.4503  0.7388 -0.5587
  146SAPE    HB16053  -0.479   4.360  10.588  1.1336  1.4114  2.0647
  146SAPE    C216054  -0.464   4.154  10.535  0.4504 -0.3152 -0.6293
  146SAPE    HS16055  -0.394   4.071  10.556 -0.9384 -1.4576 -0.3798
  146SAPE   O2116056  -0.467   4.204  10.404  0.4443  0.7010 -0.0838
  146SAPE   C2116057  -0.378   4.147  10.324 -0.0815 -0.1056 -0.3082
  146SAPE   O2216058  -0.304   4.053  10.354  0.2144 -0.0898 -0.3642
  146SAPE   C2216059  -0.392   4.202  10.184 -0.8537 -0.7378 -0.4304
  146SAPE   H2R16060  -0.500   4.230  10.180 -0.1144  2.4545 -0.7133
  146SAPE   H2S16061  -0.333   4.295  10.171 -1.9689 -0.3130 -3.1635
  146SAPE    C316062  -0.609   4.106  10.577 -0.0971 -0.5615 -0.5197
  146SAPE    HX16063  -0.674   4.190  10.608 -1.1330 -1.8101  0.8248
  146SAPE    HY16064  -0.596   4.050  10.672 -1.0559  1.6309  0.9558
  146SAPE   O3116065  -0.675   4.023  10.482 -0.1146 -0.4119 -0.1399
  146SAPE   C3116066  -0.633   3.905  10.459  0.3201  0.2113  0.7546
  146SAPE   O3216067  -0.543   3.850  10.523 -0.2754  0.4560 -0.2800
  146SAPE   C3216068  -0.699   3.856  10.325 -0.5116 -1.0592  0.7768
  146SAPE   H2X16069  -0.809   3.862  10.336 -0.5817 -0.1909 -0.1492
  146SAPE   H2Y16070  -0.671   3.752  10.299  1.7662 -0.8252  2.0842
  146SAPE   C2316071  -0.347   4.108  10.069  0.4133 -0.0583  0.4588
  146SAPE   H3R16072  -0.391   4.006  10.079  0.6271 -0.3632 -1.3323
  146SAPE   H3S16073  -0.241   4.094  10.101  0.1128 -1.6878  0.8663
  146SAPE   C2416074  -0.384   4.169   9.927  0.0033 -0.6942  0.0063
  146SAPE   H4R16075  -0.342   4.272   9.925 -0.0641 -0.6452  0.7711
  146SAPE   H4S16076  -0.494   4.184   9.915 -0.8186  0.8421  6.2507
  146SAPE   C2516077  -0.335   4.079   9.813  0.3590  0.1267  0.6253
  146SAPE   H5R16078  -0.407   3.998   9.798 -1.6440  1.7865  0.7892
  146SAPE   C2616079  -0.235   4.100   9.727 -0.7522  0.8188  0.0700
  146SAPE   H6R16080  -0.211   4.027   9.648 -0.1145  1.0574  0.0331
  146SAPE   C2716081  -0.133   4.206   9.729  0.4541  0.5988  0.2777
  146SAPE   H7R16082  -0.178   4.307   9.743 -1.0305  0.0036  0.0461
  146SAPE   H7S16083  -0.096   4.203   9.624 -0.3021  0.3763  0.0121
  146SAPE   C2816084  -0.029   4.183   9.831 -0.4114  0.9173  0.5410
  146SAPE   H8R16085  -0.036   4.100   9.903  2.5427 -0.8484 -1.0240
  146SAPE   C2916086   0.079   4.248   9.842 -0.0893  0.0035  0.1768
  146SAPE   H9R16087   0.142   4.222   9.928  0.7981  0.8954 -0.1878
  146SAPE  C21016088   0.141   4.363   9.764 -0.0332 -0.1091 -0.1471
  146SAPE  H10R16089   0.195   4.437   9.827  1.2453 -1.2131  0.0995
  146SAPE  H10S16090   0.059   4.426   9.722  1.2177  1.3266 -0.5252
  146SAPE  C21116091   0.224   4.326   9.646 -0.4311  0.3431 -0.4178
  146SAPE  H11R16092   0.299   4.251   9.674 -1.5313 -0.4522  0.4517
  146SAPE  C21216093   0.218   4.376   9.522 -0.4494 -0.9510 -0.3402
  146SAPE  H12R16094   0.295   4.332   9.457  0.1891 -1.5712  0.8036
  146SAPE  C21316095   0.121   4.478   9.465  0.7281  0.1319  0.0188
  146SAPE  H13R16096   0.165   4.580   9.472  2.3684 -0.6345  1.6809
  146SAPE  H13S16097   0.028   4.481   9.525  0.6486  0.0926 -0.1021
  146SAPE  C21416098   0.087   4.446   9.323  0.3287  0.5374 -0.1181
  146SAPE  H14R16099   0.014   4.365   9.313  0.6819 -0.0003  1.4584
  146SAPE  C21516100   0.149   4.481   9.208  0.3845 -0.4704  0.3702
  146SAPE  H15R16101   0.096   4.448   9.117  0.8186 -1.8504  0.5967
  146SAPE  C21616102   0.279   4.557   9.194 -0.1295 -0.7315 -0.2537
  146SAPE  H16R16103   0.333   4.539   9.289 -1.8769 -2.4848  0.4733
  146SAPE  H16S16104   0.266   4.667   9.186 -0.3289 -0.7453 -0.1439
  146SAPE  C21716105   0.377   4.511   9.087  0.5735  0.0861 -0.2296
  146SAPE  H17R16106   0.408   4.404   9.094 -0.2627 -0.0958  0.9784
  146SAPE  H17S16107   0.464   4.579   9.097  0.4932  0.1700 -0.0934
  146SAPE  C21816108   0.327   4.527   8.941 -0.1407 -0.0170  0.0663
  146SAPE  H18R16109   0.236   4.463   8.935  0.9420 -1.4635 -2.4270
  146SAPE  H18S16110   0.403   4.482   8.874  2.5296  0.6557  2.4317
  146SAPE  C21916111   0.311   4.667   8.889  0.6301  0.0414  0.1219
  146SAPE  H19R16112   0.386   4.734   8.936 -0.8248  2.0894 -0.3155
  146SAPE  H19S16113   0.208   4.704   8.911 -0.5901 -0.4389 -4.0277
  146SAPE  C22016114   0.334   4.680   8.740 -1.2299 -0.5746  0.4470
  146SAPE  H20R16115   0.335   4.791   8.727  2.2694 -0.3509  1.4212
  146SAPE  H20S16116   0.259   4.632   8.674 -0.4447  0.8025 -1.5500
  146SAPE  H20T16117   0.434   4.634   8.721  0.5830  3.5152 -1.1283
  146SAPE   C3316118  -0.673   3.950  10.203 -0.3311  0.0485 -0.3189
  146SAPE   H3X16119  -0.564   3.967  10.190  0.4598 -1.7632  2.8655
  146SAPE   H3Y16120  -0.724   4.046  10.228 -0.3764 -0.4693  1.8035
  146SAPE   C3416121  -0.745   3.902  10.080  0.1012  0.0110 -0.1661
  146SAPE   H4X16122  -0.854   3.894  10.094  0.1061 -0.5954 -0.4508
  146SAPE   H4Y16123  -0.700   3.805  10.053  0.5146  0.6346 -1.8536
  146SAPE   C3516124  -0.729   4.002   9.962  0.2790 -0.2988 -1.1490
  146SAPE   H5X16125  -0.621   4.027   9.968 -0.0240  0.9651 -0.7202
  146SAPE   H5Y16126  -0.786   4.095   9.981 -0.4779 -0.6829 -1.5044
  146SAPE   C3616127  -0.765   3.941   9.827  0.1303  0.7019  0.0248
  146SAPE   H6X16128  -0.873   3.918   9.823 -0.3889  2.9432  0.0288
  146SAPE   H6Y16129  -0.705   3.849   9.811 -0.8555  0.3197 -1.7579
  146SAPE   C3716130  -0.724   4.030   9.710  0.1028 -0.0161 -0.0492
  146SAPE   H7X16131  -0.627   4.083   9.717  0.2869 -0.2558 -0.7024
  146SAPE   H7Y16132  -0.796   4.115   9.708  0.7475  0.5840  1.0961
  146SAPE   C3816133  -0.731   3.950   9.581  0.5704 -0.3761 -0.2587
  146SAPE   H8X16134  -0.743   4.020   9.496 -1.7848  0.0671  0.3568
  146SAPE   H8Y16135  -0.817   3.880   9.571 -0.4068  0.7462  0.0655
  146SAPE   C3916136  -0.607   3.861   9.554 -0.2530 -0.6350 -0.1859
  146SAPE   H9X16137  -0.628   3.753   9.574 -0.6496 -0.7956 -1.3687
  146SAPE   H9Y16138  -0.529   3.894   9.626 -2.2897  3.4396  0.4386
  146SAPE  C31016139  -0.554   3.871   9.416  0.2250 -0.4861  0.1487
  146SAPE  H10X16140  -0.550   3.975   9.378 -1.4001 -0.7759 -0.9501
  146SAPE  H10Y16141  -0.620   3.822   9.341  1.1181  0.6367 -1.4619
  146SAPE  C31116142  -0.412   3.821   9.404 -1.2901 -0.6209  0.3943
  146SAPE  H11X16143  -0.402   3.721   9.450  0.5188 -0.6770 -0.0436
  146SAPE  H11Y16144  -0.349   3.890   9.465 -0.1193 -0.6346 -0.7571
  146SAPE  C31216145  -0.349   3.825   9.269 -0.2309 -0.2776 -0.1071
  146SAPE  H12X16146  -0.389   3.914   9.215  0.1745  1.5950  2.4939
  146SAPE  H12Y16147  -0.376   3.733   9.213 -0.2444  0.6671 -1.7252
  146SAPE  C31316148  -0.200   3.842   9.270  0.1485 -0.1410 -0.0210
  146SAPE  H13X16149  -0.146   3.756   9.316  2.3173  1.3648  0.4258
  146SAPE  H13Y16150  -0.162   3.929   9.328 -0.6499 -0.0162  0.3336
  146SAPE  C31416151  -0.143   3.863   9.129  0.2188 -1.3691  0.2401
  146SAPE  H14X16152  -0.043   3.910   9.143  0.3266 -1.2770 -0.7731
  146SAPE  H14Y16153  -0.216   3.940   9.094  0.1117 -1.7975 -0.4820
  146SAPE  C31516154  -0.132   3.743   9.035 -0.1316  0.0053 -0.4689
  146SAPE  H15X16155  -0.236   3.713   9.012 -0.7751  1.7208  0.0135
  146SAPE  H15Y16156  -0.079   3.662   9.089  0.8848  0.7567 -0.2973
  146SAPE  C31616157  -0.052   3.771   8.906 -0.5064 -0.6124 -0.6059
  146SAPE  H16X16158  -0.038   3.878   8.876  4.5907 -1.0782 -0.6097
  146SAPE  H16Y16159  -0.118   3.727   8.828 -2.4451 -0.3314  0.7746
  146SAPE  C31716160   0.084   3.705   8.900  0.4905 -0.1330  0.7195
  146SAPE  H17X16161   0.078   3.606   8.951  0.6630 -0.6508 -0.2514
  146SAPE  H17Y16162   0.155   3.767   8.958  0.2510  0.7972  0.0429
  146SAPE  C31816163   0.123   3.685   8.751 -0.0430 -0.0582 -0.6401
  146SAPE  H18X16164   0.122   3.778   8.690 -0.0106  0.3046 -0.0914
  146SAPE  H18Y16165   0.052   3.614   8.704 -0.4670  0.0912 -0.2331
  146SAPE  H18Z16166   0.222   3.635   8.757 -0.2778 -0.3640  1.4653
  147SAPE     N16167   2.376   2.079  11.319  0.8659 -0.1547  0.1168
  147SAPE   HN116168   2.458   2.028  11.282  0.2562  1.2000 -3.6203
  147SAPE   HN216169   2.396   2.180  11.331 -0.3545  0.2126 -0.6491
  147SAPE   HN316170   2.356   2.043  11.414  0.8737 -0.5194 -0.0178
  147SAPE   C1216171   2.277   2.061  11.202  0.3305  0.0645 -0.6401
  147SAPE  H12A16172   2.180   2.105  11.233  0.6273  1.0874 -1.1272
  147SAPE  H12B16173   2.268   1.950  11.202  0.8632 -0.0420  1.9061
  147SAPE   C1116174   2.324   2.129  11.073 -0.1139  0.2200 -0.3780
  147SAPE  H11A16175   2.316   2.235  11.105  0.8823  0.4198 -0.7796
  147SAPE  H11B16176   2.255   2.113  10.987  0.7060 -0.8553 -0.8631
  147SAPE     P16177   2.503   1.978  10.935 -0.2266 -0.4065 -0.0381
  147SAPE   O1316178   2.647   1.999  10.914 -0.0650  0.1174 -0.2127
  147SAPE   O1416179   2.448   1.847  10.974  0.1970 -0.5286 -0.7387
  147SAPE   O1216180   2.462   2.092  11.042  0.2668 -0.2676  0.0550
  147SAPE   O1116181   2.433   2.026  10.802  0.4892  0.1848  0.2354
  147SAPE    C116182   2.470   2.157  10.756  0.2635 -0.0202 -0.3893
  147SAPE    HA16183   2.435   2.234  10.828 -0.6262 -0.1223 -0.7062
  147SAPE    HB16184   2.580   2.166  10.741  0.2850 -1.4416 -1.2209
  147SAPE    C216185   2.401   2.198  10.620  0.0743 -0.5540  0.1299
  147SAPE    HS16186   2.378   2.306  10.627 -0.7709 -0.6601 -0.8282
  147SAPE   O2116187   2.287   2.124  10.594 -0.3026 -0.1759  0.1361
  147SAPE   C2116188   2.188   2.141  10.684  0.4227 -0.2246 -0.3575
  147SAPE   O2216189   2.192   2.213  10.780 -0.0499 -0.4632 -0.0935
  147SAPE   C2216190   2.057   2.069  10.638  0.2477 -0.1461 -0.4680
  147SAPE   H2R16191   2.041   1.965  10.671  0.8908  0.2395  1.1505
  147SAPE   H2S16192   1.976   2.132  10.681 -0.3555 -1.1296 -0.1464
  147SAPE    C316193   2.489   2.196  10.497  0.1653  0.1561  0.6954
  147SAPE    HX16194   2.544   2.099  10.495 -0.7705 -0.3700 -1.4943
  147SAPE    HY16195   2.571   2.270  10.515  0.3013  0.1884 -0.0383
  147SAPE   O3116196   2.417   2.235  10.376  0.2083 -0.1402  0.1861
  147SAPE   C3116197   2.362   2.138  10.302  0.2520  0.0225 -0.7034
  147SAPE   O3216198   2.394   2.021  10.304 -0.3466 -0.2478  0.5060
  147SAPE   C3216199   2.261   2.212  10.212  0.1041  0.5871 -0.6190
  147SAPE   H2X16200   2.224   2.309  10.250  0.6574  0.5258  0.0842
  147SAPE   H2Y16201   2.180   2.136  10.213 -1.2250  1.9565  0.9083
  147SAPE   C2316202   2.046   2.064  10.478  0.5514 -0.9153  0.3225
  147SAPE   H3R16203   2.129   2.002  10.440 -0.0670 -1.0813 -0.7953
  147SAPE   H3S16204   2.063   2.168  10.443 -0.5591 -1.6624 -2.7372
  147SAPE   C2416205   1.906   2.034  10.431 -0.3290  0.6526 -0.4075
  147SAPE   H4R16206   1.904   2.068  10.325 -1.7989  1.9131 -0.0056
  147SAPE   H4S16207   1.850   2.102  10.499  0.7290  1.0644  0.0735
  147SAPE   C2516208   1.868   1.892  10.447 -0.0970  0.2578 -0.4362
  147SAPE   H5R16209   1.884   1.839  10.542  0.7211 -2.5230 -2.0092
  147SAPE   C2616210   1.800   1.821  10.351 -0.4026  0.4620  0.0535
  147SAPE   H6R16211   1.783   1.716  10.377 -0.3818  0.3353 -0.4356
  147SAPE   C2716212   1.756   1.862  10.211  0.1404 -0.2936  0.5487
  147SAPE   H7R16213   1.815   1.805  10.138  2.3507  2.4662  0.0117
  147SAPE   H7S16214   1.797   1.964  10.196  2.5090 -1.3067 -0.3063
  147SAPE   C2816215   1.613   1.866  10.184  1.0023  0.7101 -0.8689
  147SAPE   H8R16216   1.545   1.893  10.265 -1.1367 -0.6418 -2.0992
  147SAPE   C2916217   1.556   1.846  10.066  0.0727  0.0801 -0.0621
  147SAPE   H9R16218   1.448   1.863  10.072  0.2984  1.5444  0.1783
  147SAPE  C21016219   1.618   1.823   9.923 -0.1227 -0.4736 -0.3076
  147SAPE  H10R16220   1.728   1.816   9.921 -0.2084 -2.7625 -0.4097
  147SAPE  H10S16221   1.590   1.917   9.871  0.4342  0.5639  1.1992
  147SAPE  C21116222   1.563   1.696   9.868 -0.0300  0.1679  0.8209
  147SAPE  H11R16223   1.527   1.620   9.939  0.8878 -0.2521  0.8468
  147SAPE  C21216224   1.570   1.666   9.738  0.2648  0.2994  1.0344
  147SAPE  H12R16225   1.510   1.578   9.714 -1.8410  1.7312  0.7896
  147SAPE  C21316226   1.626   1.755   9.630  0.6579 -0.3567 -0.2251
  147SAPE  H13R16227   1.661   1.855   9.663 -0.5960  0.8599 -2.3343
  147SAPE  H13S16228   1.551   1.776   9.550 -0.5871  1.4229  1.3220
  147SAPE  C21416229   1.737   1.678   9.578 -0.2808  0.5287  0.1202
  147SAPE  H14R16230   1.828   1.656   9.636 -1.0520 -3.4140  0.1173
  147SAPE  C21516231   1.753   1.642   9.450 -0.0949  0.0247  0.0158
  147SAPE  H15R16232   1.848   1.597   9.420 -0.1878  0.1000 -0.3963
  147SAPE  C21616233   1.655   1.677   9.343 -0.3262  0.0538  0.1828
  147SAPE  H16R16234   1.635   1.786   9.341  1.0220  0.3318  0.7481
  147SAPE  H16S16235   1.556   1.628   9.355 -0.4450  0.6850  1.9400
  147SAPE  C21716236   1.702   1.642   9.201  0.9880  0.1741  0.4476
  147SAPE  H17R16237   1.696   1.535   9.171 -1.0064  1.2258 -3.5387
  147SAPE  H17S16238   1.808   1.670   9.184  1.2057  1.0146  2.7919
  147SAPE  C21816239   1.608   1.699   9.096  0.5784  0.2925  0.6502
  147SAPE  H18R16240   1.647   1.803   9.089  2.4196 -0.3604  0.5821
  147SAPE  H18S16241   1.501   1.692   9.121  0.4405 -2.1223 -0.3707
  147SAPE  C21916242   1.624   1.636   8.950 -0.0885  0.2161  0.1027
  147SAPE  H19R16243   1.548   1.682   8.884  0.0853 -1.2258 -1.1457
  147SAPE  H19S16244   1.596   1.529   8.950 -0.8464  0.3877  1.3772
  147SAPE  C22016245   1.765   1.650   8.899 -0.3568  0.1401  0.5085
  147SAPE  H20R16246   1.789   1.758   8.901 -0.8130  0.2363  1.3236
  147SAPE  H20S16247   1.777   1.605   8.799 -0.4248 -3.0903  1.8167
  147SAPE  H20T16248   1.833   1.593   8.967 -2.0703 -2.5500  0.1312
  147SAPE   C3316249   2.318   2.242  10.066  0.4863  0.3612 -0.1713
  147SAPE   H3X16250   2.357   2.154  10.010 -1.6764 -2.0137  1.7700
  147SAPE   H3Y16251   2.410   2.304  10.078 -0.6420  2.2941 -0.9964
  147SAPE   C3416252   2.213   2.307   9.977  0.0968 -0.4966 -0.3049
  147SAPE   H4X16253   2.153   2.392  10.016 -0.1743 -0.0260 -1.6882
  147SAPE   H4Y16254   2.132   2.232   9.965 -1.5642  1.1437  0.2897
  147SAPE   C3516255   2.269   2.331   9.833 -0.0710 -0.0932 -0.2743
  147SAPE   H5X16256   2.287   2.228   9.795 -2.2308 -1.4210  2.0331
  147SAPE   H5Y16257   2.356   2.400   9.830 -1.8663  2.2432 -1.9313
  147SAPE   C3616258   2.164   2.387   9.742  0.4108 -0.8419  0.7726
  147SAPE   H6X16259   2.109   2.466   9.796  1.5163  0.3693  0.1875
  147SAPE   H6Y16260   2.088   2.307   9.734  1.2222 -1.6193  0.6305
  147SAPE   C3716261   2.206   2.425   9.603 -0.0253  0.0279  0.3628
  147SAPE   H7X16262   2.266   2.517   9.616 -0.4206  0.4619 -0.7204
  147SAPE   H7Y16263   2.117   2.459   9.546  0.7951 -0.3402 -1.1773
  147SAPE   C3816264   2.289   2.329   9.523 -0.5958  0.3467 -0.7530
  147SAPE   H8X16265   2.233   2.237   9.497 -1.4152  0.0432  1.7907
  147SAPE   H8Y16266   2.385   2.312   9.576  0.1489 -1.1031 -2.4733
  147SAPE   C3916267   2.347   2.390   9.390  0.3225  0.0544  0.2865
  147SAPE   H9X16268   2.421   2.471   9.405  1.5191 -0.5636 -1.9454
  147SAPE   H9Y16269   2.262   2.433   9.332  0.7086  1.5544  0.7879
  147SAPE  C31016270   2.399   2.279   9.301 -0.3677  0.2695  0.0814
  147SAPE  H10X16271   2.321   2.200   9.287  0.3091 -0.6711  1.3137
  147SAPE  H10Y16272   2.484   2.227   9.352 -0.6290 -2.2155 -1.8170
  147SAPE  C31116273   2.432   2.333   9.168 -0.3939 -0.0293 -0.0253
  147SAPE  H11X16274   2.542   2.335   9.149 -0.6456  0.1983 -1.5390
  147SAPE  H11Y16275   2.399   2.439   9.160  0.8152  0.4138  0.4439
  147SAPE  C31216276   2.369   2.243   9.054 -0.0826  0.0469 -0.3802
  147SAPE  H12X16277   2.407   2.291   8.961  1.7419  1.6462  1.1211
  147SAPE  H12Y16278   2.258   2.257   9.054 -0.1896 -0.7225  0.3627
  147SAPE  C31316279   2.402   2.099   9.054  0.1056 -0.6947 -0.4389
  147SAPE  H13X16280   2.343   2.053   9.136 -0.5524  2.6092  1.1030
  147SAPE  H13Y16281   2.513   2.091   9.061  0.3680  1.9066 -0.6596
  147SAPE  C31416282   2.369   2.040   8.919 -0.2040  0.2313  0.7473
  147SAPE  H14X16283   2.266   2.062   8.885  0.3697  0.2244 -1.0600
  147SAPE  H14Y16284   2.380   1.930   8.933 -1.2291 -0.5934 -3.6341
  147SAPE  C31516285   2.475   2.095   8.818 -0.2947 -0.0731  0.4131
  147SAPE  H15X16286   2.575   2.068   8.858  1.1553  0.6708 -2.4221
  147SAPE  H15Y16287   2.478   2.204   8.800 -0.5752 -0.3775 -1.8268
  147SAPE  C31616288   2.474   2.028   8.682 -0.0523 -0.3167  1.1712
  147SAPE  H16X16289   2.453   1.922   8.707 -2.4735  0.5723  3.2928
  147SAPE  H16Y16290   2.575   2.022   8.636 -0.5251 -0.7523  0.1592
  147SAPE  C31716291   2.376   2.083   8.581 -0.2304 -0.3636  0.6813
  147SAPE  H17X16292   2.276   2.118   8.614 -0.4924  0.5764 -0.9636
  147SAPE  H17Y16293   2.351   2.005   8.507  0.0524 -0.3855  0.6077
  147SAPE  C31816294   2.432   2.200   8.500 -0.1374  0.4024  0.2194
  147SAPE  H18X16295   2.476   2.281   8.561  0.5368  0.4012 -0.2591
  147SAPE  H18Y16296   2.354   2.234   8.429 -0.5046 -1.8886 -0.5709
  147SAPE  H18Z16297   2.510   2.159   8.433 -1.4087 -0.5473 -0.7334
  148SAPE     N16298   2.428   2.593  10.936 -0.3618  0.0289  0.3911
  148SAPE   HN116299   2.465   2.682  10.973 -1.0101  0.6160 -0.3410
  148SAPE   HN216300   2.325   2.586  10.944 -0.5597  1.1835 -0.7887
  148SAPE   HN316301   2.484   2.517  10.979  0.6407  0.9587  0.7781
  148SAPE   C1216302   2.464   2.595  10.788  0.5458  0.3563 -0.1011
  148SAPE  H12A16303   2.465   2.490  10.754 -0.7564  0.4680 -0.5332
  148SAPE  H12B16304   2.568   2.631  10.772 -0.5532  3.0457 -2.1177
  148SAPE   C1116305   2.368   2.677  10.700 -0.0218  0.0850  0.2704
  148SAPE  H11A16306   2.401   2.682  10.594 -4.2872  1.9861 -1.1744
  148SAPE  H11B16307   2.369   2.788  10.712 -0.1912  0.2630 -1.2470
  148SAPE     P16308   2.129   2.663  10.808  0.3434  0.4868  0.1309
  148SAPE   O1316309   2.159   2.590  10.929 -0.1537 -0.1576 -0.3701
  148SAPE   O1416310   2.132   2.808  10.805  0.2921  0.4952 -0.0334
  148SAPE   O1216311   2.244   2.618  10.705  0.0057  0.3070 -0.0364
  148SAPE   O1116312   1.991   2.616  10.746  0.7749 -0.1008 -0.2551
  148SAPE    C116313   1.970   2.482  10.697 -0.8571  0.6146 -0.2060
  148SAPE    HA16314   2.068   2.430  10.687  0.2405  1.9006  2.8525
  148SAPE    HB16315   1.914   2.424  10.774  0.1144  1.9537  1.5792
  148SAPE    C216316   1.894   2.497  10.564 -0.0421 -0.3202 -0.1173
  148SAPE    HS16317   1.885   2.393  10.525 -1.7400 -0.7463  1.3003
  148SAPE   O2116318   1.972   2.583  10.485  0.4285 -0.3953  0.3592
  148SAPE   C2116319   2.086   2.524  10.440 -0.0658 -0.3047 -0.2714
  148SAPE   O2216320   2.113   2.407  10.444 -0.1097 -0.5810 -0.3371
  148SAPE   C2216321   2.164   2.634  10.361 -0.4120  0.2523 -0.8759
  148SAPE   H2R16322   2.104   2.725  10.378 -0.9617 -0.4042  0.9215
  148SAPE   H2S16323   2.273   2.645  10.382  0.3493 -0.5888 -3.9147
  148SAPE    C316324   1.748   2.553  10.567  0.0142  0.2010 -0.4944
  148SAPE    HX16325   1.743   2.657  10.607 -2.3517  0.7572 -2.0628
  148SAPE    HY16326   1.686   2.487  10.631  0.4382 -0.5773 -0.8737
  148SAPE   O3116327   1.694   2.553  10.426  0.3433  0.0440 -0.9196
  148SAPE   C3116328   1.642   2.433  10.394  0.0676 -0.3983  0.0834
  148SAPE   O3216329   1.627   2.341  10.470 -0.6608 -0.4696  0.5036
  148SAPE   C3216330   1.618   2.423  10.245  0.0250 -0.4711 -0.2074
  148SAPE   H2X16331   1.712   2.453  10.195 -0.1688  1.0787  0.3012
  148SAPE   H2Y16332   1.537   2.494  10.220  1.8201  2.5101  1.7415
  148SAPE   C2316333   2.153   2.609  10.215  0.2224  0.8558  0.0800
  148SAPE   H3R16334   2.214   2.517  10.201  0.3728  0.9314  0.2548
  148SAPE   H3S16335   2.191   2.690  10.149  0.8392 -0.5578 -1.3680
  148SAPE   C2416336   2.014   2.577  10.160  0.0450  0.2423 -0.1185
  148SAPE   H4R16337   1.983   2.477  10.198 -0.5895  0.4919  0.0450
  148SAPE   H4S16338   2.014   2.557  10.051  1.1414  1.3470 -0.3396
  148SAPE   C2516339   1.904   2.686  10.185 -0.2833  1.0130  0.0211
  148SAPE   H5R16340   1.815   2.656  10.243  0.8372  1.3105  1.9900
  148SAPE   C2616341   1.879   2.797  10.122  0.0130 -0.0332  0.4498
  148SAPE   H6R16342   1.793   2.859  10.152  0.0449  0.1268  0.2107
  148SAPE   C2716343   1.957   2.852  10.010  0.4502  0.4987  0.7351
  148SAPE   H7R16344   2.051   2.794   9.994  0.5943  1.1230 -0.8922
  148SAPE   H7S16345   1.989   2.954  10.042  2.6192 -1.1083  4.2499
  148SAPE   C2816346   1.868   2.852   9.887 -0.3990  0.8364 -0.0330
  148SAPE   H8R16347   1.805   2.763   9.871 -1.8325  1.7677  0.3010
  148SAPE   C2916348   1.872   2.940   9.790 -0.7287  0.5032  0.2694
  148SAPE   H9R16349   1.802   2.921   9.708 -0.0653 -0.7625 -0.0330
  148SAPE  C21016350   1.967   3.048   9.775 -0.9313 -0.4937 -0.6880
  148SAPE  H10R16351   2.067   3.013   9.742 -0.7248 -0.7081  0.1517
  148SAPE  H10S16352   1.977   3.105   9.870  1.8823 -0.6812 -0.7961
  148SAPE  C21116353   1.917   3.150   9.670  0.6558  0.1932  0.3540
  148SAPE  H11R16354   1.836   3.218   9.700  0.3698 -0.2677  0.6442
  148SAPE  C21216355   1.965   3.157   9.546  0.1193 -0.2569  0.3232
  148SAPE  H12R16356   1.931   3.236   9.476 -0.0077 -0.3539  0.2755
  148SAPE  C21316357   2.078   3.072   9.482 -0.6605  0.1431  1.1104
  148SAPE  H13R16358   2.060   3.050   9.374  1.7342  0.1748  0.6419
  148SAPE  H13S16359   2.082   2.970   9.525 -1.8758  0.0458  1.0166
  148SAPE  C21416360   2.221   3.122   9.493 -0.0267 -0.2295 -0.3126
  148SAPE  H14R16361   2.288   3.075   9.566  0.2320 -0.6373 -0.8083
  148SAPE  C21516362   2.285   3.212   9.413 -0.4654  0.1047  0.1680
  148SAPE  H15R16363   2.385   3.246   9.443 -0.0491 -1.3179  0.4798
  148SAPE  C21616364   2.222   3.279   9.295 -0.7623 -0.2446 -0.1467
  148SAPE  H16R16365   2.273   3.376   9.278  0.2450 -0.2634  2.2663
  148SAPE  H16S16366   2.114   3.288   9.319 -0.8286 -0.1146 -0.4944
  148SAPE  C21716367   2.257   3.187   9.169 -0.3552 -0.1037  1.1794
  148SAPE  H17R16368   2.250   3.079   9.194  0.9894  0.0938  2.5523
  148SAPE  H17S16369   2.360   3.214   9.136 -1.4251  2.7832 -0.1165
  148SAPE  C21816370   2.168   3.222   9.051 -0.3269 -0.7698 -0.4557
  148SAPE  H18R16371   2.226   3.199   8.959  2.3732  1.0027  0.6748
  148SAPE  H18S16372   2.142   3.329   9.038  0.9069 -0.1265  1.8856
  148SAPE  C21916373   2.040   3.135   9.058 -0.2403  0.9401  0.0385
  148SAPE  H19R16374   1.981   3.160   9.148 -0.9056 -0.1439 -0.0819
  148SAPE  H19S16375   2.082   3.034   9.078 -2.0844  0.1740  0.2356
  148SAPE  C22016376   1.960   3.127   8.933 -0.2723 -0.7798 -0.0616
  148SAPE  H20R16377   1.882   3.048   8.939  0.6958 -1.7239  0.4057
  148SAPE  H20S16378   2.026   3.107   8.846  0.2379  0.9458 -0.1088
  148SAPE  H20T16379   1.897   3.215   8.910 -0.9539 -1.6296 -1.5884
  148SAPE   C3316380   1.575   2.281  10.199 -0.3336  0.1814 -0.1132
  148SAPE   H3X16381   1.482   2.246  10.247 -0.0113 -2.1073 -1.0465
  148SAPE   H3Y16382   1.652   2.206  10.228  1.9576  2.2335 -0.5484
  148SAPE   C3416383   1.545   2.277  10.048  0.1336  0.2911 -0.6856
  148SAPE   H4X16384   1.471   2.355  10.023 -1.0328 -0.1223  1.2454
  148SAPE   H4Y16385   1.517   2.176  10.011  2.3182 -0.4664 -0.4273
  148SAPE   C3516386   1.666   2.316   9.959  0.7972  0.2064  0.0584
  148SAPE   H5X16387   1.751   2.255   9.997  1.5117  0.9419 -0.3062
  148SAPE   H5Y16388   1.704   2.420   9.965 -0.7417  0.8944 -1.2934
  148SAPE   C3616389   1.640   2.292   9.805 -0.6371  0.3853  0.1318
  148SAPE   H6X16390   1.555   2.354   9.770 -0.4364  0.1041 -0.8702
  148SAPE   H6Y16391   1.614   2.184   9.820 -0.5999  0.4376  0.5922
  148SAPE   C3716392   1.766   2.307   9.720 -1.0789 -0.2703 -0.1267
  148SAPE   H7X16393   1.848   2.288   9.792 -0.3898  0.4824 -0.6965
  148SAPE   H7Y16394   1.776   2.412   9.687 -0.7275 -0.6329 -1.2048
  148SAPE   C3816395   1.773   2.205   9.601  0.1215  0.1922  0.0937
  148SAPE   H8X16396   1.671   2.216   9.557 -0.5715  0.4611  1.6804
  148SAPE   H8Y16397   1.786   2.100   9.636 -2.9608  0.0844  1.2079
  148SAPE   C3916398   1.879   2.252   9.501  0.2347  1.6053 -1.0082
  148SAPE   H9X16399   1.977   2.228   9.548 -0.8292  0.2477  0.6397
  148SAPE   H9Y16400   1.878   2.363   9.494 -2.5834  1.9444  2.0645
  148SAPE  C31016401   1.863   2.190   9.370 -0.4679  0.0712 -0.2216
  148SAPE  H10X16402   1.755   2.199   9.350 -0.8018 -1.9788  0.4143
  148SAPE  H10Y16403   1.904   2.086   9.365 -0.4514  0.1063 -0.9397
  148SAPE  C31116404   1.937   2.263   9.262 -0.2958 -0.0811  0.0474
  148SAPE  H11X16405   2.046   2.245   9.278 -0.1429  0.1041 -0.7780
  148SAPE  H11Y16406   1.919   2.370   9.282 -1.7846 -0.4701  0.9710
  148SAPE  C31216407   1.898   2.215   9.125  0.4662 -0.1396 -0.1056
  148SAPE  H12X16408   1.926   2.107   9.120  0.7327 -0.1565  1.3826
  148SAPE  H12Y16409   1.963   2.270   9.055 -0.0255  1.5402  0.7178
  148SAPE  C31316410   1.743   2.224   9.078  0.5262 -0.5075  0.2347
  148SAPE  H13X16411   1.699   2.131   9.119  0.7365 -0.0524  1.5318
  148SAPE  H13Y16412   1.744   2.203   8.969  0.2693 -2.1436  0.5160
  148SAPE  C31416413   1.658   2.341   9.099  0.5217 -0.5026 -0.5237
  148SAPE  H14X16414   1.663   2.377   9.204 -0.7901 -3.0254  0.5077
  148SAPE  H14Y16415   1.553   2.309   9.082  0.8078 -2.1075  0.5273
  148SAPE  C31516416   1.702   2.452   9.005 -0.1075  0.4474  0.4139
  148SAPE  H15X16417   1.703   2.411   8.901  1.2334  1.8582 -0.1663
  148SAPE  H15Y16418   1.802   2.484   9.039  0.7832 -0.8640 -0.8745
  148SAPE  C31616419   1.595   2.562   9.003 -0.0368  0.0478  0.2029
  148SAPE  H16X16420   1.570   2.566   9.111 -1.9698  1.4422 -0.2398
  148SAPE  H16Y16421   1.497   2.541   8.957 -1.3886  1.5839  2.2172
  148SAPE  C31716422   1.658   2.700   8.968 -0.0033  0.2119 -0.3799
  148SAPE  H17X16423   1.685   2.709   8.860 -1.9971 -1.4245 -1.0674
  148SAPE  H17Y16424   1.746   2.728   9.030  0.3622  0.5230 -1.0173
  148SAPE  C31816425   1.550   2.807   8.991  0.6516 -0.8614  0.2610
  148SAPE  H18X16426   1.560   2.902   8.935 -0.1500 -0.2680  1.1004
  148SAPE  H18Y16427   1.547   2.826   9.100  1.4514 -1.9528  0.4892
  148SAPE  H18Z16428   1.447   2.778   8.958  0.2263  1.1908 -0.3438
  149SAPE     N16429   4.256   2.853  11.076 -0.1141  0.1016 -0.3563
  149SAPE   HN116430   4.178   2.818  11.016 -0.1987 -0.0759 -0.1428
  149SAPE   HN216431   4.311   2.767  11.095  0.7770  1.0702  1.7742
  149SAPE   HN316432   4.234   2.885  11.173  4.3649 -3.2284  2.1458
  149SAPE   C1216433   4.345   2.934  10.982 -0.1357  0.2649 -0.3536
  149SAPE  H12A16434   4.381   2.866  10.902 -3.3861 -2.8112  0.5392
  149SAPE  H12B16435   4.434   2.956  11.044 -0.8760 -0.5185  1.0273
  149SAPE   C1116436   4.281   3.047  10.916 -0.8236 -0.3671  0.0480
  149SAPE  H11A16437   4.194   3.003  10.861  0.7354 -0.7991 -2.2069
  149SAPE  H11B16438   4.349   3.084  10.836  2.2261 -0.2103  2.5386
  149SAPE     P16439   4.258   3.303  10.978  0.0504  0.2125 -0.1040
  149SAPE   O1316440   4.147   3.387  11.027 -0.1267 -0.6718 -0.8610
  149SAPE   O1416441   4.397   3.337  11.015  0.6763 -0.4702 -0.2447
  149SAPE   O1216442   4.231   3.151  11.001  0.4663  0.6525  0.5223
  149SAPE   O1116443   4.258   3.321  10.824  0.8208 -0.2155  0.0621
  149SAPE    C116444   4.141   3.280  10.744 -1.1869  0.9223  0.1684
  149SAPE    HA16445   4.151   3.174  10.713 -0.3052  1.3418 -1.0534
  149SAPE    HB16446   4.047   3.287  10.803  0.4132  0.9911  2.9174
  149SAPE    C216447   4.139   3.362  10.613  0.6584  0.0753 -0.2162
  149SAPE    HS16448   4.032   3.371  10.583  0.5876 -2.7182 -1.0817
  149SAPE   O2116449   4.203   3.291  10.508  0.0381  0.5306 -0.1078
  149SAPE   C2116450   4.139   3.208  10.443  0.3604  0.7151  0.1818
  149SAPE   O2216451   4.022   3.175  10.457 -0.1774 -0.1315 -0.6729
  149SAPE   C2216452   4.235   3.149  10.332  0.2793 -0.4924  0.1063
  149SAPE   H2R16453   4.331   3.134  10.386 -0.5708 -1.5062  1.4024
  149SAPE   H2S16454   4.204   3.046  10.305 -0.1426 -0.1163 -0.8717
  149SAPE    C316455   4.195   3.500  10.623 -0.4252 -0.5431 -0.6006
  149SAPE    HX16456   4.302   3.495  10.652 -0.3658 -0.4466 -0.7997
  149SAPE    HY16457   4.139   3.549  10.705 -3.8947 -2.4051 -1.6482
  149SAPE   O3116458   4.178   3.570  10.496 -0.4705 -0.2060  0.3655
  149SAPE   C3116459   4.199   3.704  10.511 -0.0385 -0.0380  0.5449
  149SAPE   O3216460   4.245   3.759  10.609 -0.1055 -0.0006  0.1041
  149SAPE   C3216461   4.149   3.764  10.380  0.0189 -0.3390  0.2718
  149SAPE   H2X16462   4.039   3.782  10.391  0.2468  0.6585  1.0475
  149SAPE   H2Y16463   4.163   3.697  10.292 -0.4311  0.5814 -0.5300
  149SAPE   C2316464   4.230   3.256  10.221 -0.0629 -0.0946  0.5263
  149SAPE   H3R16465   4.321   3.239  10.159  0.1184 -0.6611  0.9442
  149SAPE   H3S16466   4.243   3.362  10.254 -1.0207 -0.0471  0.7856
  149SAPE   C2416467   4.107   3.240  10.123 -0.4015 -0.2551 -0.0150
  149SAPE   H4R16468   4.096   3.328  10.056 -1.7833  0.6056  1.2710
  149SAPE   H4S16469   4.020   3.218  10.189 -0.7566  0.4660 -0.2361
  149SAPE   C2516470   4.136   3.116  10.044  0.9757  0.1599 -0.6238
  149SAPE   H5R16471   4.137   3.018  10.095 -0.2481 -0.3897 -1.5961
  149SAPE   C2616472   4.175   3.111   9.911  0.0078 -0.1652 -0.1939
  149SAPE   H6R16473   4.182   3.011   9.865 -1.1457  0.0234 -0.8351
  149SAPE   C2716474   4.182   3.218   9.797  0.1444  0.0916 -0.6246
  149SAPE   H7R16475   4.276   3.197   9.742  2.0979  1.3742  1.9969
  149SAPE   H7S16476   4.206   3.317   9.842  0.8658 -0.8952  1.2625
  149SAPE   C2816477   4.055   3.224   9.712 -0.0426 -0.2732  0.1532
  149SAPE   H8R16478   3.963   3.202   9.768  0.1394 -1.7095 -0.0659
  149SAPE   C2916479   4.051   3.259   9.577 -0.2411  0.8052  0.0118
  149SAPE   H9R16480   3.961   3.250   9.513  0.2884  4.0934 -1.3945
  149SAPE  C21016481   4.182   3.283   9.505  0.0414 -0.1025 -0.3594
  149SAPE  H10R16482   4.236   3.187   9.490  0.7276  0.2045  0.0899
  149SAPE  H10S16483   4.242   3.352   9.568  0.4340  0.3630 -1.2292
  149SAPE  C21116484   4.159   3.351   9.368  0.5384  1.0465 -0.4836
  149SAPE  H11R16485   4.063   3.404   9.356 -0.0106  0.0400 -0.6612
  149SAPE  C21216486   4.250   3.349   9.269  0.7141  0.0542  0.5016
  149SAPE  H12R16487   4.239   3.400   9.172 -0.1246  0.7079  0.9209
  149SAPE  C21316488   4.383   3.281   9.281 -0.0012  0.0318  0.5530
  149SAPE  H13R16489   4.413   3.283   9.388  0.4895 -0.7903  0.4432
  149SAPE  H13S16490   4.448   3.342   9.216  0.7605  0.5663  1.7729
  149SAPE  C21416491   4.397   3.134   9.238 -0.2506  0.0205 -0.3435
  149SAPE  H14R16492   4.400   3.058   9.319  1.8297 -2.9944 -3.0005
  149SAPE  C21516493   4.403   3.084   9.118  0.6122  0.3821  0.1260
  149SAPE  H15R16494   4.413   2.976   9.103 -0.5255  0.4816 -1.7472
  149SAPE  C21616495   4.387   3.166   8.996  0.5129  0.0366  0.3840
  149SAPE  H16R16496   4.455   3.132   8.915 -0.5903  0.1342 -0.6107
  149SAPE  H16S16497   4.403   3.274   9.016  1.5757  0.0987 -0.6695
  149SAPE  C21716498   4.239   3.148   8.955  0.0883 -0.4752 -0.0992
  149SAPE  H17R16499   4.175   3.178   9.041 -0.5896 -0.0234 -0.7458
  149SAPE  H17S16500   4.212   3.044   8.928 -0.2401 -0.1503 -1.1037
  149SAPE  C21816501   4.187   3.226   8.833  0.3616  0.3114 -0.2583
  149SAPE  H18R16502   4.077   3.213   8.841  0.4524 -1.0881 -0.9786
  149SAPE  H18S16503   4.219   3.174   8.740  0.9999  0.4171 -0.1014
  149SAPE  C21916504   4.239   3.372   8.828 -0.1467 -1.2756  0.1493
  149SAPE  H19R16505   4.346   3.384   8.802  0.0045 -0.3788  1.0998
  149SAPE  H19S16506   4.230   3.410   8.932 -1.8040  1.7974 -0.9719
  149SAPE  C22016507   4.143   3.459   8.743  0.7024  0.3628 -0.5062
  149SAPE  H20R16508   4.142   3.437   8.634  3.4943 -3.3204  0.0447
  149SAPE  H20S16509   4.160   3.568   8.760  2.2843  0.2898 -1.4377
  149SAPE  H20T16510   4.040   3.430   8.773  1.3949 -2.0079 -0.2500
  149SAPE   C3316511   4.188   3.915  10.348 -0.0894  1.0934 -0.2265
  149SAPE   H3X16512   4.150   3.965  10.440 -0.8065  0.2335 -0.0341
  149SAPE   H3Y16513   4.126   3.952  10.264  1.9745 -0.2044 -2.4504
  149SAPE   C3416514   4.339   3.920  10.329  0.0357  0.2864  0.6649
  149SAPE   H4X16515   4.389   3.895  10.425  0.8999  0.2818  0.2287
  149SAPE   H4Y16516   4.373   4.022  10.298  1.0737 -0.2895 -0.1753
  149SAPE   C3516517   4.384   3.827  10.210 -0.9222 -0.7783  0.2976
  149SAPE   H5X16518   4.376   3.721  10.243 -1.8570 -0.3554  1.5098
  149SAPE   H5Y16519   4.494   3.832  10.194 -0.3149 -4.2296  2.3606
  149SAPE   C3616520   4.327   3.855  10.070 -0.2107 -0.2050 -0.2598
  149SAPE   H6X16521   4.221   3.890  10.068 -0.1147  0.0936 -0.2091
  149SAPE   H6Y16522   4.327   3.761  10.012 -1.3875 -0.0582 -0.5350
  149SAPE   C3716523   4.401   3.953   9.989 -0.7895 -0.5325  0.5082
  149SAPE   H7X16524   4.509   3.930  10.001 -0.5653  0.5681  0.6940
  149SAPE   H7Y16525   4.388   4.053  10.035 -0.0561 -0.0363 -0.3359
  149SAPE   C3816526   4.383   3.924   9.837 -0.1017 -0.3342 -0.4786
  149SAPE   H8X16527   4.274   3.937   9.820 -0.2781 -0.0388  0.7604
  149SAPE   H8Y16528   4.420   3.821   9.818  1.1334  0.2331 -1.2545
  149SAPE   C3916529   4.465   4.013   9.746 -0.5786  0.7067 -0.0983
  149SAPE   H9X16530   4.571   3.990   9.770 -0.4014 -1.4787 -2.4822
  149SAPE   H9Y16531   4.454   4.121   9.768  1.1326  0.9175 -0.1460
  149SAPE  C31016532   4.436   3.979   9.603 -0.8039  0.3571  0.6115
  149SAPE  H10X16533   4.327   3.981   9.581 -0.8488 -2.8241 -0.0292
  149SAPE  H10Y16534   4.461   3.873   9.579  1.5787  1.2292 -1.1885
  149SAPE  C31116535   4.510   4.081   9.513  0.2915  0.2604  0.5621
  149SAPE  H11X16536   4.616   4.066   9.542  1.0402  0.0787 -2.0633
  149SAPE  H11Y16537   4.480   4.186   9.535  1.2761  0.3298  1.6873
  149SAPE  C31216538   4.460   4.061   9.371 -0.0470 -0.0405 -0.2333
  149SAPE  H12X16539   4.353   4.087   9.355  0.1622  0.2780 -1.1604
  149SAPE  H12Y16540   4.463   3.953   9.345 -0.9770  0.4259 -2.5694
  149SAPE  C31316541   4.549   4.137   9.274 -0.3939 -0.0234  0.5982
  149SAPE  H13X16542   4.653   4.101   9.266 -0.4551 -0.4947  1.7974
  149SAPE  H13Y16543   4.547   4.247   9.294 -1.8738  0.1905 -0.5487
  149SAPE  C31416544   4.493   4.130   9.129 -0.2275 -0.3835  0.6921
  149SAPE  H14X16545   4.388   4.165   9.125 -0.4399 -0.9450  1.0851
  149SAPE  H14Y16546   4.495   4.023   9.096 -0.3990 -0.7872  1.9272
  149SAPE  C31516547   4.588   4.214   9.034  0.1630  0.0455  0.2516
  149SAPE  H15X16548   4.693   4.181   9.041  0.3029  0.2525 -0.7116
  149SAPE  H15Y16549   4.569   4.318   9.069  0.4335  0.5912 -1.1280
  149SAPE  C31616550   4.550   4.215   8.884 -0.4451  0.4905  1.1325
  149SAPE  H16X16551   4.632   4.253   8.819 -1.6887 -0.3971 -1.0564
  149SAPE  H16Y16552   4.456   4.269   8.863 -0.8719 -0.5581  0.2206
  149SAPE  C31716553   4.523   4.079   8.820  0.1233  0.4548  0.0690
  149SAPE  H17X16554   4.435   4.035   8.870  0.6159  1.4832  1.9551
  149SAPE  H17Y16555   4.606   4.010   8.847  0.4287  0.8776  0.2233
  149SAPE  C31816556   4.512   4.090   8.664  0.1443  0.6407 -0.6078
  149SAPE  H18X16557   4.425   4.158   8.649  1.2425  1.9262 -1.4440
  149SAPE  H18Y16558   4.486   3.992   8.620  1.7830 -0.6743  1.1971
  149SAPE  H18Z16559   4.606   4.124   8.616 -0.3411  0.9687 -1.3452
  150SAPE     N16560   6.389   2.510  10.748  0.3129  0.7471  0.3270
  150SAPE   HN116561   6.483   2.473  10.720  0.8761  1.7793  0.7851
  150SAPE   HN216562   6.416   2.591  10.807  1.7320 -0.0528  0.8247
  150SAPE   HN316563   6.332   2.435  10.789 -1.0077  0.8248 -1.2562
  150SAPE   C1216564   6.318   2.572  10.631 -0.5483 -0.0934 -0.2210
  150SAPE  H12A16565   6.298   2.490  10.559 -0.4239 -2.4442  2.2524
  150SAPE  H12B16566   6.383   2.647  10.581 -0.8573 -0.4521 -1.1723
  150SAPE   C1116567   6.184   2.641  10.671 -0.2676 -0.3929 -0.8176
  150SAPE  H11A16568   6.118   2.573  10.728  1.5194 -1.0162  0.5944
  150SAPE  H11B16569   6.132   2.665  10.576 -1.2220 -0.8432 -0.4115
  150SAPE     P16570   6.115   2.886  10.732 -0.0816 -0.1095 -0.0405
  150SAPE   O1316571   5.979   2.833  10.710  0.4138  0.0297 -0.0011
  150SAPE   O1416572   6.133   2.975  10.849 -0.3996 -0.0653 -0.0838
  150SAPE   O1216573   6.212   2.757  10.749 -0.1078 -0.2000  0.1635
  150SAPE   O1116574   6.163   2.946  10.600 -0.0692 -0.5012  0.1079
  150SAPE    C116575   6.303   2.989  10.588  0.1586 -0.1536  0.4804
  150SAPE    HA16576   6.318   3.083  10.646 -0.0781 -1.2924  2.5106
  150SAPE    HB16577   6.377   2.914  10.625 -1.1550 -1.7635 -0.0161
  150SAPE    C216578   6.341   3.003  10.439  0.1166 -0.0504  0.3926
  150SAPE    HS16579   6.445   3.040  10.438  0.4727 -0.9966  0.9074
  150SAPE   O2116580   6.244   3.075  10.354 -0.2710  0.5907  0.3411
  150SAPE   C2116581   6.268   3.198  10.343 -0.4694 -0.8665 -0.5042
  150SAPE   O2216582   6.359   3.255  10.402  0.0664  0.9145  0.0959
  150SAPE   C2216583   6.166   3.259  10.242 -1.1135 -0.3244 -1.1960
  150SAPE   H2R16584   6.104   3.179  10.197  0.8221 -1.5149 -1.8344
  150SAPE   H2S16585   6.087   3.313  10.298 -1.0629 -1.6840  0.2338
  150SAPE    C316586   6.354   2.858  10.382 -0.7877 -0.5774 -0.1244
  150SAPE    HX16587   6.259   2.805  10.407 -0.2513 -1.6884 -0.3730
  150SAPE    HY16588   6.434   2.801  10.434 -1.3492  0.5091  2.0123
  150SAPE   O3116589   6.379   2.856  10.240 -0.0570  0.8533  0.2301
  150SAPE   C3116590   6.278   2.869  10.151  0.7773 -0.2447 -0.4253
  150SAPE   O3216591   6.160   2.866  10.185 -0.0045  0.2019 -0.0129
  150SAPE   C3216592   6.327   2.911  10.017 -0.1484  0.6701 -0.1366
  150SAPE   H2X16593   6.410   2.846   9.984  0.7142  1.7814 -0.2191
  150SAPE   H2Y16594   6.368   3.015  10.018  0.9135  0.2800  1.5280
  150SAPE   C2316595   6.222   3.337  10.121  0.4791 -0.3416  0.6796
  150SAPE   H3R16596   6.145   3.311  10.045  1.0786  0.5961 -0.2881
  150SAPE   H3S16597   6.322   3.309  10.081  0.7617  2.4745 -0.8059
  150SAPE   C2416598   6.200   3.486  10.130  0.0772 -0.3197 -0.9493
  150SAPE   H4R16599   6.095   3.509  10.160  0.3213 -1.8933  1.3396
  150SAPE   H4S16600   6.203   3.536  10.031 -0.7921 -1.6636 -1.6822
  150SAPE   C2516601   6.294   3.553  10.228  0.2907 -0.4888 -0.5172
  150SAPE   H5R16602   6.310   3.510  10.328 -1.3459  1.5451  0.6960
  150SAPE   C2616603   6.376   3.654  10.199 -0.1129 -0.0932  0.0473
  150SAPE   H6R16604   6.427   3.700  10.285  2.7599 -2.6538 -0.1216
  150SAPE   C2716605   6.397   3.724  10.066 -0.5970 -0.4897  0.2420
  150SAPE   H7R16606   6.443   3.824  10.083 -2.6854  0.1225  3.1945
  150SAPE   H7S16607   6.303   3.758  10.016  0.4549  1.0243 -0.7994
  150SAPE   C2816608   6.487   3.631   9.986  0.1906  0.7047  0.3955
  150SAPE   H8R16609   6.578   3.600  10.040 -0.6751  0.7434  1.9432
  150SAPE   C2916610   6.475   3.599   9.857  0.1027 -0.5297 -0.2633
  150SAPE   H9R16611   6.537   3.524   9.806  0.2909 -0.2503 -0.4469
  150SAPE  C21016612   6.368   3.663   9.769 -0.3552  0.7644  0.1210
  150SAPE  H10R16613   6.392   3.644   9.663  0.3651  0.1437  0.3887
  150SAPE  H10S16614   6.367   3.773   9.781 -0.6185  0.6318  1.4746
  150SAPE  C21116615   6.229   3.605   9.793  0.0421 -0.1638  0.3321
  150SAPE  H11R16616   6.181   3.657   9.877 -1.8533  1.6281 -1.7197
  150SAPE  C21216617   6.168   3.501   9.738  0.2802 -0.5398 -0.2036
  150SAPE  H12R16618   6.061   3.487   9.762 -0.1460 -0.2960 -1.8544
  150SAPE  C21316619   6.226   3.407   9.638  0.0517 -0.0498 -0.1860
  150SAPE  H13R16620   6.156   3.321   9.642 -0.0832  0.0834  2.9403
  150SAPE  H13S16621   6.321   3.365   9.677 -0.1684  0.3148  0.7615
  150SAPE  C21416622   6.233   3.465   9.496  0.1169  0.3804 -0.7789
  150SAPE  H14R16623   6.195   3.568   9.484 -0.2022  0.2714 -0.7153
  150SAPE  C21516624   6.297   3.414   9.396 -0.2500  0.3290 -0.5309
  150SAPE  H15R16625   6.294   3.459   9.296  4.1271 -1.0069 -1.4954
  150SAPE  C21616626   6.370   3.277   9.402 -0.7447  0.3492  0.0989
  150SAPE  H16R16627   6.314   3.203   9.341 -1.0319  1.1741 -0.6673
  150SAPE  H16S16628   6.357   3.236   9.504  1.4789 -0.0828  0.2447
  150SAPE  C21716629   6.525   3.280   9.357  0.1940  0.2758  0.0548
  150SAPE  H17R16630   6.569   3.179   9.374 -1.2634 -0.0343  2.4866
  150SAPE  H17S16631   6.588   3.340   9.426 -0.2252  1.4904 -0.5990
  150SAPE  C21816632   6.552   3.309   9.204  0.0368 -1.0614 -0.4766
  150SAPE  H18R16633   6.511   3.407   9.172  1.5373 -0.6499 -1.2324
  150SAPE  H18S16634   6.479   3.240   9.156 -0.3779 -0.9846  0.0361
  150SAPE  C21916635   6.690   3.300   9.146  0.1053 -0.1981 -0.2241
  150SAPE  H19R16636   6.752   3.210   9.164  0.6412 -0.2012 -1.9498
  150SAPE  H19S16637   6.749   3.382   9.193  1.6091 -0.4079 -1.6684
  150SAPE  C22016638   6.687   3.325   8.994  0.7797 -0.8254  0.5350
  150SAPE  H20R16639   6.697   3.433   8.969 -1.3137 -0.9138 -0.9724
  150SAPE  H20S16640   6.590   3.295   8.949 -0.8978  1.1421  2.5884
  150SAPE  H20T16641   6.770   3.276   8.940 -0.5818 -0.0549 -2.4317
  150SAPE   C3316642   6.209   2.883   9.916 -0.4025  0.0207  0.3795
  150SAPE   H3X16643   6.134   2.964   9.925 -0.7460 -0.2175 -0.2461
  150SAPE   H3Y16644   6.157   2.787   9.932 -0.6421  0.2775  1.1916
  150SAPE   C3416645   6.258   2.865   9.772 -0.0758 -0.2681  0.2085
  150SAPE   H4X16646   6.176   2.842   9.700  1.1214 -0.8538 -1.0101
  150SAPE   H4Y16647   6.322   2.774   9.768  2.5940  1.4909  0.5720
  150SAPE   C3516648   6.333   2.986   9.716 -0.4497  0.5837  0.6240
  150SAPE   H5X16649   6.404   3.027   9.791 -1.7592  1.6672  1.3396
  150SAPE   H5Y16650   6.256   3.066   9.702 -2.6541 -0.8890  3.1968
  150SAPE   C3616651   6.410   2.958   9.583 -0.4270 -0.2328 -0.2754
  150SAPE   H6X16652   6.483   2.876   9.601 -0.0906 -0.2334 -1.5301
  150SAPE   H6Y16653   6.463   3.051   9.552 -1.6352  0.7064  0.3852
  150SAPE   C3716654   6.323   2.914   9.463 -0.0158 -0.2779  1.0536
  150SAPE   H7X16655   6.254   3.000   9.450  0.0716 -0.2736  0.6106
  150SAPE   H7Y16656   6.257   2.826   9.482  0.1671 -0.4887  0.7247
  150SAPE   C3816657   6.410   2.903   9.334 -0.2470 -0.1343 -0.0219
  150SAPE   H8X16658   6.493   2.830   9.345 -2.0357 -2.1582  0.7138
  150SAPE   H8Y16659   6.465   2.999   9.327  1.2141 -0.6570  2.7614
  150SAPE   C3916660   6.332   2.877   9.206 -0.6621 -0.3714 -0.1778
  150SAPE   H9X16661   6.259   2.956   9.181 -1.2024 -0.5878  0.6658
  150SAPE   H9Y16662   6.270   2.785   9.216 -1.8687  0.6457  2.9261
  150SAPE  C31016663   6.423   2.858   9.082 -0.0962 -0.4164 -0.6101
  150SAPE  H10X16664   6.480   2.764   9.094 -1.1055 -1.2193 -1.8132
  150SAPE  H10Y16665   6.499   2.938   9.070  0.9186 -1.1539  0.6745
  150SAPE  C31116666   6.342   2.857   8.950  0.3320 -0.7400 -0.7412
  150SAPE  H11X16667   6.278   2.766   8.949  0.1960 -0.6464 -0.6312
  150SAPE  H11Y16668   6.409   2.853   8.862  1.0651  0.5030 -0.2690
  150SAPE  C31216669   6.260   2.985   8.920 -0.0521  0.5922 -0.2095
  150SAPE  H12X16670   6.179   3.006   8.994  0.1487  1.3092 -0.1784
  150SAPE  H12Y16671   6.207   2.960   8.826  1.3285 -1.0626 -0.5979
  150SAPE  C31316672   6.333   3.122   8.899  0.9000  0.2086  0.1769
  150SAPE  H13X16673   6.389   3.102   8.805  2.1850 -2.4063  1.3885
  150SAPE  H13Y16674   6.405   3.138   8.983 -0.2570 -1.9895  1.6793
  150SAPE  C31416675   6.238   3.240   8.894  1.2175  0.4687  0.2137
  150SAPE  H14X16676   6.144   3.215   8.841  1.5227  2.1140 -1.1647
  150SAPE  H14Y16677   6.293   3.317   8.837 -2.6626  1.8198 -2.0897
  150SAPE  C31516678   6.198   3.301   9.030 -0.5386 -0.1344 -0.9794
  150SAPE  H15X16679   6.294   3.313   9.085 -2.4628  3.3364  2.0223
  150SAPE  H15Y16680   6.138   3.231   9.092  2.2636 -2.9921 -1.1763
  150SAPE  C31616681   6.149   3.448   9.028 -0.8641 -0.2625  0.8391
  150SAPE  H16X16682   6.090   3.479   9.117 -3.1376 -1.6620 -0.0807
  150SAPE  H16Y16683   6.079   3.444   8.941  0.7634  3.7298 -0.9519
  150SAPE  C31716684   6.262   3.553   8.989 -0.2853 -0.8755  0.2338
  150SAPE  H17X16685   6.313   3.524   8.894 -1.2118  0.4201 -0.6969
  150SAPE  H17Y16686   6.334   3.559   9.074  0.9233  2.8308 -0.8606
  150SAPE  C31816687   6.209   3.696   8.972  0.0206 -0.0337 -0.1932
  150SAPE  H18X16688   6.287   3.776   8.973  0.7950 -0.7759  0.7907
  150SAPE  H18Y16689   6.139   3.723   9.053  0.7095 -0.8810  0.7045
  150SAPE  H18Z16690   6.158   3.706   8.874  2.1736  0.8473 -1.3012
  151SAPE     N16691   3.411   0.513  10.560  0.1692  0.2061 -0.1591
  151SAPE   HN116692   3.345   0.496  10.638 -1.2338 -1.8008 -1.6675
  151SAPE   HN216693   3.489   0.573  10.591  0.1382 -0.1254  0.5683
  151SAPE   HN316694   3.358   0.560  10.483 -0.6501  3.0071  1.9466
  151SAPE   C1216695   3.450   0.375  10.520 -0.9596 -0.5348 -0.5420
  151SAPE  H12A16696   3.487   0.322  10.610 -1.9138  0.5372  0.5185
  151SAPE  H12B16697   3.533   0.387  10.447  0.0283  1.7685  0.8370
  151SAPE   C1116698   3.332   0.310  10.441  0.4620  0.2666  0.0054
  151SAPE  H11A16699   3.357   0.203  10.427 -0.3139  0.0362  0.3116
  151SAPE  H11B16700   3.331   0.366  10.345  0.7246  3.8600  1.9493
  151SAPE     P16701   3.124   0.197  10.553 -0.0735  0.1564  0.1346
  151SAPE   O1316702   3.218   0.088  10.590 -0.0557 -0.1364  0.3175
  151SAPE   O1416703   3.025   0.236  10.654  0.1152 -0.3181  0.6897
  151SAPE   O1216704   3.201   0.322  10.510 -0.7217 -0.6905  0.1628
  151SAPE   O1116705   3.053   0.146  10.421 -0.3006 -0.1740 -0.1620
  151SAPE    C116706   2.998   0.249  10.334 -0.1084 -0.1150  0.4504
  151SAPE    HA16707   3.077   0.317  10.296  1.1827 -0.8436  1.7108
  151SAPE    HB16708   2.969   0.194  10.242  0.8658  0.1704 -0.0409
  151SAPE    C216709   2.869   0.330  10.378  0.5177 -0.1536 -0.6431
  151SAPE    HS16710   2.863   0.325  10.489  0.9995  1.0306 -0.5505
  151SAPE   O2116711   2.754   0.280  10.311  0.0039 -0.8673 -0.3362
  151SAPE   C2116712   2.636   0.327  10.345 -0.1526 -0.8851  0.6507
  151SAPE   O2216713   2.614   0.404  10.438 -0.2336  0.0382 -0.7018
  151SAPE   C2216714   2.533   0.252  10.258  0.5688 -0.1894 -0.9051
  151SAPE   H2R16715   2.451   0.212  10.320  2.4464  1.0075  2.5965
  151SAPE   H2S16716   2.496   0.325  10.183  0.6451 -1.5748 -2.3603
  151SAPE    C316717   2.883   0.483  10.348  0.2090 -0.0965  0.2823
  151SAPE    HX16718   2.976   0.527  10.391  0.1264  0.1911  0.1667
  151SAPE    HY16719   2.800   0.536  10.398 -0.9056  0.1471 -1.7643
  151SAPE   O3116720   2.877   0.506  10.204  0.2988  0.0931  0.0754
  151SAPE   C3116721   2.966   0.576  10.142 -0.2596  0.2751 -0.3445
  151SAPE   O3216722   3.052   0.646  10.192  0.0268  0.3400 -0.0430
  151SAPE   C3216723   2.948   0.573   9.995 -0.4946  0.2734  0.2703
  151SAPE   H2X16724   3.049   0.578   9.950  0.1557 -2.7597  1.1331
  151SAPE   H2Y16725   2.891   0.662   9.963  0.4559  0.4381 -1.0056
  151SAPE   C2316726   2.601   0.138  10.165  0.0672 -0.1285  0.3068
  151SAPE   H3R16727   2.646   0.061  10.231 -0.4754  2.0700  3.4826
  151SAPE   H3S16728   2.679   0.175  10.095 -0.4867 -3.1050 -2.0806
  151SAPE   C2416729   2.509   0.070  10.069 -0.4590  0.2236  0.3089
  151SAPE   H4R16730   2.425   0.018  10.121 -0.6489 -1.2753 -1.3824
  151SAPE   H4S16731   2.559  -0.011  10.010  3.0911 -0.1035  3.3950
  151SAPE   C2516732   2.441   0.163   9.978  0.5372 -0.7687  0.1017
  151SAPE   H5R16733   2.361   0.224  10.022 -0.2615 -1.2062 -0.7252
  151SAPE   C2616734   2.458   0.184   9.842 -0.0796 -0.4441 -0.4614
  151SAPE   H6R16735   2.393   0.255   9.789 -1.6793 -3.9137 -3.5936
  151SAPE   C2716736   2.548   0.100   9.760  0.0623 -1.0751 -0.8487
  151SAPE   H7R16737   2.493   0.009   9.727 -1.5693 -0.8145  0.9669
  151SAPE   H7S16738   2.623   0.059   9.830 -1.1252 -0.7196  0.6998
  151SAPE   C2816739   2.607   0.174   9.643 -0.3152  0.4440  0.1951
  151SAPE   H8R16740   2.674   0.259   9.665  1.5180 -1.1826  1.2023
  151SAPE   C2916741   2.587   0.149   9.511 -0.6152 -0.1146 -0.0317
  151SAPE   H9R16742   2.642   0.206   9.434 -1.4547 -0.0327 -0.5969
  151SAPE  C21016743   2.509   0.034   9.451 -0.2494 -0.0723  0.3271
  151SAPE  H10R16744   2.401   0.058   9.453 -0.4173 -0.8506  1.4038
  151SAPE  H10S16745   2.513  -0.051   9.523 -3.6633 -0.6377  0.0296
  151SAPE  C21116746   2.549  -0.014   9.312  0.1921 -0.2561  0.7121
  151SAPE  H11R16747   2.657  -0.032   9.298  0.3791 -0.2579  2.0099
  151SAPE  C21216748   2.467  -0.032   9.205 -0.4483 -0.0298 -0.5075
  151SAPE  H12R16749   2.521  -0.071   9.117  1.6568 -0.2858  0.8201
  151SAPE  C21316750   2.322  -0.006   9.205  0.3098 -0.7573 -0.3257
  151SAPE  H13R16751   2.315   0.099   9.171  0.8391 -0.2391  1.0761
  151SAPE  H13S16752   2.269  -0.002   9.303  0.4960 -1.2159 -0.2044
  151SAPE  C21416753   2.252  -0.104   9.127  1.0489 -1.1033 -0.1793
  151SAPE  H14R16754   2.195  -0.175   9.187 -1.0506 -1.0602 -1.9867
  151SAPE  C21516755   2.238  -0.103   8.995  0.1916 -0.0429 -0.3831
  151SAPE  H15R16756   2.167  -0.177   8.954  0.5695  0.4146 -1.9525
  151SAPE  C21616757   2.284  -0.005   8.894 -0.0146 -0.3097 -0.0316
  151SAPE  H16R16758   2.356  -0.066   8.836 -0.9551 -0.7036 -0.8238
  151SAPE  H16S16759   2.352   0.072   8.937  1.2640 -0.9638 -0.8605
  151SAPE  C21716760   2.183   0.065   8.806 -0.1214 -0.1973  0.3220
  151SAPE  H17R16761   2.132  -0.003   8.736 -0.5275  0.0409  0.3860
  151SAPE  H17S16762   2.247   0.127   8.740  0.7680 -0.5113  0.8669
  151SAPE  C21816763   2.085   0.147   8.895  0.0517  0.5278  0.1813
  151SAPE  H18R16764   2.137   0.209   8.972 -0.5209  0.2960  0.7644
  151SAPE  H18S16765   2.020   0.080   8.955  1.0187 -0.0719  0.5942
  151SAPE  C21916766   2.006   0.234   8.803  0.2321  0.6083 -0.0629
  151SAPE  H19R16767   1.927   0.280   8.867  1.4474  0.8975  1.2807
  151SAPE  H19S16768   1.961   0.171   8.724  1.8274  2.1153 -2.3207
  151SAPE  C22016769   2.072   0.355   8.736  1.3276 -0.4232 -0.0637
  151SAPE  H20R16770   2.156   0.332   8.667  0.9535  1.1068 -1.0680
  151SAPE  H20S16771   2.126   0.422   8.806  1.1585 -0.7938  0.4250
  151SAPE  H20T16772   1.999   0.419   8.681  2.0255  0.2797 -0.1889
  151SAPE   C3316773   2.880   0.444   9.942  0.2316  0.4079  0.6296
  151SAPE   H3X16774   2.772   0.461   9.920 -0.1149 -2.0330  0.1812
  151SAPE   H3Y16775   2.875   0.365  10.020 -2.8331 -2.6921 -2.3447
  151SAPE   C3416776   2.948   0.384   9.813  0.7864  0.3388  0.3563
  151SAPE   H4X16777   2.873   0.312   9.774  1.5887  0.3121 -1.2157
  151SAPE   H4Y16778   3.042   0.332   9.839  0.4599 -0.1886  0.4859
  151SAPE   C3516779   2.968   0.494   9.710 -0.2598  0.0174 -0.4180
  151SAPE   H5X16780   3.061   0.550   9.734 -2.0546  2.1406  2.1650
  151SAPE   H5Y16781   2.883   0.564   9.725 -0.0987  0.1772 -0.2594
  151SAPE   C3616782   2.964   0.459   9.558 -0.5581 -0.5496 -0.0722
  151SAPE   H6X16783   2.991   0.549   9.499  1.8775 -0.8206  0.5162
  151SAPE   H6Y16784   2.865   0.416   9.531 -0.4367 -1.7933  1.3030
  151SAPE   C3716785   3.070   0.353   9.527  1.6170 -0.0375  0.5811
  151SAPE   H7X16786   3.028   0.257   9.563 -2.8297  1.2070 -0.5798
  151SAPE   H7Y16787   3.166   0.373   9.579  1.4085 -1.6152  1.6206
  151SAPE   C3816788   3.098   0.330   9.379 -0.7380 -0.5186  0.2192
  151SAPE   H8X16789   3.200   0.287   9.365 -1.1436 -1.2293 -0.6275
  151SAPE   H8Y16790   3.091   0.415   9.308 -0.1752 -1.1857 -0.6530
  151SAPE   C3916791   2.996   0.232   9.313  0.0636  0.5736 -0.1220
  151SAPE   H9X16792   2.889   0.258   9.321 -1.4707 -4.9656  1.6881
  151SAPE   H9Y16793   2.983   0.143   9.378 -3.2130  0.9344 -0.1633
  151SAPE  C31016794   3.043   0.177   9.180  0.2823 -0.1254 -0.0015
  151SAPE  H10X16795   3.144   0.134   9.193 -0.9917 -3.0776  1.1024
  151SAPE  H10Y16796   3.052   0.265   9.113 -3.2273 -0.8207 -1.6347
  151SAPE  C31116797   2.953   0.067   9.117  0.0731 -0.2864  0.3545
  151SAPE  H11X16798   2.911   0.013   9.205  3.4138  0.5449  2.6583
  151SAPE  H11Y16799   3.002  -0.004   9.047  0.0792 -0.0704  0.1403
  151SAPE  C31216800   2.837   0.115   9.032 -0.2069  0.3067  0.2806
  151SAPE  H12X16801   2.785   0.021   9.004  2.1086 -0.8001 -0.5009
  151SAPE  H12Y16802   2.879   0.154   8.937 -1.0451 -0.9723 -0.6559
  151SAPE  C31316803   2.751   0.212   9.104  0.5061 -0.8728 -0.5095
  151SAPE  H13X16804   2.807   0.306   9.123 -2.8172  0.6560  2.9525
  151SAPE  H13Y16805   2.725   0.178   9.206  0.7974 -0.1179 -0.1792
  151SAPE  C31416806   2.622   0.249   9.033 -0.0796 -0.0026  0.4714
  151SAPE  H14X16807   2.551   0.305   9.098 -1.7288  0.8363 -1.9091
  151SAPE  H14Y16808   2.573   0.156   8.997  1.5136  0.1648 -2.4782
  151SAPE  C31516809   2.643   0.343   8.920 -0.7828  0.5457  0.3312
  151SAPE  H15X16810   2.715   0.305   8.844  2.1378 -1.1118  3.6827
  151SAPE  H15Y16811   2.685   0.435   8.967  0.3195 -1.4343  3.5170
  151SAPE  C31616812   2.511   0.393   8.851  0.7566  0.6495  0.3848
  151SAPE  H16X16813   2.441   0.434   8.927  0.3566 -2.2139  1.6791
  151SAPE  H16Y16814   2.467   0.301   8.808  0.0778  1.3729 -0.4855
  151SAPE  C31716815   2.534   0.501   8.744  0.0520 -0.5930  0.7222
  151SAPE  H17X16816   2.432   0.516   8.703  0.4294 -3.1240 -1.4634
  151SAPE  H17Y16817   2.603   0.465   8.665  0.6248  1.2122  0.3647
  151SAPE  C31816818   2.591   0.637   8.790  0.1822 -0.4718  0.5494
  151SAPE  H18X16819   2.698   0.639   8.820  0.5191  2.8717 -0.4156
  151SAPE  H18Y16820   2.523   0.685   8.864 -1.5439 -0.9494 -0.6669
  151SAPE  H18Z16821   2.594   0.704   8.701  2.0236 -1.3827 -0.1322
  152SAPE     N16822   4.114   4.303  10.973 -0.0368  0.1436 -0.2873
  152SAPE   HN116823   4.150   4.368  11.046 -1.1006 -1.0584  1.3612
  152SAPE   HN216824   4.194   4.242  10.946 -0.1278  0.2175 -0.7295
  152SAPE   HN316825   4.082   4.350  10.885  0.5838 -0.3756 -0.8039
  152SAPE   C1216826   4.006   4.219  11.040 -0.6867 -0.1235  0.3091
  152SAPE  H12A16827   4.039   4.208  11.146 -0.9790 -0.8616  0.3331
  152SAPE  H12B16828   4.011   4.121  10.988  0.9226 -0.2320  0.5921
  152SAPE   C1116829   3.863   4.279  11.028  0.6910  0.0789 -0.4803
  152SAPE  H11A16830   3.859   4.389  11.048  0.5873  0.3348 -1.8203
  152SAPE  H11B16831   3.797   4.238  11.107  0.2587  0.3710 -0.6864
  152SAPE     P16832   3.770   4.345  10.777  0.2657  0.2629  0.3663
  152SAPE   O1316833   3.799   4.485  10.817  0.2908  0.2125 -0.3271
  152SAPE   O1416834   3.831   4.300  10.651  0.5113 -0.4296  0.2116
  152SAPE   O1216835   3.811   4.246  10.895 -0.3336  0.0107 -0.7335
  152SAPE   O1116836   3.613   4.313  10.775 -0.7256 -0.0017 -0.3513
  152SAPE    C116837   3.563   4.182  10.820 -0.0561 -0.6013 -0.1289
  152SAPE    HA16838   3.599   4.154  10.922 -0.3585  1.4633  0.5902
  152SAPE    HB16839   3.454   4.201  10.830  0.2198  1.7188 -0.8801
  152SAPE    C216840   3.591   4.065  10.726  0.1019  0.9513 -0.1656
  152SAPE    HS16841   3.697   4.037  10.744  0.2158  1.4929  0.0335
  152SAPE   O2116842   3.577   4.101  10.584 -0.6523  0.2109  0.5907
  152SAPE   C2116843   3.674   4.066  10.504  0.1979  0.3863  0.1496
  152SAPE   O2216844   3.765   3.987  10.526 -0.0737 -0.1659  0.4725
  152SAPE   C2216845   3.656   4.125  10.367  0.5257 -0.2661  0.0497
  152SAPE   H2R16846   3.547   4.143  10.356  0.4346 -1.7365 -1.9594
  152SAPE   H2S16847   3.712   4.220  10.364 -0.4829  0.3617 -3.4005
  152SAPE    C316848   3.491   3.945  10.751 -0.0376 -0.3572 -0.4176
  152SAPE    HX16849   3.388   3.986  10.737  0.9542  1.8173 -1.8645
  152SAPE    HY16850   3.500   3.920  10.859  0.4902  0.4219 -0.2738
  152SAPE   O3116851   3.514   3.831  10.662  0.0674  0.3393 -0.2794
  152SAPE   C3116852   3.628   3.763  10.693  0.2494  0.2783  0.1875
  152SAPE   O3216853   3.691   3.780  10.794  0.2330 -0.4674  0.2874
  152SAPE   C3216854   3.654   3.669  10.583 -0.2073 -0.4490  0.6052
  152SAPE   H2X16855   3.634   3.721  10.487 -2.2751 -0.1665  1.1412
  152SAPE   H2Y16856   3.594   3.575  10.585  0.8492 -1.2087 -0.7566
  152SAPE   C2316857   3.703   4.039  10.244  0.3352  0.0505 -0.3079
  152SAPE   H3R16858   3.649   4.093  10.163  2.3908  2.3187 -0.2694
  152SAPE   H3S16859   3.657   3.939  10.256 -0.2093  0.3174 -0.1580
  152SAPE   C2416860   3.855   4.039  10.245  0.4270  0.3102  0.4038
  152SAPE   H4R16861   3.900   3.972  10.321  0.6609 -0.3194 -0.2772
  152SAPE   H4S16862   3.875   4.141  10.284 -0.4487  0.6404  0.0298
  152SAPE   C2516863   3.925   3.998  10.116  0.3321 -0.4367  0.1668
  152SAPE   H5R16864   3.891   3.899  10.081 -1.2730 -0.2717  1.1237
  152SAPE   C2616865   4.012   4.074  10.043 -0.3827  0.6924 -0.6235
  152SAPE   H6R16866   4.061   4.024   9.958  0.7840  0.9500 -0.1114
  152SAPE   C2716867   4.042   4.215  10.065  0.9939  0.4533 -0.4387
  152SAPE   H7R16868   3.946   4.270  10.079  1.6043  1.4491  0.0243
  152SAPE   H7S16869   4.086   4.255   9.971  2.8125 -2.0782 -0.7433
  152SAPE   C2816870   4.130   4.234  10.192 -0.5733  0.3816  1.0790
  152SAPE   H8R16871   4.128   4.161  10.274  1.0467  2.1394  2.8067
  152SAPE   C2916872   4.225   4.328  10.203 -0.6531  0.0464 -0.0137
  152SAPE   H9R16873   4.279   4.320  10.298 -0.8386  0.8912  0.1692
  152SAPE  C21016874   4.260   4.438  10.106  1.0619  0.4754 -0.5895
  152SAPE  H10R16875   4.321   4.514  10.159  1.8036 -0.1128 -0.5854
  152SAPE  H10S16876   4.164   4.486  10.075 -0.0829  0.2829  2.3061
  152SAPE  C21116877   4.338   4.388   9.990  0.0542 -0.9691 -1.2861
  152SAPE  H11R16878   4.295   4.301   9.938  2.6991 -1.0464 -3.5938
  152SAPE  C21216879   4.438   4.463   9.927  0.5893  0.6552 -0.3550
  152SAPE  H12R16880   4.495   4.402   9.855 -2.0616 -1.1090 -1.1108
  152SAPE  C21316881   4.494   4.603   9.967 -0.2910  0.0113  0.4573
  152SAPE  H13R16882   4.586   4.588  10.027  0.5769  0.1406 -0.8132
  152SAPE  H13S16883   4.418   4.657  10.027 -3.3271 -0.9861 -2.2134
  152SAPE  C21416884   4.537   4.692   9.853  0.1786 -0.4880 -0.8874
  152SAPE  H14R16885   4.627   4.746   9.887  0.7618 -2.5202  1.0363
  152SAPE  C21516886   4.488   4.722   9.725  0.3439 -0.1892  0.5451
  152SAPE  H15R16887   4.546   4.788   9.659  1.2021 -3.0086 -1.7088
  152SAPE  C21616888   4.356   4.663   9.669  0.7677  0.4131 -0.3779
  152SAPE  H16R16889   4.307   4.757   9.637  1.5915  2.0514  2.7400
  152SAPE  H16S16890   4.303   4.600   9.744 -0.0483 -1.6241 -2.5464
  152SAPE  C21716891   4.381   4.569   9.541  0.3580  0.1103  0.0947
  152SAPE  H17R16892   4.281   4.566   9.494  0.5038  0.4616 -0.2468
  152SAPE  H17S16893   4.423   4.469   9.564  0.9709  0.0722 -1.1324
  152SAPE  C21816894   4.469   4.632   9.436 -0.0110 -0.1237 -0.1359
  152SAPE  H18R16895   4.570   4.640   9.482  0.0138  0.9538 -0.3459
  152SAPE  H18S16896   4.434   4.736   9.418  1.4298  0.2343 -0.9692
  152SAPE  C21916897   4.463   4.540   9.311 -1.0629 -0.2687  0.4354
  152SAPE  H19R16898   4.366   4.525   9.260 -1.8948  1.1054  1.5430
  152SAPE  H19S16899   4.493   4.439   9.346 -2.1554 -1.1410 -1.0397
  152SAPE  C22016900   4.576   4.587   9.217  0.2412 -0.1869  0.1789
  152SAPE  H20R16901   4.551   4.690   9.184 -2.1003 -0.0511  2.0727
  152SAPE  H20S16902   4.570   4.520   9.129 -1.8107 -1.7040  1.3741
  152SAPE  H20T16903   4.677   4.585   9.262 -0.4568 -2.0123  1.8332
  152SAPE   C3316904   3.801   3.622  10.598  0.2528  0.3538  0.2955
  152SAPE   H3X16905   3.813   3.564  10.692 -0.4693 -1.5016 -0.7022
  152SAPE   H3Y16906   3.873   3.706  10.601  0.7609  0.1593 -2.6969
  152SAPE   C3416907   3.856   3.531  10.480 -1.0719 -0.0698 -0.3929
  152SAPE   H4X16908   3.827   3.424  10.492 -0.6476 -0.2895 -1.2827
  152SAPE   H4Y16909   3.966   3.530  10.466 -1.0536  0.6376 -0.3559
  152SAPE   C3516910   3.809   3.575  10.343 -0.4335  0.2289  0.3798
  152SAPE   H5X16911   3.821   3.683  10.321  1.9554  0.1794  1.1304
  152SAPE   H5Y16912   3.703   3.552  10.322 -0.0267 -2.2739  0.7073
  152SAPE   C3616913   3.897   3.510  10.231 -0.1681 -0.1018 -0.0385
  152SAPE   H6X16914   3.861   3.405  10.223  1.0493 -0.5291 -0.0312
  152SAPE   H6Y16915   4.001   3.520  10.267  0.2642  1.7759 -1.6498
  152SAPE   C3716916   3.880   3.593  10.099  0.4770  0.0683 -0.1337
  152SAPE   H7X16917   3.914   3.697  10.120 -0.5971  0.5090 -0.5003
  152SAPE   H7Y16918   3.771   3.584  10.079  0.2450 -0.2439  1.2023
  152SAPE   C3816919   3.960   3.540   9.971 -0.6399 -0.2084  0.6525
  152SAPE   H8X16920   3.939   3.434   9.945  1.2021 -0.7354  1.1930
  152SAPE   H8Y16921   4.064   3.532  10.008 -0.3522  0.4355 -0.0098
  152SAPE   C3916922   3.963   3.641   9.851  0.7548 -0.7521  0.3380
  152SAPE   H9X16923   3.976   3.742   9.895  2.6475 -0.9975  0.3856
  152SAPE   H9Y16924   3.862   3.636   9.804  1.4460 -1.1089 -1.1787
  152SAPE  C31016925   4.067   3.629   9.734  0.3443  0.9269 -0.1023
  152SAPE  H10X16926   4.045   3.529   9.691  0.7906 -0.1877  2.0885
  152SAPE  H10Y16927   4.173   3.633   9.768  0.0163  0.7975  1.0011
  152SAPE  C31116928   4.031   3.727   9.620  0.2806  0.6178  0.3254
  152SAPE  H11X16929   4.038   3.827   9.668  0.2626  0.5153  0.5398
  152SAPE  H11Y16930   3.925   3.714   9.589 -0.7163  4.2670  1.6471
  152SAPE  C31216931   4.132   3.719   9.499  0.0323 -0.1288  0.6206
  152SAPE  H12X16932   4.171   3.617   9.481  1.9020  1.0336 -2.6060
  152SAPE  H12Y16933   4.221   3.780   9.523  2.0832 -2.4183 -0.7239
  152SAPE  C31316934   4.072   3.766   9.359 -0.6343  0.3414  0.2050
  152SAPE  H13X16935   4.010   3.857   9.376 -1.4382 -0.2332  0.3898
  152SAPE  H13Y16936   4.014   3.679   9.324  1.6773 -0.1631 -2.7906
  152SAPE  C31416937   4.177   3.784   9.252 -0.9829 -0.0619 -0.3597
  152SAPE  H14X16938   4.254   3.709   9.282 -2.0185  0.6904  5.1602
  152SAPE  H14Y16939   4.228   3.883   9.265 -0.3247 -0.2548 -1.3431
  152SAPE  C31516940   4.137   3.765   9.106  0.4733 -0.0532 -0.4355
  152SAPE  H15X16941   4.046   3.700   9.110 -0.2710  0.9261 -1.0258
  152SAPE  H15Y16942   4.222   3.721   9.050 -0.0972 -2.1956  0.2780
  152SAPE  C31616943   4.111   3.895   9.031 -0.4373  0.3306  0.4053
  152SAPE  H16X16944   4.207   3.951   9.032  0.4038 -1.0845  0.6711
  152SAPE  H16Y16945   4.026   3.946   9.081  0.1131 -0.0313  1.7308
  152SAPE  C31716946   4.079   3.880   8.877 -0.4757  0.5704 -0.1152
  152SAPE  H17X16947   3.994   3.809   8.859  0.0944 -0.0998 -0.2042
  152SAPE  H17Y16948   4.172   3.831   8.842 -2.4589 -3.5248 -0.2809
  152SAPE  C31816949   4.054   4.020   8.815 -0.5987  1.2212  0.1121
  152SAPE  H18X16950   4.128   4.098   8.844 -1.0819  1.9663 -0.6066
  152SAPE  H18Y16951   3.948   4.050   8.831 -1.5007 -0.4171 -2.2744
  152SAPE  H18Z16952   4.067   4.026   8.705  0.7683 -1.6210  0.0313
  153SAPE     N16953   4.371   0.897  10.736 -0.6079 -0.7793 -0.1966
  153SAPE   HN116954   4.418   0.988  10.749 -0.2481 -0.8823 -0.7672
  153SAPE   HN216955   4.267   0.900  10.745 -0.4923 -0.7784  1.5895
  153SAPE   HN316956   4.417   0.834  10.805  1.3548  0.7374 -0.0573
  153SAPE   C1216957   4.410   0.856  10.592  0.6031 -0.0248  0.3422
  153SAPE  H12A16958   4.361   0.937  10.534  0.0526 -0.0965  0.7029
  153SAPE  H12B16959   4.372   0.755  10.567  2.4657 -0.6300 -0.2428
  153SAPE   C1116960   4.564   0.856  10.573  0.1283 -0.2693 -0.5548
  153SAPE  H11A16961   4.593   0.832  10.469  0.8861 -1.9198 -0.0012
  153SAPE  H11B16962   4.608   0.778  10.639 -0.1112  0.2882  0.2831
  153SAPE     P16963   4.762   1.008  10.672 -0.0407 -0.3495 -0.1701
  153SAPE   O1316964   4.826   1.127  10.605  0.2486  0.4060 -0.3394
  153SAPE   O1416965   4.748   1.016  10.821  0.1421  0.5947  0.5170
  153SAPE   O1216966   4.620   0.986  10.606  0.2038  0.1307  0.1143
  153SAPE   O1116967   4.836   0.876  10.630 -0.2229  0.1232  0.2039
  153SAPE    C116968   4.984   0.876  10.613 -0.4786 -0.1122  0.6114
  153SAPE    HA16969   5.033   0.956  10.673  2.6823 -1.0691 -0.4981
  153SAPE    HB16970   5.023   0.774  10.633 -2.5702 -1.1636 -0.3962
  153SAPE    C216971   5.026   0.888  10.460  0.0572 -0.2781  0.1857
  153SAPE    HS16972   4.996   0.988  10.422  1.8706  0.1286 -0.2701
  153SAPE   O2116973   4.965   0.784  10.383  0.2977 -0.3159 -0.5834
  153SAPE   C2116974   4.836   0.815  10.337  0.1613  0.0997 -0.7603
  153SAPE   O2216975   4.788   0.925  10.339 -0.0393 -0.1149 -0.4437
  153SAPE   C2216976   4.781   0.699  10.248  1.1565 -0.1848 -0.2310
  153SAPE   H2R16977   4.869   0.640  10.217  1.4118 -0.3832  0.8248
  153SAPE   H2S16978   4.717   0.643  10.320 -0.3612  1.1937 -0.4354
  153SAPE    C316979   5.183   0.881  10.458 -0.5963 -0.5289 -0.2089
  153SAPE    HX16980   5.204   0.798  10.529  0.0432 -1.0354 -0.9768
  153SAPE    HY16981   5.225   0.975  10.500 -0.9080 -0.0359 -0.9733
  153SAPE   O3116982   5.223   0.845  10.322 -0.7579 -0.4646 -0.1603
  153SAPE   C3116983   5.223   0.954  10.246 -0.2216 -0.3429 -0.5175
  153SAPE   O3216984   5.189   1.070  10.273 -0.2622  0.1351  0.7652
  153SAPE   C3216985   5.252   0.914  10.101  0.2243  0.2116  0.9485
  153SAPE   H2X16986   5.347   0.857  10.093  1.5466  2.1710  1.9042
  153SAPE   H2Y16987   5.268   0.995  10.027  0.3315 -1.7419 -1.2728
  153SAPE   C2316988   4.688   0.755  10.135 -0.6797  0.2887  0.5675
  153SAPE   H3R16989   4.731   0.846  10.087 -1.3866  0.7012  0.6958
  153SAPE   H3S16990   4.594   0.789  10.184 -0.8381  0.0156  0.4511
  153SAPE   C2416991   4.654   0.642  10.042  0.3147 -0.5736  0.1391
  153SAPE   H4R16992   4.568   0.681   9.985 -0.2444  1.0002  1.9523
  153SAPE   H4S16993   4.605   0.559  10.098 -1.7161 -0.1736 -0.9603
  153SAPE   C2516994   4.757   0.570   9.957 -0.3304 -0.7548 -0.3860
  153SAPE   H5R16995   4.841   0.522  10.011  1.7240  1.7965 -1.1089
  153SAPE   C2616996   4.755   0.562   9.824  0.0114  1.0821  0.2499
  153SAPE   H6R16997   4.853   0.525   9.789 -0.8117 -1.3101  0.3239
  153SAPE   C2716998   4.664   0.634   9.726 -0.0759  0.4363  0.0051
  153SAPE   H7R16999   4.582   0.690   9.775  0.6884  0.8938  0.7783
  153SAPE   H7S17000   4.613   0.553   9.671 -0.3405 -0.2659  1.2531
  153SAPE   C2817001   4.756   0.717   9.639 -0.2095 -0.3944 -0.0718
  153SAPE   H8R17002   4.813   0.797   9.688 -0.8155 -0.7294  1.2027
  153SAPE   C2917003   4.765   0.700   9.507 -0.1042 -0.1455  0.1736
  153SAPE   H9R17004   4.825   0.770   9.447 -2.7035 -0.8630 -3.6442
  153SAPE  C21017005   4.682   0.611   9.421  0.3412 -0.0946 -0.3915
  153SAPE  H10R17006   4.634   0.669   9.339 -1.3677  1.4888  1.6181
  153SAPE  H10S17007   4.587   0.579   9.469  1.1342 -0.1707  1.2162
  153SAPE  C21117008   4.750   0.488   9.377 -0.0268  0.0180  0.1519
  153SAPE  H11R17009   4.730   0.398   9.437  1.5129 -1.4700 -1.4443
  153SAPE  C21217010   4.803   0.471   9.251 -1.0805 -1.1964 -0.4015
  153SAPE  H12R17011   4.853   0.374   9.240  0.0425 -0.8785  1.4185
  153SAPE  C21317012   4.818   0.575   9.137 -0.9631 -0.6552 -0.8613
  153SAPE  H13R17013   4.927   0.580   9.116 -1.3906 -0.9149 -3.4820
  153SAPE  H13S17014   4.787   0.674   9.176  1.4448 -0.8756  2.0206
  153SAPE  C21417015   4.735   0.543   9.015 -0.3654  0.4214  0.3054
  153SAPE  H14R17016   4.673   0.452   9.021  0.2184  0.1054  2.1986
  153SAPE  C21517017   4.750   0.612   8.897 -0.0671  0.9850 -0.7888
  153SAPE  H15R17018   4.675   0.595   8.819 -0.7548 -0.3149  0.1131
  153SAPE  C21617019   4.848   0.727   8.873  0.3284  0.4716  0.1857
  153SAPE  H16R17020   4.931   0.729   8.948 -0.9375 -0.4762  1.6755
  153SAPE  H16S17021   4.795   0.824   8.887 -0.1593  0.2186  0.1059
  153SAPE  C21717022   4.915   0.692   8.738  0.1032  0.1333  0.1303
  153SAPE  H17R17023   4.837   0.701   8.660  0.0039  2.1212  0.4078
  153SAPE  H17S17024   4.946   0.585   8.734  0.9268  0.3671 -0.0237
  153SAPE  C21817025   5.033   0.783   8.701 -0.0048  0.0468 -0.5398
  153SAPE  H18R17026   5.117   0.765   8.772  0.3362 -0.6561 -1.1128
  153SAPE  H18S17027   4.994   0.887   8.707  1.5249  0.6701 -0.6920
  153SAPE  C21917028   5.099   0.749   8.565  0.2390  0.2136 -0.1877
  153SAPE  H19R17029   5.167   0.662   8.583  1.8153  1.4096 -0.1042
  153SAPE  H19S17030   5.157   0.840   8.537 -1.6559  1.1538 -1.1861
  153SAPE  C22017031   5.002   0.726   8.452 -0.3957  0.8099 -0.2507
  153SAPE  H20R17032   4.929   0.810   8.454 -0.9604  0.3437  2.3980
  153SAPE  H20S17033   4.934   0.639   8.462  1.9122 -1.0175  0.5402
  153SAPE  H20T17034   5.049   0.742   8.353 -0.8870 -1.7905 -0.9472
  153SAPE   C3317035   5.143   0.831  10.039  0.5852 -0.2317  0.1964
  153SAPE   H3X17036   5.049   0.884  10.014  0.2918 -1.3587 -1.2201
  153SAPE   H3Y17037   5.123   0.745  10.107  1.8293 -0.7833 -0.1108
  153SAPE   C3417038   5.189   0.779   9.899  0.5592  0.5853 -0.1094
  153SAPE   H4X17039   5.281   0.717   9.908 -1.4621 -2.4363  2.0992
  153SAPE   H4Y17040   5.216   0.851   9.820  0.6231 -1.3819 -1.9869
  153SAPE   C3517041   5.081   0.689   9.840 -0.2420 -0.1123 -0.2316
  153SAPE   H5X17042   4.999   0.754   9.800 -0.9124 -1.6883 -1.5476
  153SAPE   H5Y17043   5.040   0.617   9.913 -0.4231 -1.0256 -1.1995
  153SAPE   C3617044   5.115   0.620   9.710 -0.9204  0.1713 -0.1146
  153SAPE   H6X17045   5.037   0.547   9.681  0.5076 -1.5386  0.1585
  153SAPE   H6Y17046   5.211   0.570   9.734 -0.4392  1.6869  1.2910
  153SAPE   C3717047   5.139   0.713   9.593  0.7964 -0.0995  0.2649
  153SAPE   H7X17048   5.220   0.786   9.616  0.1049  0.9324 -0.4466
  153SAPE   H7Y17049   5.048   0.775   9.582  1.1418  0.7536  1.9501
  153SAPE   C3817050   5.174   0.626   9.463 -0.0130 -0.5355 -0.7142
  153SAPE   H8X17051   5.094   0.550   9.447  0.2143 -1.6722  2.7227
  153SAPE   H8Y17052   5.262   0.561   9.484 -1.1793 -1.9633 -0.0337
  153SAPE   C3917053   5.206   0.714   9.343 -0.1194  0.7312  0.3090
  153SAPE   H9X17054   5.295   0.777   9.366  0.5540 -0.4153  0.9210
  153SAPE   H9Y17055   5.114   0.774   9.326 -2.3766 -2.9402 -1.5503
  153SAPE  C31017056   5.241   0.626   9.219  0.2436  0.1005  0.2210
  153SAPE  H10X17057   5.150   0.568   9.193  0.0436 -0.6718  2.4031
  153SAPE  H10Y17058   5.321   0.553   9.242  1.5757  0.5023 -2.6654
  153SAPE  C31117059   5.290   0.712   9.103 -0.4058  0.4707  0.7691
  153SAPE  H11X17060   5.376   0.776   9.129 -1.1679  1.3339  1.2087
  153SAPE  H11Y17061   5.196   0.767   9.079  0.4250  0.3651 -3.6109
  153SAPE  C31217062   5.344   0.639   8.967 -0.1601 -0.7159 -0.6590
  153SAPE  H12X17063   5.442   0.596   8.996  0.6328  1.2488 -0.2355
  153SAPE  H12Y17064   5.360   0.716   8.888  0.7759  0.0617  0.2574
  153SAPE  C31317065   5.243   0.534   8.911 -0.0102  0.4345  0.0433
  153SAPE  H13X17066   5.146   0.581   8.881 -0.5462 -0.0200  1.0144
  153SAPE  H13Y17067   5.213   0.465   8.993 -0.7705 -1.7066 -1.9348
  153SAPE  C31417068   5.298   0.457   8.794 -0.3176  0.0001  0.1078
  153SAPE  H14X17069   5.407   0.437   8.799 -0.4968 -1.0178  0.0167
  153SAPE  H14Y17070   5.290   0.527   8.708  1.9297  0.5599  0.3092
  153SAPE  C31517071   5.234   0.315   8.767  0.3623 -0.4629  0.0995
  153SAPE  H15X17072   5.269   0.249   8.849 -2.1398 -2.1077 -0.0539
  153SAPE  H15Y17073   5.264   0.281   8.666 -2.5229  0.1400 -1.0723
  153SAPE  C31617074   5.079   0.326   8.767  0.1478 -0.5194 -0.6678
  153SAPE  H16X17075   5.066   0.389   8.677  0.5364  1.9165  0.8838
  153SAPE  H16Y17076   5.039   0.376   8.858  0.3273 -0.7778 -0.4466
  153SAPE  C31717077   4.985   0.203   8.748 -0.7609 -0.3457  0.3611
  153SAPE  H17X17078   4.994   0.145   8.842 -0.3582 -0.9660 -0.0546
  153SAPE  H17Y17079   5.026   0.137   8.669 -1.4014  0.4352 -0.6444
  153SAPE  C31817080   4.842   0.229   8.721 -0.1666  0.4713  0.7982
  153SAPE  H18X17081   4.781   0.140   8.691  2.4423 -1.3672  0.5738
  153SAPE  H18Y17082   4.834   0.296   8.633 -0.1187 -1.0421 -0.4063
  153SAPE  H18Z17083   4.789   0.279   8.804  0.0041  1.6144  0.2400
  154SAPE     N17084   5.902   6.444  10.712  0.1237 -0.3284  0.4849
  154SAPE   HN117085   5.808   6.401  10.704  0.4306 -0.6360 -2.2919
  154SAPE   HN217086   5.899   6.508  10.630  0.1646 -0.8215  0.0898
  154SAPE   HN317087   5.959   6.364  10.678 -0.2188 -0.7584  0.9003
  154SAPE   C1217088   5.932   6.497  10.845  0.1785 -0.2358 -1.1598
  154SAPE  H12A17089   6.041   6.480  10.863 -0.1169 -0.2871  0.8132
  154SAPE  H12B17090   5.890   6.426  10.919  0.9440 -1.2097 -1.6230
  154SAPE   C1117091   5.873   6.638  10.861 -0.3905  0.1723  0.1979
  154SAPE  H11A17092   5.924   6.712  10.795 -0.6463 -0.0740 -0.2755
  154SAPE  H11B17093   5.902   6.671  10.964 -2.0851  0.2708  0.6725
  154SAPE     P17094   5.647   6.734  10.782  0.0908 -0.0907  0.0518
  154SAPE   O1317095   5.527   6.668  10.716  0.1861 -0.6355 -0.3864
  154SAPE   O1417096   5.617   6.839  10.883  0.1602 -0.2971 -0.2462
  154SAPE   O1217097   5.731   6.622  10.840  0.0560  0.1172 -0.2292
  154SAPE   O1117098   5.733   6.790  10.674  0.2606 -0.0776 -0.4430
  154SAPE    C117099   5.734   6.931  10.661 -0.3612 -0.9669  0.2668
  154SAPE    HA17100   5.629   6.963  10.644 -0.1978 -1.6417 -2.5110
  154SAPE    HB17101   5.786   6.980  10.745  0.3970 -0.6268 -0.3856
  154SAPE    C217102   5.810   6.988  10.538 -0.8986  0.3246 -0.8200
  154SAPE    HS17103   5.785   7.093  10.509 -1.9870 -0.5798 -3.4553
  154SAPE   O2117104   5.779   6.897  10.430  0.1376 -0.0176 -0.6710
  154SAPE   C2117105   5.674   6.927  10.355 -0.1952  0.1700 -0.8663
  154SAPE   O2217106   5.600   7.016  10.377 -0.2798  0.5577 -0.4856
  154SAPE   C2217107   5.659   6.817  10.244  0.1346 -0.2915 -0.3486
  154SAPE   H2R17108   5.741   6.743  10.250 -0.9645 -1.6164 -1.0124
  154SAPE   H2S17109   5.573   6.751  10.267  0.3691 -0.4345  0.1310
  154SAPE    C317110   5.964   6.978  10.574 -0.1086 -0.4129  0.5526
  154SAPE    HX17111   5.991   6.875  10.607  0.7670 -0.3695  0.0152
  154SAPE    HY17112   5.984   7.034  10.668 -0.7071 -1.9115  1.6247
  154SAPE   O3117113   6.049   7.020  10.463 -0.0766 -0.2979  0.4569
  154SAPE   C3117114   6.107   6.926  10.394 -0.0863 -0.3223  0.4413
  154SAPE   O3217115   6.099   6.808  10.416  0.0153  0.9312 -0.2354
  154SAPE   C3217116   6.183   6.995  10.281 -0.6949 -0.1459  0.9531
  154SAPE   H2X17117   6.258   7.064  10.325 -2.5558  1.4939  1.6531
  154SAPE   H2Y17118   6.107   7.052  10.224  0.5357  1.2561  0.6424
  154SAPE   C2317119   5.649   6.872  10.101 -0.1632  0.8508 -0.2183
  154SAPE   H3R17120   5.560   6.939  10.104 -0.5260  0.3857 -0.5363
  154SAPE   H3S17121   5.630   6.784  10.036  0.8674 -0.0864  0.7192
  154SAPE   C2417122   5.769   6.956  10.056 -0.6205 -0.3016  0.4173
  154SAPE   H4R17123   5.798   7.027  10.137  1.7548 -0.9799  0.2581
  154SAPE   H4S17124   5.749   7.007   9.960 -2.3874  1.5729  1.6876
  154SAPE   C2517125   5.891   6.870  10.019  0.0657 -0.4825  0.8266
  154SAPE   H5R17126   5.956   6.828  10.097 -0.2390  0.9185  1.8861
  154SAPE   C2617127   5.926   6.837   9.890  0.4057  0.0512  0.8235
  154SAPE   H6R17128   6.020   6.786   9.867  0.1482 -0.1219  0.1248
  154SAPE   C2717129   5.855   6.870   9.766 -0.4403 -0.3277  0.0758
  154SAPE   H7R17130   5.936   6.876   9.690  0.5809 -0.1894  1.1412
  154SAPE   H7S17131   5.821   6.976   9.769 -2.3060 -0.8912  0.2734
  154SAPE   C2817132   5.744   6.776   9.711  0.1492 -0.6259  0.2767
  154SAPE   H8R17133   5.725   6.690   9.778 -0.3224 -2.1771 -1.7394
  154SAPE   C2917134   5.683   6.784   9.585 -0.2801 -0.0441  0.5023
  154SAPE   H9R17135   5.589   6.730   9.567 -1.6774  2.8517 -1.7592
  154SAPE  C21017136   5.722   6.894   9.484 -0.3793 -0.0138 -0.3363
  154SAPE  H10R17137   5.827   6.882   9.448  0.4414  2.2766  1.0844
  154SAPE  H10S17138   5.716   6.984   9.549 -4.5640 -0.5286  0.2706
  154SAPE  C21117139   5.616   6.916   9.382  0.8179  0.3456 -0.4102
  154SAPE  H11R17140   5.517   6.904   9.428  1.4857 -2.5198  0.4796
  154SAPE  C21217141   5.639   6.913   9.247  0.2432 -0.3954  0.0160
  154SAPE  H12R17142   5.561   6.952   9.180 -0.6067 -1.0784  0.5663
  154SAPE  C21317143   5.780   6.907   9.192  0.4228 -0.0559 -0.3309
  154SAPE  H13R17144   5.805   6.799   9.190 -1.4692 -0.5244 -0.6163
  154SAPE  H13S17145   5.849   6.954   9.266  1.8912 -1.8568 -0.4758
  154SAPE  C21417146   5.801   6.982   9.069  0.6599  0.1465  0.0737
  154SAPE  H14R17147   5.720   7.057   9.057  0.1513 -0.1720  1.3629
  154SAPE  C21517148   5.882   6.964   8.965 -0.4792 -0.9169  0.1538
  154SAPE  H15R17149   5.882   7.042   8.887 -0.0358 -1.0513  0.0205
  154SAPE  C21617150   5.989   6.859   8.948  0.2163  0.1478  0.2686
  154SAPE  H16R17151   5.979   6.810   8.849 -0.1972 -0.3686  0.5670
  154SAPE  H16S17152   6.004   6.783   9.027  2.1767 -1.7593 -1.7944
  154SAPE  C21717153   6.129   6.917   8.938  0.0718  0.1282  0.2980
  154SAPE  H17R17154   6.195   6.842   8.986 -0.0130  0.5233  1.0593
  154SAPE  H17S17155   6.145   7.016   8.987 -0.4126  1.1338 -1.4979
  154SAPE  C21817156   6.188   6.940   8.797 -0.1594 -0.3682  0.0163
  154SAPE  H18R17157   6.114   7.005   8.744  2.0459  3.9399  1.7510
  154SAPE  H18S17158   6.194   6.842   8.746  1.7755  0.0174 -0.5689
  154SAPE  C21917159   6.318   7.019   8.785 -0.4111 -0.6511 -0.0202
  154SAPE  H19R17160   6.396   6.949   8.821 -1.4392 -0.4019  3.0008
  154SAPE  H19S17161   6.303   7.106   8.852  1.1050  0.5950 -1.2347
  154SAPE  C22017162   6.353   7.061   8.640 -0.1892 -0.0053  0.0798
  154SAPE  H20R17163   6.338   6.982   8.563  0.4561  0.2921 -0.3598
  154SAPE  H20S17164   6.455   7.104   8.634 -0.6739  1.4104  1.4606
  154SAPE  H20T17165   6.280   7.142   8.623  1.8279  1.8962  0.1019
  154SAPE   C3317166   6.258   6.897  10.184  0.3595 -0.1350 -0.1793
  154SAPE   H3X17167   6.181   6.824  10.152 -1.3790  0.1563  2.9421
  154SAPE   H3Y17168   6.344   6.848  10.235 -1.6412 -0.6363  2.9968
  154SAPE   C3417169   6.293   6.958  10.042 -0.1713 -0.1516 -0.5002
  154SAPE   H4X17170   6.370   7.032  10.072  1.1379 -1.6584  0.0165
  154SAPE   H4Y17171   6.196   6.997  10.004 -1.1025 -2.5772 -0.7707
  154SAPE   C3517172   6.366   6.875   9.936 -0.1688 -0.3977  0.5236
  154SAPE   H5X17173   6.295   6.795   9.905 -2.1629  1.7038 -0.6491
  154SAPE   H5Y17174   6.450   6.828   9.992  0.5057  1.4980  1.1789
  154SAPE   C3617175   6.416   6.967   9.825 -1.3484  0.0871 -0.2794
  154SAPE   H6X17176   6.494   7.032   9.871 -0.4045  0.1788 -1.9087
  154SAPE   H6Y17177   6.330   7.027   9.791  0.1197  1.8326 -1.0476
  154SAPE   C3717178   6.476   6.900   9.697 -0.3680  0.5254 -0.0792
  154SAPE   H7X17179   6.394   6.853   9.638  0.7438  0.4003 -1.6025
  154SAPE   H7Y17180   6.544   6.817   9.724 -2.1376 -0.0468  3.0388
  154SAPE   C3817181   6.547   6.994   9.609 -0.0948 -0.1212 -0.0572
  154SAPE   H8X17182   6.643   7.017   9.660 -0.8665 -0.5540  1.7001
  154SAPE   H8Y17183   6.483   7.084   9.594 -0.7959 -0.2574  1.8328
  154SAPE   C3917184   6.572   6.926   9.473 -0.1854 -0.0606  0.0136
  154SAPE   H9X17185   6.480   6.870   9.445 -1.2502  1.4665  0.3361
  154SAPE   H9Y17186   6.656   6.857   9.496 -0.9884 -0.7178  1.0460
  154SAPE  C31017187   6.604   7.022   9.354  0.7283 -0.1466  0.4414
  154SAPE  H10X17188   6.685   7.095   9.375  0.0136  0.8762 -0.2871
  154SAPE  H10Y17189   6.525   7.094   9.326  1.0547 -0.3133 -1.0253
  154SAPE  C31117190   6.647   6.938   9.229 -0.3565 -0.6964  0.5788
  154SAPE  H11X17191   6.560   6.874   9.204 -0.6534 -0.8303  1.9109
  154SAPE  H11Y17192   6.736   6.877   9.255  0.4476  0.0656 -0.2997
  154SAPE  C31217193   6.674   7.014   9.102 -0.1266 -0.1400 -0.3339
  154SAPE  H12X17194   6.768   7.071   9.111  0.1160  0.0540 -3.1371
  154SAPE  H12Y17195   6.597   7.088   9.071  1.5431  1.0841 -1.7272
  154SAPE  C31317196   6.683   6.914   8.982 -0.3330  0.2960  0.2126
  154SAPE  H13X17197   6.595   6.849   8.962  0.7400 -0.7275 -1.4641
  154SAPE  H13Y17198   6.763   6.840   9.004 -0.6885 -0.6236 -1.3797
  154SAPE  C31417199   6.719   7.003   8.862  0.3669  0.0053  0.4131
  154SAPE  H14X17200   6.785   7.087   8.892 -0.1675 -0.6979  3.9995
  154SAPE  H14Y17201   6.621   7.045   8.829  0.5438  0.9481  1.0610
  154SAPE  C31517202   6.770   6.938   8.731  0.3459  0.8200 -1.0035
  154SAPE  H15X17203   6.700   6.962   8.648  0.5492 -0.9461 -1.7328
  154SAPE  H15Y17204   6.745   6.830   8.740 -1.5478  1.3534  0.9102
  154SAPE  C31617205   6.910   6.979   8.697 -0.6359 -0.3805  0.1752
  154SAPE  H16X17206   6.976   6.961   8.784  0.0742 -0.5588 -0.3906
  154SAPE  H16Y17207   6.913   7.087   8.670  1.0103  0.0108  1.7574
  154SAPE  C31717208   6.966   6.903   8.567 -0.5816 -0.4723 -0.3596
  154SAPE  H17X17209   6.913   6.945   8.479  0.5141  0.9784 -0.3745
  154SAPE  H17Y17210   6.948   6.796   8.588 -0.4675 -0.5794 -0.7843
  154SAPE  C31817211   7.111   6.921   8.548 -0.3230 -0.4463 -0.3963
  154SAPE  H18X17212   7.162   6.901   8.644 -1.2957 -1.0991 -0.0083
  154SAPE  H18Y17213   7.143   7.021   8.511 -0.0058 -0.3310  0.1756
  154SAPE  H18Z17214   7.165   6.852   8.478  2.5953  0.3604  0.8898
  155SAPE     N17215   1.084   1.206  10.682 -0.5649  0.4767  0.5646
  155SAPE   HN117216   1.091   1.103  10.669 -0.0494  0.6014 -0.2021
  155SAPE   HN217217   1.013   1.252  10.622 -1.7560 -0.6457  1.0817
  155SAPE   HN317218   1.174   1.251  10.657  1.2327 -3.0281  0.0843
  155SAPE   C1217219   1.051   1.216  10.828 -0.3617  0.8735  0.1973
  155SAPE  H12A17220   1.085   1.315  10.864  1.5341  0.3392 -0.0272
  155SAPE  H12B17221   1.113   1.142  10.884  0.1209 -0.3204 -1.8181
  155SAPE   C1117222   0.906   1.192  10.859  0.7184 -0.4031 -0.0926
  155SAPE  H11A17223   0.842   1.260  10.800 -1.0938 -0.5391  1.6322
  155SAPE  H11B17224   0.881   1.217  10.964 -0.3456 -0.4196 -0.3353
  155SAPE     P17225   0.846   0.986  10.711 -0.0458  0.2651  0.1628
  155SAPE   O1317226   0.978   0.963  10.646  0.1766 -0.3751 -0.2033
  155SAPE   O1417227   0.757   0.867  10.733  0.6643 -0.2166 -0.2814
  155SAPE   O1217228   0.863   1.056  10.850 -0.5800  0.1859  0.5834
  155SAPE   O1117229   0.767   1.080  10.616 -0.8267 -0.0401  0.3506
  155SAPE    C117230   0.633   1.121  10.639  0.0342  0.2125  0.2554
  155SAPE    HA17231   0.607   1.132  10.746  0.5582 -0.0989  0.4202
  155SAPE    HB17232   0.630   1.219  10.587 -2.4327  0.8383  1.4431
  155SAPE    C217233   0.531   1.030  10.566 -0.3183  0.0013  0.2838
  155SAPE    HS17234   0.516   0.947  10.638  1.4051  1.5119  2.5462
  155SAPE   O2117235   0.573   0.976  10.436 -0.0108  0.1349  0.1951
  155SAPE   C2117236   0.518   0.864  10.393  0.0940  0.1601  0.0220
  155SAPE   O2217237   0.457   0.781  10.460  0.2600 -0.2311  0.2480
  155SAPE   C2217238   0.534   0.847  10.241 -0.9668 -0.2948 -0.6328
  155SAPE   H2R17239   0.465   0.917  10.190 -0.0518  2.6487  1.8441
  155SAPE   H2S17240   0.637   0.881  10.213 -1.4767  1.9049 -0.0607
  155SAPE    C317241   0.395   1.093  10.553 -0.2723  0.1278 -0.1238
  155SAPE    HX17242   0.361   1.166  10.630 -2.0698  1.2973 -1.9250
  155SAPE    HY17243   0.319   1.012  10.561 -2.8328  2.4444  0.5687
  155SAPE   O3117244   0.381   1.152  10.420  0.5644  0.1532  0.4788
  155SAPE   C3117245   0.407   1.280  10.405 -0.0724 -1.1313 -0.7437
  155SAPE   O3217246   0.455   1.349  10.496  0.3346 -0.0692 -0.5196
  155SAPE   C3217247   0.393   1.323  10.254  0.1193 -0.0305 -0.3847
  155SAPE   H2X17248   0.494   1.334  10.209  0.8506  1.4118  1.4870
  155SAPE   H2Y17249   0.349   1.425  10.266  1.9617  0.7101  0.4132
  155SAPE   C2317250   0.508   0.699  10.209  0.1669  0.1150  0.1530
  155SAPE   H3R17251   0.414   0.667  10.258  0.6064  0.1003  1.0091
  155SAPE   H3S17252   0.589   0.636  10.253 -0.4777 -0.5673  0.3819
  155SAPE   C2417253   0.498   0.666  10.058  0.6802  0.6922 -0.5484
  155SAPE   H4R17254   0.496   0.555  10.053  2.8609  0.5635  0.5499
  155SAPE   H4S17255   0.589   0.706  10.008  1.2550  1.0031  0.7180
  155SAPE   C2517256   0.372   0.726   9.993 -0.2606  0.8614  0.0171
  155SAPE   H5R17257   0.277   0.688  10.035 -0.3765  1.2338  0.0933
  155SAPE   C2617258   0.378   0.804   9.879  0.4032  0.1272 -1.5093
  155SAPE   H6R17259   0.277   0.832   9.844 -1.3720 -2.8209  0.7470
  155SAPE   C2717260   0.495   0.865   9.804 -0.1507 -0.0194  0.4994
  155SAPE   H7R17261   0.467   0.921   9.713  1.2962  0.7380  0.4955
  155SAPE   H7S17262   0.559   0.780   9.772 -2.4375 -1.7430  0.1766
  155SAPE   C2817263   0.557   0.977   9.889  0.1112  0.0347  0.2934
  155SAPE   H8R17264   0.481   1.010   9.961 -2.6427 -1.4500 -1.6911
  155SAPE   C2917265   0.672   1.044   9.860 -0.6749  0.3074 -0.5463
  155SAPE   H9R17266   0.708   1.113   9.938 -1.2160 -0.3529  0.3085
  155SAPE  C21017267   0.765   1.020   9.743  0.4729  0.0856 -0.5611
  155SAPE  H10R17268   0.739   0.928   9.686  0.3808 -1.2044  1.4370
  155SAPE  H10S17269   0.868   1.011   9.783  1.4080  0.1998 -2.8158
  155SAPE  C21117270   0.758   1.146   9.665  0.2362 -0.2280 -0.5455
  155SAPE  H11R17271   0.773   1.238   9.724  1.9424 -1.0242  0.3388
  155SAPE  C21217272   0.728   1.156   9.534  0.5861  0.2800 -0.3411
  155SAPE  H12R17273   0.718   1.259   9.497  0.9937  0.0567 -1.0937
  155SAPE  C21317274   0.703   1.048   9.426 -0.1327  0.4337 -0.3382
  155SAPE  H13R17275   0.694   0.952   9.480  0.2941  0.6667  0.1584
  155SAPE  H13S17276   0.794   1.043   9.363 -0.8576 -0.2156 -1.3633
  155SAPE  C21417277   0.572   1.077   9.352  0.7712 -0.2984 -0.3585
  155SAPE  H14R17278   0.478   1.047   9.400  1.0043  1.0866  1.0498
  155SAPE  C21517279   0.559   1.138   9.228 -0.3602 -0.4741  0.2766
  155SAPE  H15R17280   0.459   1.149   9.184 -0.8143 -2.3122  0.7337
  155SAPE  C21617281   0.662   1.205   9.143 -0.1617 -0.9098  0.0563
  155SAPE  H16R17282   0.755   1.209   9.203 -0.5839 -0.1663  0.6733
  155SAPE  H16S17283   0.628   1.309   9.128  1.4096 -0.3407  0.2694
  155SAPE  C21717284   0.672   1.134   9.010 -0.7262  0.4004  0.6241
  155SAPE  H17R17285   0.580   1.156   8.952 -2.2658  0.3119  2.9079
  155SAPE  H17S17286   0.664   1.025   9.029  0.6549  0.4809  1.8799
  155SAPE  C21817287   0.799   1.156   8.932 -0.4288 -0.2669  0.0917
  155SAPE  H18R17288   0.830   1.061   8.883 -0.6478 -0.1002 -0.3732
  155SAPE  H18S17289   0.880   1.187   9.001 -0.7363  1.0252 -0.1030
  155SAPE  C21917290   0.790   1.268   8.820  0.3521 -0.5028  0.0427
  155SAPE  H19R17291   0.884   1.280   8.763  0.5418 -2.4975 -0.1228
  155SAPE  H19S17292   0.772   1.366   8.870 -0.5540  0.2270 -1.6308
  155SAPE  C22017293   0.687   1.259   8.712  0.5378  0.7115  1.0136
  155SAPE  H20R17294   0.707   1.162   8.660  1.1164  1.8248 -0.9327
  155SAPE  H20S17295   0.691   1.337   8.634  1.4020  1.6734  1.9959
  155SAPE  H20T17296   0.582   1.251   8.748 -1.1088  0.4366 -3.2477
  155SAPE   C3317297   0.303   1.232  10.165  0.6277 -0.1183  0.8459
  155SAPE   H3X17298   0.197   1.266  10.175  0.5653 -0.3504  0.9862
  155SAPE   H3Y17299   0.303   1.127  10.201 -0.1169  0.8959  4.1253
  155SAPE   C3417300   0.356   1.241  10.020  0.5020 -0.1315 -0.0166
  155SAPE   H4X17301   0.318   1.144   9.983  0.7002 -0.6013  0.9909
  155SAPE   H4Y17302   0.467   1.234  10.014  0.7234  0.6809  2.2023
  155SAPE   C3517303   0.296   1.334   9.923  0.5591 -0.7942  0.2626
  155SAPE   H5X17304   0.338   1.436   9.928 -1.5813  0.1170  0.8039
  155SAPE   H5Y17305   0.189   1.348   9.949  1.2069  2.0876  1.7730
  155SAPE   C3617306   0.328   1.288   9.781  0.5874  0.6545 -0.3587
  155SAPE   H6X17307   0.433   1.270   9.751  0.0730  0.1119 -1.9401
  155SAPE   H6Y17308   0.281   1.365   9.716  0.1479 -0.3472 -1.2662
  155SAPE   C3717309   0.254   1.151   9.745  0.2629 -0.4479  0.1400
  155SAPE   H7X17310   0.148   1.165   9.773 -0.7696  0.9952 -3.7719
  155SAPE   H7Y17311   0.283   1.054   9.789  0.0403  0.4084  2.2998
  155SAPE   C3817312   0.258   1.118   9.595  0.0402  0.2963  0.6051
  155SAPE   H8X17313   0.350   1.061   9.569 -1.1298 -0.1381 -3.1018
  155SAPE   H8Y17314   0.255   1.212   9.536 -1.8270 -0.2549 -0.2395
  155SAPE   C3917315   0.133   1.030   9.551  0.0240  0.0687 -0.2287
  155SAPE   H9X17316   0.039   1.087   9.561 -0.4054 -0.4666 -1.0906
  155SAPE   H9Y17317   0.126   0.945   9.621  1.3574  0.1734  0.0624
  155SAPE  C31017318   0.145   0.971   9.406  0.2836 -0.2443  0.7716
  155SAPE  H10X17319   0.058   0.913   9.367 -0.7596  2.4350 -1.1893
  155SAPE  H10Y17320   0.239   0.913   9.396  0.0636 -0.4568 -0.0798
  155SAPE  C31117321   0.154   1.083   9.308  0.4022  0.3443  0.4602
  155SAPE  H11X17322   0.246   1.140   9.335  0.7140 -0.7672  1.8601
  155SAPE  H11Y17323   0.064   1.148   9.302 -1.8414 -2.2301  3.1693
  155SAPE  C31217324   0.179   1.035   9.161  0.9515 -0.1631 -0.3896
  155SAPE  H12X17325   0.254   0.953   9.167 -0.6152 -1.6999 -0.8923
  155SAPE  H12Y17326   0.212   1.123   9.103  1.8457  0.1217  0.5114
  155SAPE  C31317327   0.061   0.978   9.087  0.5339  0.4159  0.1914
  155SAPE  H13X17328  -0.033   1.029   9.118 -0.1843 -1.0157  0.4670
  155SAPE  H13Y17329   0.059   0.871   9.118  2.6283  0.3702  0.3011
  155SAPE  C31417330   0.068   0.991   8.938 -0.6443 -0.4144  0.2702
  155SAPE  H14X17331   0.053   1.093   8.896  0.9277  0.2607  1.2413
  155SAPE  H14Y17332  -0.018   0.934   8.897 -0.1673 -0.6661 -0.3925
  155SAPE  C31517333   0.190   0.937   8.857  0.6286  0.0425  0.4159
  155SAPE  H15X17334   0.231   0.848   8.909 -0.7288 -0.6361  0.3563
  155SAPE  H15Y17335   0.263   1.021   8.856  1.2403 -0.4594 -2.0519
  155SAPE  C31617336   0.144   0.888   8.724 -0.5434 -0.6017  0.0974
  155SAPE  H16X17337   0.080   0.967   8.681  1.1573  0.5296 -0.4343
  155SAPE  H16Y17338   0.074   0.802   8.735 -1.6442  0.3274  0.5488
  155SAPE  C31717339   0.259   0.861   8.626 -0.6456  0.3373 -0.3882
  155SAPE  H17X17340   0.328   0.947   8.613  0.0451 -0.3421 -1.3227
  155SAPE  H17Y17341   0.218   0.848   8.523 -0.3099  2.4905 -0.8570
  155SAPE  C31817342   0.340   0.733   8.665  0.1153 -0.2411  0.3248
  155SAPE  H18X17343   0.412   0.753   8.747  2.0804  0.3860 -1.4382
  155SAPE  H18Y17344   0.400   0.695   8.579  0.1026  0.1714  0.1288
  155SAPE  H18Z17345   0.273   0.655   8.706 -0.3539  1.2730  2.6233
  156SAPE     N17346   5.220   5.101  10.876  0.2254 -0.4742 -0.0839
  156SAPE   HN117347   5.301   5.042  10.905  0.1121 -2.0561 -2.6338
  156SAPE   HN217348   5.138   5.081  10.935 -0.3711 -0.1845 -0.7960
  156SAPE   HN317349   5.197   5.078  10.777 -1.2162 -1.4654  0.4483
  156SAPE   C1217350   5.262   5.249  10.880  0.4921  0.3093  0.4455
  156SAPE  H12A17351   5.372   5.243  10.870  0.4184  0.1075 -0.3224
  156SAPE  H12B17352   5.214   5.277  10.976 -0.2029 -0.7474  0.4240
  156SAPE   C1117353   5.201   5.317  10.755 -0.9119  0.0033 -0.0068
  156SAPE  H11A17354   5.249   5.284  10.660  1.1807 -0.4819  1.1736
  156SAPE  H11B17355   5.212   5.426  10.768  0.0831 -0.2538  1.4069
  156SAPE     P17356   4.984   5.327  10.610  0.3104 -0.3507 -0.0270
  156SAPE   O1317357   4.898   5.213  10.564  0.3743  0.0894 -0.2531
  156SAPE   O1417358   4.915   5.461  10.636 -0.1834  0.3279  0.9473
  156SAPE   O1217359   5.065   5.295  10.743  0.1414  0.5675  0.1542
  156SAPE   O1117360   5.088   5.344  10.502 -0.0148  0.2853  0.6924
  156SAPE    C117361   5.169   5.460  10.485  0.0176 -0.4001  0.9828
  156SAPE    HA17362   5.114   5.556  10.496 -0.1559  0.5678 -4.9284
  156SAPE    HB17363   5.251   5.464  10.560 -1.1155 -3.6449  2.5924
  156SAPE    C217364   5.224   5.476  10.344 -0.4609  0.4125  1.3642
  156SAPE    HS17365   5.279   5.572  10.338  1.1032 -0.5138 -0.0103
  156SAPE   O2117366   5.117   5.472  10.247  0.0485  0.7547  0.0889
  156SAPE   C2117367   5.062   5.588  10.228  0.4305 -0.1345  0.0978
  156SAPE   O2217368   5.097   5.698  10.271  0.8366  0.5080 -0.1078
  156SAPE   C2217369   4.967   5.569  10.115  0.1042 -0.6151  0.0045
  156SAPE   H2R17370   4.865   5.559  10.157 -0.1652 -1.5316 -0.8327
  156SAPE   H2S17371   4.957   5.665  10.059  3.5682  0.3138  0.7230
  156SAPE    C317372   5.330   5.366  10.309 -0.8941 -0.0655 -0.1735
  156SAPE    HX17373   5.280   5.274  10.345  1.2886 -0.2943  2.5966
  156SAPE    HY17374   5.420   5.383  10.373 -2.4668  0.0318  2.1277
  156SAPE   O3117375   5.370   5.361  10.167 -0.3035  0.1330 -0.1019
  156SAPE   C3117376   5.407   5.244  10.122  0.5414 -0.3234 -0.4428
  156SAPE   O3217377   5.406   5.137  10.188  1.0289  0.2521  0.3110
  156SAPE   C3217378   5.453   5.264   9.976 -0.2601 -0.4582 -0.4092
  156SAPE   H2X17379   5.543   5.329   9.969 -0.3066 -0.5483 -2.3273
  156SAPE   H2Y17380   5.376   5.324   9.922 -0.5790  0.8051  1.3556
  156SAPE   C2317381   4.993   5.466  10.002 -0.0282 -0.5525  0.1683
  156SAPE   H3R17382   4.984   5.364  10.045  0.8396 -0.1341  1.4212
  156SAPE   H3S17383   5.096   5.478   9.963  0.2127  0.2159  0.9957
  156SAPE   C2417384   4.891   5.470   9.882  0.1895  0.4553 -0.0339
  156SAPE   H4R17385   4.911   5.573   9.845  0.5251  0.7813  0.9884
  156SAPE   H4S17386   4.785   5.472   9.915 -0.0707 -0.0334 -0.8225
  156SAPE   C2517387   4.895   5.357   9.781 -0.2077 -0.3632  0.6513
  156SAPE   H5R17388   4.853   5.261   9.814  1.7270 -2.1499 -1.7150
  156SAPE   C2617389   4.945   5.363   9.656  0.0833  0.1414 -0.8532
  156SAPE   H6R17390   4.936   5.272   9.596 -0.6455  0.2517 -0.9230
  156SAPE   C2717391   5.011   5.479   9.590 -0.3955 -0.1919 -0.5498
  156SAPE   H7R17392   5.073   5.540   9.659 -0.6775 -2.5782  2.0194
  156SAPE   H7S17393   4.932   5.549   9.555  1.1316  1.2441 -1.2256
  156SAPE   C2817394   5.110   5.427   9.482  1.0790 -0.1193  0.1410
  156SAPE   H8R17395   5.204   5.393   9.526  1.3063  0.7991  0.3931
  156SAPE   C2917396   5.074   5.409   9.350 -1.0256 -0.7187 -0.8751
  156SAPE   H9R17397   5.154   5.387   9.277 -0.7455 -0.7856 -0.5487
  156SAPE  C21017398   4.942   5.437   9.295  0.7754 -0.1836  0.6326
  156SAPE  H10R17399   4.945   5.548   9.286 -0.0780 -0.1832  0.3126
  156SAPE  H10S17400   4.854   5.428   9.362 -0.4674 -2.8087 -1.1778
  156SAPE  C21117401   4.915   5.357   9.163  0.2027 -0.5345 -0.2574
  156SAPE  H11R17402   4.856   5.266   9.178  2.0324 -1.7542 -0.1391
  156SAPE  C21217403   4.966   5.386   9.045  0.0069 -0.2889  0.0333
  156SAPE  H12R17404   4.933   5.327   8.958  1.1377 -0.7663 -0.0791
  156SAPE  C21317405   5.060   5.500   9.003  0.3405 -0.0746  0.2604
  156SAPE  H13R17406   5.158   5.453   8.984  1.1775  2.0094 -0.9257
  156SAPE  H13S17407   5.065   5.585   9.074 -1.1695  1.7229 -1.6322
  156SAPE  C21417408   5.026   5.558   8.866  0.1072 -0.5564  0.3078
  156SAPE  H14R17409   5.070   5.505   8.781 -0.4693 -0.5403 -0.0030
  156SAPE  C21517410   4.938   5.667   8.847  0.1631  0.2393  0.4736
  156SAPE  H15R17411   4.918   5.711   8.748  3.9170 -1.5773 -1.2896
  156SAPE  C21617412   4.878   5.750   8.962 -0.5346 -0.4046 -0.8183
  156SAPE  H16R17413   4.877   5.703   9.063  0.1584 -0.3844 -0.7937
  156SAPE  H16S17414   4.778   5.792   8.938  0.2503  0.9803 -1.8193
  156SAPE  C21717415   4.950   5.887   8.972  0.3775 -0.3046  0.1660
  156SAPE  H17R17416   5.057   5.869   8.999  1.1185  2.3189 -0.7772
  156SAPE  H17S17417   4.907   5.943   9.058  1.7294 -0.1021  0.7368
  156SAPE  C21817418   4.940   5.983   8.852 -0.5845  0.8812  0.2825
  156SAPE  H18R17419   4.978   5.935   8.759 -2.6137 -2.0748  0.8256
  156SAPE  H18S17420   5.011   6.068   8.861  0.7964 -0.0950 -0.9086
  156SAPE  C21917421   4.804   6.042   8.827 -0.3575 -0.0437  0.5472
  156SAPE  H19R17422   4.725   5.965   8.837 -0.5311  0.1224  0.4748
  156SAPE  H19S17423   4.791   6.073   8.721 -4.4412  2.2739  1.4866
  156SAPE  C22017424   4.776   6.160   8.918 -0.3873  0.2400 -0.5881
  156SAPE  H20R17425   4.772   6.121   9.022 -0.5684  1.3212 -0.1744
  156SAPE  H20S17426   4.683   6.211   8.885  1.9671  3.1406 -3.4102
  156SAPE  H20T17427   4.860   6.233   8.921 -2.8053  3.1972  1.2275
  156SAPE   C3317428   5.489   5.131   9.908  0.7051  0.3546  0.1391
  156SAPE   H3X17429   5.398   5.070   9.888  0.5805 -0.0289  1.8012
  156SAPE   H3Y17430   5.551   5.067   9.973 -0.1915  0.5053  1.1788
  156SAPE   C3417431   5.545   5.150   9.765 -0.4639  0.7165 -0.3516
  156SAPE   H4X17432   5.561   5.046   9.732 -0.0568  1.4133 -2.5244
  156SAPE   H4Y17433   5.641   5.206   9.754 -1.1698  2.0538  0.0443
  156SAPE   C3517434   5.455   5.214   9.662  0.0430 -0.6371 -0.0137
  156SAPE   H5X17435   5.451   5.320   9.696  0.8455 -1.0590  1.5113
  156SAPE   H5Y17436   5.357   5.163   9.655 -0.2340  0.1386 -2.7573
  156SAPE   C3617437   5.523   5.213   9.529 -0.5734  0.0243  0.6523
  156SAPE   H6X17438   5.622   5.261   9.542 -0.5469  0.4594 -0.9584
  156SAPE   H6Y17439   5.471   5.272   9.450  0.8835  0.3207 -0.1262
  156SAPE   C3717440   5.534   5.073   9.472 -0.0057 -0.3784 -0.1264
  156SAPE   H7X17441   5.431   5.030   9.470 -0.8152  1.2158  2.5843
  156SAPE   H7Y17442   5.595   5.006   9.537 -0.8553  0.6761  1.8612
  156SAPE   C3817443   5.590   5.054   9.330  0.0684 -0.8574  0.1688
  156SAPE   H8X17444   5.688   5.107   9.329 -0.3006 -0.1785 -0.8248
  156SAPE   H8Y17445   5.528   5.123   9.270  0.3735  1.4943  2.3540
  156SAPE   C3917446   5.596   4.922   9.265  0.7500 -0.2801  0.1860
  156SAPE   H9X17447   5.502   4.865   9.282 -0.4262  1.8150  1.1488
  156SAPE   H9Y17448   5.682   4.877   9.320 -0.2775 -0.6059  1.5999
  156SAPE  C31017449   5.602   4.923   9.115 -0.4576  0.1804 -0.0685
  156SAPE  H10X17450   5.707   4.941   9.084 -0.4620 -0.2707 -0.3611
  156SAPE  H10Y17451   5.542   5.004   9.069  1.4799  0.8192 -1.5606
  156SAPE  C31117452   5.554   4.791   9.054  0.7217  0.3882  0.6583
  156SAPE  H11X17453   5.447   4.776   9.082 -0.4144  0.3430 -3.0938
  156SAPE  H11Y17454   5.607   4.709   9.107  1.3775  0.3442 -0.0469
  156SAPE  C31217455   5.574   4.777   8.902  0.3427  0.0417  0.4027
  156SAPE  H12X17456   5.535   4.874   8.867 -0.9522 -0.2247  1.0620
  156SAPE  H12Y17457   5.517   4.696   8.852 -0.5041  1.6556 -1.3584
  156SAPE  C31317458   5.723   4.748   8.876  0.0119  0.0764  0.0879
  156SAPE  H13X17459   5.744   4.643   8.904 -0.3168 -0.2629 -0.8997
  156SAPE  H13Y17460   5.776   4.816   8.946  1.1165 -1.1252  0.4443
  156SAPE  C31417461   5.764   4.761   8.724  0.0344 -0.2123 -0.0148
  156SAPE  H14X17462   5.695   4.698   8.664 -0.1047  2.1067 -2.4475
  156SAPE  H14Y17463   5.866   4.717   8.710  0.7140  1.0607  0.7620
  156SAPE  C31517464   5.752   4.902   8.669  0.1632 -0.7650 -0.6883
  156SAPE  H15X17465   5.822   4.959   8.733 -0.4323 -0.4564 -0.3044
  156SAPE  H15Y17466   5.649   4.938   8.685  0.1470 -1.6113  1.4274
  156SAPE  C31617467   5.789   4.898   8.520  0.0846 -0.5830 -0.0247
  156SAPE  H16X17468   5.763   4.998   8.479  0.6679 -0.7331 -0.7896
  156SAPE  H16Y17469   5.710   4.828   8.485  0.9280 -0.6525 -1.8886
  156SAPE  C31717470   5.936   4.848   8.487  0.6502 -0.6303  0.9185
  156SAPE  H17X17471   5.946   4.744   8.523 -1.6576 -1.3064 -0.1859
  156SAPE  H17Y17472   6.005   4.915   8.542  0.3701  0.8476 -0.4237
  156SAPE  C31817473   5.965   4.851   8.333  0.1630  0.6687  0.2638
  156SAPE  H18X17474   6.072   4.850   8.303  0.5782  2.2234  1.5721
  156SAPE  H18Y17475   5.915   4.941   8.290 -2.4877 -0.7825  0.1449
  156SAPE  H18Z17476   5.913   4.766   8.283  1.9490 -1.1758  1.3827
  157SAPE     N17477   4.591   1.187  10.953 -0.0681 -0.4939 -0.1635
  157SAPE   HN117478   4.671   1.124  10.933  1.9526  1.2004  1.9725
  157SAPE   HN217479   4.540   1.167  11.042 -2.9939  1.8985 -1.1560
  157SAPE   HN317480   4.531   1.168  10.871  0.7057 -0.3285 -0.7718
  157SAPE   C1217481   4.625   1.328  10.977 -0.5616  0.1545  0.2478
  157SAPE  H12A17482   4.705   1.334  11.055 -0.5873  1.7350  0.1911
  157SAPE  H12B17483   4.529   1.377  11.005 -1.3184  0.3025 -2.3854
  157SAPE   C1117484   4.672   1.398  10.842  0.1201  0.1344  0.3796
  157SAPE  H11A17485   4.756   1.345  10.793  0.0292 -0.5427  0.9354
  157SAPE  H11B17486   4.722   1.494  10.863 -0.1067  0.3284  0.0505
  157SAPE     P17487   4.577   1.437  10.603  0.2533  0.2850 -0.2724
  157SAPE   O1317488   4.566   1.303  10.544  0.6710  0.4890 -0.3228
  157SAPE   O1417489   4.496   1.549  10.554 -0.4377 -0.2922  0.5456
  157SAPE   O1217490   4.559   1.425  10.758 -0.5913  0.0741 -0.3921
  157SAPE   O1117491   4.723   1.483  10.588 -0.4073  0.2720  0.0427
  157SAPE    C117492   4.779   1.602  10.556  0.3877 -0.4486  0.8778
  157SAPE    HA17493   4.703   1.680  10.579  0.7751 -0.1564  1.1955
  157SAPE    HB17494   4.872   1.620  10.614  1.4803 -1.1589 -0.5883
  157SAPE    C217495   4.802   1.617  10.401 -0.5517  0.1268  0.0247
  157SAPE    HS17496   4.707   1.650  10.353 -1.0528 -1.7082 -0.3225
  157SAPE   O2117497   4.841   1.491  10.338  0.5133  0.4382 -0.0194
  157SAPE   C2117498   4.818   1.479  10.206 -0.3854  0.4092 -0.2946
  157SAPE   O2217499   4.762   1.563  10.139 -0.2635 -0.1879  0.0797
  157SAPE   C2217500   4.879   1.351  10.145  0.5606  0.0987  0.2077
  157SAPE   H2R17501   4.914   1.287  10.229  0.6327 -1.0999 -0.7073
  157SAPE   H2S17502   4.790   1.298  10.105  0.7410  0.3286 -0.5096
  157SAPE    C317503   4.904   1.735  10.390 -0.1708 -0.3972 -0.7829
  157SAPE    HX17504   4.984   1.709  10.462 -1.8120 -2.0651  0.5247
  157SAPE    HY17505   4.871   1.830  10.438  1.9212 -0.2328  0.4304
  157SAPE   O3117506   4.948   1.764  10.256  0.0978 -0.3346  0.2217
  157SAPE   C3117507   4.876   1.852  10.189  0.5163  0.3839  0.4877
  157SAPE   O3217508   4.773   1.910  10.230  0.1249  0.1142 -0.0396
  157SAPE   C3217509   4.944   1.863  10.056 -0.1725 -0.2699 -0.5756
  157SAPE   H2X17510   4.919   1.782   9.985  0.6720 -0.2972 -0.8575
  157SAPE   H2Y17511   5.053   1.850  10.077 -0.6729 -1.8760  1.3591
  157SAPE   C2317512   4.978   1.374  10.027 -0.3337 -0.4354 -0.1212
  157SAPE   H3R17513   5.058   1.437  10.072 -0.6053 -0.1100 -0.0903
  157SAPE   H3S17514   4.932   1.437   9.948 -1.2797 -1.1352 -0.1517
  157SAPE   C2417515   5.034   1.240   9.975 -0.5830  0.5073 -1.0642
  157SAPE   H4R17516   5.118   1.212  10.041  0.6036  0.2442 -2.6344
  157SAPE   H4S17517   5.082   1.262   9.877 -0.0112  0.4311 -0.8045
  157SAPE   C2517518   4.938   1.120   9.961 -0.1659 -1.0809  0.3640
  157SAPE   H5R17519   4.918   1.065  10.054  0.4479  2.3751  2.7488
  157SAPE   C2617520   4.884   1.085   9.847  0.1223 -0.0174  0.4143
  157SAPE   H6R17521   4.812   1.002   9.859 -2.0060  1.5930 -0.4722
  157SAPE   C2717522   4.903   1.145   9.710  0.1761 -0.4159  0.4708
  157SAPE   H7R17523   4.941   1.249   9.720 -0.9437 -0.1364  2.4157
  157SAPE   H7S17524   4.803   1.164   9.665  0.8754  1.0817 -0.5280
  157SAPE   C2817525   5.000   1.065   9.626 -0.6627  0.3982 -0.3002
  157SAPE   H8R17526   5.086   1.033   9.688 -0.5154  2.3379  0.5674
  157SAPE   C2917527   4.994   1.035   9.495  0.1028 -0.2197 -0.6029
  157SAPE   H9R17528   5.090   1.003   9.452 -0.6648  0.2839 -2.8410
  157SAPE  C21017529   4.886   1.096   9.403 -0.3437 -0.2653  0.6076
  157SAPE  H10R17530   4.930   1.191   9.367  0.6673 -0.9631 -0.0556
  157SAPE  H10S17531   4.796   1.120   9.463 -0.5244 -1.5917  0.9089
  157SAPE  C21117532   4.841   1.006   9.295  0.0289  0.6191 -0.3207
  157SAPE  H11R17533   4.771   0.932   9.336 -0.1981  1.8286  1.5909
  157SAPE  C21217534   4.866   1.011   9.165 -1.0022 -0.3257  0.1280
  157SAPE  H12R17535   4.812   0.940   9.101  0.9546 -1.7708 -0.0091
  157SAPE  C21317536   4.944   1.116   9.089 -0.7558 -0.6462  0.4700
  157SAPE  H13R17537   5.034   1.061   9.054 -0.2143  0.7181 -0.3780
  157SAPE  H13S17538   4.973   1.209   9.143 -0.7571  1.5012 -2.9165
  157SAPE  C21417539   4.870   1.165   8.962  0.4656 -0.2816  0.4984
  157SAPE  H14R17540   4.762   1.144   8.962  0.4244 -0.3860 -2.0757
  157SAPE  C21517541   4.924   1.237   8.864 -0.0806 -1.0355  0.0977
  157SAPE  H15R17542   4.862   1.274   8.780  3.6031  0.2550 -2.2982
  157SAPE  C21617543   5.075   1.276   8.861 -0.1155  0.6152  0.3612
  157SAPE  H16R17544   5.141   1.217   8.928 -0.7303  1.5247  1.8207
  157SAPE  H16S17545   5.090   1.383   8.886 -0.5963  0.9249 -0.6097
  157SAPE  C21717546   5.128   1.247   8.717  0.4766 -0.1470 -0.1967
  157SAPE  H17R17547   5.100   1.145   8.684  2.3451 -1.7605  2.7959
  157SAPE  H17S17548   5.235   1.266   8.738 -0.0788  3.7231 -0.1061
  157SAPE  C21817549   5.089   1.346   8.606 -0.4546 -0.3720  0.2997
  157SAPE  H18R17550   5.121   1.448   8.634  0.9724 -1.2367  2.0090
  157SAPE  H18S17551   4.978   1.344   8.603 -0.4488  0.0988 -0.4364
  157SAPE  C21917552   5.149   1.315   8.468  0.6500 -0.3646  0.3639
  157SAPE  H19R17553   5.115   1.399   8.403  0.8487 -1.1212 -0.7298
  157SAPE  H19S17554   5.095   1.227   8.428 -1.3468  0.8024  0.3525
  157SAPE  C22017555   5.302   1.301   8.460 -0.9955 -0.9488 -0.2680
  157SAPE  H20R17556   5.346   1.389   8.512  1.4912 -1.4843 -1.3494
  157SAPE  H20S17557   5.337   1.298   8.354 -0.6030  1.8774 -0.2926
  157SAPE  H20T17558   5.333   1.211   8.516  2.6625  0.9447  1.0921
  157SAPE   C3317559   4.913   1.999   9.989 -0.0145 -0.2782  0.9615
  157SAPE   H3X17560   4.931   2.087  10.054 -0.4818 -0.1351  0.8943
  157SAPE   H3Y17561   4.804   2.011   9.977  0.1564 -0.2520 -1.0135
  157SAPE   C3417562   4.978   2.011   9.845  0.0626 -0.3838 -0.1760
  157SAPE   H4X17563   5.089   2.004   9.845  0.0916 -0.1351 -1.4451
  157SAPE   H4Y17564   4.961   2.117   9.815 -0.9048 -0.5584 -0.2899
  157SAPE   C3517565   4.909   1.926   9.738 -0.1314  0.6492  0.6959
  157SAPE   H5X17566   4.806   1.959   9.716 -0.9715 -2.2426 -0.2215
  157SAPE   H5Y17567   4.896   1.823   9.778  3.0610  0.3577  1.2606
  157SAPE   C3617568   4.994   1.919   9.609  0.4491  0.4826 -0.1478
  157SAPE   H6X17569   5.074   1.843   9.625  0.4532  0.8836  1.9997
  157SAPE   H6Y17570   5.050   2.012   9.585  1.1102  0.0012 -0.5103
  157SAPE   C3717571   4.899   1.885   9.480 -0.7998 -0.3114 -0.7505
  157SAPE   H7X17572   4.847   1.793   9.514  1.0092 -0.6389  1.4126
  157SAPE   H7Y17573   4.973   1.866   9.398  2.5354  4.4989  0.7182
  157SAPE   C3817574   4.804   2.001   9.441 -0.6292  0.2105  0.7069
  157SAPE   H8X17575   4.852   2.097   9.473  2.8757 -1.0052 -0.4881
  157SAPE   H8Y17576   4.708   1.996   9.497  0.1593  0.2995  2.1120
  157SAPE   C3917577   4.774   1.995   9.289  0.0714 -0.3357  0.3271
  157SAPE   H9X17578   4.710   1.906   9.274  0.1956 -0.4996  0.7563
  157SAPE   H9Y17579   4.864   1.972   9.229 -1.2096 -0.8819 -1.4747
  157SAPE  C31017580   4.712   2.120   9.224  0.0848 -0.3674  0.0964
  157SAPE  H10X17581   4.774   2.210   9.242  0.2971 -0.6332  0.7259
  157SAPE  H10Y17582   4.612   2.129   9.273 -0.0663  2.0419 -0.5208
  157SAPE  C31117583   4.678   2.097   9.079 -0.2036 -0.6183 -0.2749
  157SAPE  H11X17584   4.625   2.002   9.056 -0.7550  0.1844 -2.6124
  157SAPE  H11Y17585   4.774   2.091   9.022 -0.6469 -0.6804 -1.0211
  157SAPE  C31217586   4.598   2.216   9.018 -0.1147  0.4649  0.0455
  157SAPE  H12X17587   4.664   2.301   8.991  0.5136 -0.3498 -1.0312
  157SAPE  H12Y17588   4.520   2.247   9.092 -0.7066  1.1057 -0.8293
  157SAPE  C31317589   4.520   2.182   8.891  0.5915  0.6283  0.0692
  157SAPE  H13X17590   4.423   2.135   8.918  0.3493  1.5470  0.8026
  157SAPE  H13Y17591   4.583   2.131   8.814  1.0237  0.8977  0.2410
  157SAPE  C31417592   4.472   2.315   8.824  0.1468 -0.1495 -0.5030
  157SAPE  H14X17593   4.560   2.379   8.802  1.0633 -1.6657 -1.4990
  157SAPE  H14Y17594   4.389   2.362   8.880  0.5062  0.0953 -0.1770
  157SAPE  C31517595   4.416   2.270   8.689  0.4017  0.5617  0.0692
  157SAPE  H15X17596   4.341   2.189   8.708  2.7982 -1.2467  2.7327
  157SAPE  H15Y17597   4.501   2.223   8.635 -0.5607 -0.1981 -0.8508
  157SAPE  C31617598   4.374   2.382   8.587 -0.0822 -0.4845  0.1495
  157SAPE  H16X17599   4.459   2.454   8.579 -0.6069  0.0797 -0.4821
  157SAPE  H16Y17600   4.281   2.422   8.632  0.5581 -0.8036  1.8515
  157SAPE  C31717601   4.339   2.321   8.453 -0.3375  0.5750  0.3813
  157SAPE  H17X17602   4.415   2.249   8.416 -2.2801 -0.2780 -2.2603
  157SAPE  H17Y17603   4.345   2.401   8.377 -2.4716  0.1153 -0.3378
  157SAPE  C31817604   4.207   2.255   8.454 -0.0807 -0.1338 -0.3778
  157SAPE  H18X17605   4.191   2.206   8.355  1.1909  0.0817 -0.6984
  157SAPE  H18Y17606   4.141   2.345   8.458  1.1298  0.9040 -2.3994
  157SAPE  H18Z17607   4.200   2.176   8.533 -1.3711  2.2680  2.0858
  158SAPE     N17608   6.229   5.417  10.755  0.4849  0.2341 -0.4442
  158SAPE   HN117609   6.201   5.332  10.809 -0.0426 -1.4903 -3.1881
  158SAPE   HN217610   6.332   5.426  10.746  0.4794  0.1527 -0.6076
  158SAPE   HN317611   6.187   5.498  10.804 -1.8907 -1.7195  1.0017
  158SAPE   C1217612   6.167   5.407  10.613  0.4035  0.0857 -0.7533
  158SAPE  H12A17613   6.213   5.320  10.562  2.8470  0.8271  0.0584
  158SAPE  H12B17614   6.186   5.505  10.564 -1.8362  1.1846  0.4363
  158SAPE   C1117615   6.012   5.397  10.625  0.4107 -0.0732 -0.2062
  158SAPE  H11A17616   5.994   5.313  10.695  0.2229  0.3421  0.2515
  158SAPE  H11B17617   5.971   5.377  10.523 -1.6957 -3.0115  1.0759
  158SAPE     P17618   5.877   5.624  10.609 -0.0556 -0.3145  0.1208
  158SAPE   O1317619   5.841   5.739  10.695 -0.3848  0.5119  0.3926
  158SAPE   O1417620   5.953   5.658  10.482 -0.0113 -0.0392 -0.3020
  158SAPE   O1217621   5.959   5.513  10.691  0.0200  0.0739 -0.1606
  158SAPE   O1117622   5.748   5.546  10.569 -0.1886  0.5203 -0.3650
  158SAPE    C117623   5.652   5.616  10.486  0.3473 -0.2050 -1.1147
  158SAPE    HA17624   5.556   5.559  10.492  0.5724 -0.5195 -0.4274
  158SAPE    HB17625   5.628   5.720  10.518  1.0961 -0.0708 -0.9774
  158SAPE    C217626   5.689   5.613  10.332  0.0065 -0.1121  0.2831
  158SAPE    HS17627   5.762   5.694  10.313 -0.5653 -0.1937 -2.7061
  158SAPE   O2117628   5.570   5.638  10.259 -0.3811 -0.1675  0.6722
  158SAPE   C2117629   5.526   5.773  10.263 -0.0857  0.0372  0.2172
  158SAPE   O2217630   5.579   5.856  10.328  0.7710 -0.5207  0.5673
  158SAPE   C2217631   5.403   5.786  10.166 -0.4984 -0.0057  0.0353
  158SAPE   H2R17632   5.387   5.684  10.125  1.3649  0.0008 -0.8061
  158SAPE   H2S17633   5.319   5.824  10.229 -1.3075 -0.6580 -0.6211
  158SAPE    C317634   5.755   5.470  10.292  0.5092 -0.5621  0.6768
  158SAPE    HX17635   5.694   5.399  10.353 -2.3562  1.2253  0.0809
  158SAPE    HY17636   5.859   5.466  10.332  0.6274 -1.1651  0.3286
  158SAPE   O3117637   5.745   5.435  10.154  0.4798 -0.5084 -0.0810
  158SAPE   C3117638   5.816   5.513  10.077 -0.3755 -0.1333  0.2048
  158SAPE   O3217639   5.888   5.609  10.113  0.3853 -0.4370 -0.5635
  158SAPE   C3217640   5.785   5.472   9.932 -0.2521 -0.0775  0.1936
  158SAPE   H2X17641   5.676   5.457   9.923 -0.2370  0.2911 -0.6366
  158SAPE   H2Y17642   5.832   5.372   9.924  0.8650  0.4009  0.4782
  158SAPE   C2317643   5.436   5.877  10.044  0.1716 -0.0366 -0.0718
  158SAPE   H3R17644   5.496   5.962  10.084 -0.3429 -0.2264  1.1476
  158SAPE   H3S17645   5.336   5.918  10.020 -0.1456  0.4956  1.9827
  158SAPE   C2417646   5.512   5.793   9.947 -0.1108  0.2951 -0.2324
  158SAPE   H4R17647   5.473   5.689   9.941  0.1184  0.0807  1.4573
  158SAPE   H4S17648   5.615   5.777   9.986 -0.4990 -0.9563  0.3393
  158SAPE   C2517649   5.532   5.876   9.823  0.2035 -0.6335 -0.1838
  158SAPE   H5R17650   5.562   5.979   9.848 -2.1943 -0.0842  0.6760
  158SAPE   C2617651   5.504   5.849   9.694 -0.1418  0.1719  0.6268
  158SAPE   H6R17652   5.508   5.927   9.616 -0.7709  0.4334  0.8517
  158SAPE   C2717653   5.451   5.717   9.645 -0.4064  0.2378  0.3509
  158SAPE   H7R17654   5.437   5.649   9.731 -0.0821 -1.2675 -0.7378
  158SAPE   H7S17655   5.530   5.676   9.579 -0.4667  0.8319 -0.1018
  158SAPE   C2817656   5.322   5.733   9.568  0.7584 -0.2627  0.3022
  158SAPE   H8R17657   5.228   5.727   9.625 -0.0460  3.2567 -0.4491
  158SAPE   C2917658   5.299   5.773   9.443  0.1849  0.7182 -0.3221
  158SAPE   H9R17659   5.198   5.765   9.400 -0.3607 -1.2744  1.1707
  158SAPE  C21017660   5.409   5.795   9.340 -0.6569  0.3149  0.6868
  158SAPE  H10R17661   5.501   5.835   9.387 -0.1141 -0.0072 -0.0975
  158SAPE  H10S17662   5.371   5.867   9.265  1.9686  1.2937  0.2020
  158SAPE  C21117663   5.442   5.669   9.278  0.6687 -0.3400  0.2804
  158SAPE  H11R17664   5.486   5.597   9.348 -0.6569 -1.3135  0.1549
  158SAPE  C21217665   5.419   5.643   9.150  0.8165  0.6818  0.2442
  158SAPE  H12R17666   5.460   5.547   9.115  0.1926 -0.7429  3.0610
  158SAPE  C21317667   5.360   5.735   9.046  0.4390  0.7963 -0.7707
  158SAPE  H13R17668   5.265   5.780   9.081  0.7292  2.0455 -1.5072
  158SAPE  H13S17669   5.319   5.673   8.963 -0.1858  1.3026 -0.8466
  158SAPE  C21417670   5.454   5.839   8.996 -0.8414  0.6399  0.4551
  158SAPE  H14R17671   5.500   5.906   9.070 -0.5828 -0.2440  1.1178
  158SAPE  C21517672   5.495   5.858   8.874  0.1706 -0.2653 -0.2125
  158SAPE  H15R17673   5.569   5.940   8.866 -0.8634  0.8763  1.3013
  158SAPE  C21617674   5.457   5.791   8.748  0.5888  0.1796 -0.3666
  158SAPE  H16R17675   5.370   5.726   8.767 -0.2558  1.7068  1.2694
  158SAPE  H16S17676   5.542   5.728   8.714 -0.9390 -1.5929 -1.0146
  158SAPE  C21717677   5.419   5.896   8.634 -0.7424  0.3619 -0.3963
  158SAPE  H17R17678   5.425   5.838   8.539 -0.7346 -1.1687  0.5080
  158SAPE  H17S17679   5.498   5.974   8.640  0.2397 -0.7128  1.6724
  158SAPE  C21817680   5.285   5.968   8.665  0.3609 -0.2385 -0.6353
  158SAPE  H18R17681   5.281   5.994   8.773 -0.9345 -1.7494 -0.2752
  158SAPE  H18S17682   5.210   5.889   8.643 -0.2546 -0.6832  2.5787
  158SAPE  C21917683   5.278   6.099   8.584 -0.5381 -0.1327  0.2535
  158SAPE  H19R17684   5.324   6.077   8.486 -0.0955 -0.8916  0.6247
  158SAPE  H19S17685   5.339   6.173   8.640  0.7391 -2.3376  1.9326
  158SAPE  C22017686   5.138   6.172   8.584  0.1458  0.9019  0.2598
  158SAPE  H20R17687   5.062   6.109   8.532 -1.3684  2.5619  0.3710
  158SAPE  H20S17688   5.144   6.271   8.534 -3.4471  0.7190 -0.8545
  158SAPE  H20T17689   5.095   6.172   8.687  1.1436 -0.3700  0.7061
  158SAPE   C3317690   5.827   5.557   9.815 -0.1658  0.0566 -0.5943
  158SAPE   H3X17691   5.937   5.542   9.821 -0.4829 -1.9768  2.3964
  158SAPE   H3Y17692   5.806   5.664   9.835  0.2638  0.1900 -0.8623
  158SAPE   C3417693   5.778   5.492   9.687  0.9295 -0.3858 -0.3168
  158SAPE   H4X17694   5.668   5.506   9.681  0.8977 -0.9314 -1.2404
  158SAPE   H4Y17695   5.786   5.381   9.697  2.3527 -0.5598 -2.6584
  158SAPE   C3517696   5.847   5.521   9.557  0.0895 -0.2584 -0.0256
  158SAPE   H5X17697   5.956   5.505   9.560 -0.2805 -3.0568  1.3835
  158SAPE   H5Y17698   5.826   5.626   9.526 -0.7254  0.6875  3.3091
  158SAPE   C3617699   5.793   5.435   9.437  0.1247  0.3740 -0.5239
  158SAPE   H6X17700   5.690   5.476   9.422 -0.4155  0.3376  2.3397
  158SAPE   H6Y17701   5.785   5.327   9.462 -0.7857  0.5459 -0.0072
  158SAPE   C3717702   5.856   5.451   9.299 -0.2143 -0.1994 -0.4124
  158SAPE   H7X17703   5.965   5.442   9.317 -0.0472  1.7147 -0.2373
  158SAPE   H7Y17704   5.835   5.555   9.266 -0.1279  0.0891  0.4160
  158SAPE   C3817705   5.812   5.364   9.183  0.3841 -0.5958 -0.2497
  158SAPE   H8X17706   5.820   5.256   9.207 -0.0609 -0.8679 -1.2724
  158SAPE   H8Y17707   5.882   5.373   9.097  0.1493 -0.2678 -0.4102
  158SAPE   C3917708   5.667   5.403   9.137  0.2024  0.4584 -0.1548
  158SAPE   H9X17709   5.652   5.503   9.091 -1.1846  0.0982 -0.5324
  158SAPE   H9Y17710   5.597   5.403   9.223 -0.7090  0.6405 -0.8660
  158SAPE  C31017711   5.621   5.304   9.027 -0.2546 -0.1909  0.4781
  158SAPE  H10X17712   5.623   5.201   9.068 -2.0294 -1.6095 -2.6076
  158SAPE  H10Y17713   5.688   5.315   8.939 -1.3716  1.7843 -0.1880
  158SAPE  C31117714   5.485   5.334   8.978  0.3540 -0.0334  0.0062
  158SAPE  H11X17715   5.476   5.433   8.930 -3.1776  0.3084  1.0562
  158SAPE  H11Y17716   5.408   5.309   9.055  2.5449 -3.0503  1.4386
  158SAPE  C31217717   5.433   5.239   8.864 -0.3372  0.3137 -0.5009
  158SAPE  H12X17718   5.466   5.135   8.885  1.5065  1.0114  0.2583
  158SAPE  H12Y17719   5.476   5.270   8.767 -0.9311 -0.4734 -1.0275
  158SAPE  C31317720   5.287   5.249   8.826  0.7540  0.2540  0.3766
  158SAPE  H13X17721   5.279   5.354   8.791 -1.1859 -0.1309 -0.5172
  158SAPE  H13Y17722   5.211   5.244   8.907  1.1863 -0.2741  0.7573
  158SAPE  C31417723   5.246   5.151   8.713  0.3766 -0.2294  0.4199
  158SAPE  H14X17724   5.282   5.047   8.726  1.9184 -0.1177 -2.2323
  158SAPE  H14Y17725   5.299   5.196   8.626 -1.6432  0.5953 -0.4490
  158SAPE  C31517726   5.098   5.163   8.677 -0.2122  0.2468 -0.5637
  158SAPE  H15X17727   5.070   5.270   8.683 -2.8279 -0.4114  0.3366
  158SAPE  H15Y17728   5.029   5.115   8.750 -2.5215  0.7072 -2.2971
  158SAPE  C31617729   5.072   5.109   8.535  0.3265  0.2099 -0.5022
  158SAPE  H16X17730   5.074   4.997   8.535 -4.1000 -0.0436  0.0483
  158SAPE  H16Y17731   5.160   5.138   8.475  0.6420  1.7715  0.6737
  158SAPE  C31717732   4.939   5.154   8.475 -0.0554  0.3843 -0.5714
  158SAPE  H17X17733   4.859   5.131   8.548 -0.8011 -2.4794 -2.1628
  158SAPE  H17Y17734   4.909   5.096   8.385  0.3849  0.0108 -0.4769
  158SAPE  C31817735   4.942   5.303   8.431  0.8466  0.3775 -0.1879
  158SAPE  H18X17736   5.039   5.317   8.379  2.1904  0.1381  2.1375
  158SAPE  H18Y17737   4.921   5.366   8.520  0.1865  2.7645 -1.9269
  158SAPE  H18Z17738   4.854   5.312   8.364  0.7844 -1.6483 -0.4636
  159SAPE     N17739   4.785   5.516   6.492 -0.2315 -0.2324 -0.3727
  159SAPE   HN117740   4.694   5.467   6.506 -0.5018  0.5241  0.6726
  159SAPE   HN217741   4.760   5.597   6.431  0.0186 -0.2520 -0.5035
  159SAPE   HN317742   4.855   5.455   6.445 -0.0681  0.6171 -1.2794
  159SAPE   C1217743   4.846   5.576   6.621 -0.7110  0.0192 -0.0387
  159SAPE  H12A17744   4.922   5.649   6.585  1.8369 -3.4442 -2.3694
  159SAPE  H12B17745   4.891   5.494   6.680 -1.4525 -0.6331 -0.3593
  159SAPE   C1117746   4.752   5.660   6.704 -0.4713  0.5145  0.2543
  159SAPE  H11A17747   4.800   5.711   6.790 -3.1702  0.0328  2.1961
  159SAPE  H11B17748   4.682   5.585   6.746 -1.1090  1.0895  0.2295
  159SAPE     P17749   4.646   5.894   6.655 -0.2938  0.4069  0.5061
  159SAPE   O1317750   4.739   5.979   6.570  0.1632  0.1046 -0.1210
  159SAPE   O1417751   4.506   5.918   6.623 -0.0718 -0.4617  0.6440
  159SAPE   O1217752   4.680   5.751   6.620 -0.5168  0.3057 -0.3731
  159SAPE   O1117753   4.683   5.914   6.806  0.2218 -0.6022 -0.1419
  159SAPE    C117754   4.721   6.034   6.861 -0.3773 -0.3899  0.3786
  159SAPE    HA17755   4.753   6.107   6.784  1.5000 -3.2127 -1.7407
  159SAPE    HB17756   4.634   6.080   6.912 -0.7300 -0.1970 -0.3966
  159SAPE    C217757   4.829   6.032   6.973 -0.0657  0.7992  0.2140
  159SAPE    HS17758   4.899   5.950   6.947 -1.2645  0.0322 -0.6916
  159SAPE   O2117759   4.765   6.000   7.098  0.1184  0.2349  0.2306
  159SAPE   C2117760   4.829   5.934   7.200 -0.2552  0.2353 -0.3670
  159SAPE   O2217761   4.948   5.912   7.204 -0.0377  0.2205  0.3050
  159SAPE   C2217762   4.729   5.881   7.312 -0.7925 -0.2373 -0.4244
  159SAPE   H2R17763   4.656   5.964   7.323 -2.5059 -1.8229  0.8443
  159SAPE   H2S17764   4.674   5.789   7.280  0.0777 -0.4588 -1.3369
  159SAPE    C317765   4.909   6.159   6.978 -0.4736 -0.7847  0.2585
  159SAPE    HX17766   4.845   6.250   6.968  1.3079  0.7179  1.7847
  159SAPE    HY17767   4.969   6.158   6.884 -0.5189 -1.0032  0.2321
  159SAPE   O3117768   4.990   6.180   7.092 -0.2116  0.8805  0.2447
  159SAPE   C3117769   5.126   6.180   7.085 -0.4283  0.3351  0.6035
  159SAPE   O3217770   5.194   6.160   6.987 -0.4540  0.4539 -0.5135
  159SAPE   C3217771   5.176   6.235   7.216 -0.2212 -0.2828 -0.2994
  159SAPE   H2X17772   5.108   6.315   7.250  1.7537  1.3467  0.0519
  159SAPE   H2Y17773   5.277   6.280   7.200 -0.8992  1.0193 -1.0144
  159SAPE   C2317774   4.813   5.854   7.447  0.9478 -0.2978  0.4248
  159SAPE   H3R17775   4.857   5.948   7.487  1.5312 -2.0014  4.1829
  159SAPE   H3S17776   4.902   5.791   7.426 -0.5337 -2.1655 -0.5214
  159SAPE   C2417777   4.725   5.796   7.562  1.0770 -0.1575  1.1733
  159SAPE   H4R17778   4.648   5.722   7.531  1.6284 -0.1815 -0.2122
  159SAPE   H4S17779   4.667   5.881   7.604  2.1245 -0.6408  3.7553
  159SAPE   C2517780   4.800   5.736   7.669 -0.4310 -0.0510  0.1368
  159SAPE   H5R17781   4.849   5.641   7.643  0.7276  0.1899  1.3155
  159SAPE   C2617782   4.818   5.768   7.799 -0.4735 -0.4543  0.8228
  159SAPE   H6R17783   4.888   5.703   7.853 -0.7399 -1.9678 -0.5777
  159SAPE   C2717784   4.754   5.891   7.875 -0.1460  0.2583 -0.3768
  159SAPE   H7R17785   4.725   5.844   7.971 -1.9755  0.6567 -0.7054
  159SAPE   H7S17786   4.657   5.914   7.826 -1.3297 -0.9131  1.2919
  159SAPE   C2817787   4.853   6.008   7.880 -0.0916  0.3150  0.3945
  159SAPE   H8R17788   4.890   6.029   7.778 -0.6877 -0.2978  0.0416
  159SAPE   C2917789   4.878   6.085   7.986 -0.5377 -0.4943 -0.3529
  159SAPE   H9R17790   4.941   6.175   7.978 -0.7088 -0.4833 -2.0020
  159SAPE  C21017791   4.809   6.071   8.118  0.8106  0.2798  0.7737
  159SAPE  H10R17792   4.808   5.962   8.141  1.7191 -0.0482 -0.6271
  159SAPE  H10S17793   4.702   6.102   8.121  0.8205  0.5628 -0.9625
  159SAPE  C21117794   4.887   6.131   8.230 -1.1183 -0.4458  0.6605
  159SAPE  H11R17795   4.996   6.114   8.220 -1.1043 -1.2828  2.0735
  159SAPE  C21217796   4.856   6.218   8.332 -0.1947  0.6680  0.1469
  159SAPE  H12R17797   4.934   6.247   8.405 -0.9798 -1.2962  1.8757
  159SAPE  C21317798   4.717   6.269   8.356  0.6204 -0.1889  0.2929
  159SAPE  H13R17799   4.648   6.185   8.333  1.1088 -1.0741  1.9139
  159SAPE  H13S17800   4.685   6.349   8.285  0.6772 -0.4524 -0.0347
  159SAPE  C21417801   4.683   6.307   8.498 -0.4833  0.1801 -0.7000
  159SAPE  H14R17802   4.759   6.274   8.570  0.4492  0.3226 -1.5867
  159SAPE  C21517803   4.575   6.363   8.540 -0.5254 -0.0690  0.4417
  159SAPE  H15R17804   4.576   6.395   8.645  0.4549  0.2080  0.3573
  159SAPE  C21617805   4.451   6.410   8.469 -0.4351 -0.4246 -0.4581
  159SAPE  H16R17806   4.363   6.363   8.519 -0.5098  1.7116  1.5937
  159SAPE  H16S17807   4.438   6.379   8.363 -3.8375  0.3764 -0.4159
  159SAPE  C21717808   4.425   6.555   8.493  0.3337  0.3890  0.0349
  159SAPE  H17R17809   4.487   6.619   8.427  0.8444  0.1406  0.2670
  159SAPE  H17S17810   4.460   6.576   8.596  0.4596  0.1971  0.0329
  159SAPE  C21817811   4.279   6.600   8.496  0.2979  0.7597 -0.2309
  159SAPE  H18R17812   4.216   6.537   8.562 -2.0336  0.7516 -2.2981
  159SAPE  H18S17813   4.232   6.575   8.398  0.1491 -1.6871  0.3972
  159SAPE  C21917814   4.257   6.752   8.501 -1.2032  0.1946 -0.8613
  159SAPE  H19R17815   4.339   6.786   8.567  1.0166  0.2763 -3.5136
  159SAPE  H19S17816   4.157   6.769   8.548 -0.4244 -0.2931  1.0797
  159SAPE  C22017817   4.270   6.834   8.373  0.0007 -0.0274 -0.1310
  159SAPE  H20R17818   4.251   6.938   8.405 -1.2058  0.3623 -1.9613
  159SAPE  H20S17819   4.196   6.792   8.302  1.8627 -0.3138 -2.0178
  159SAPE  H20T17820   4.370   6.825   8.324  0.3934  1.3767  0.3845
  159SAPE   C3317821   5.191   6.129   7.331 -0.8449 -0.3882  0.6336
  159SAPE   H3X17822   5.260   6.054   7.288 -2.0321 -0.7826 -0.6789
  159SAPE   H3Y17823   5.088   6.090   7.350 -1.7843  1.5081 -0.2218
  159SAPE   C3417824   5.238   6.195   7.464 -0.0481 -0.5022 -0.5557
  159SAPE   H4X17825   5.305   6.277   7.432  1.2999 -1.4073 -0.1148
  159SAPE   H4Y17826   5.289   6.120   7.527 -0.4262 -1.1350 -0.9898
  159SAPE   C3517827   5.117   6.264   7.536 -0.8558  0.6992 -0.4795
  159SAPE   H5X17828   5.036   6.190   7.551 -0.1588  0.0811  0.3310
  159SAPE   H5Y17829   5.065   6.348   7.484 -1.4617  0.4986 -0.2081
  159SAPE   C3617830   5.168   6.310   7.671  0.2605  0.6157 -0.4153
  159SAPE   H6X17831   5.256   6.375   7.648  1.3441 -0.9852 -0.9487
  159SAPE   H6Y17832   5.207   6.229   7.736  1.1603 -0.1253 -1.8383
  159SAPE   C3717833   5.073   6.393   7.754  0.4465  0.4907  0.1319
  159SAPE   H7X17834   4.987   6.327   7.780  0.4645  0.6154  0.5130
  159SAPE   H7Y17835   5.029   6.475   7.693 -1.5586 -0.3130  0.3889
  159SAPE   C3817836   5.137   6.445   7.882  0.3393  0.0594 -0.1978
  159SAPE   H8X17837   5.222   6.513   7.859 -1.5574  2.1256 -1.5093
  159SAPE   H8Y17838   5.168   6.362   7.948 -2.4857 -0.9074  0.0319
  159SAPE   C3917839   5.035   6.513   7.975 -0.4042 -0.5997 -0.1597
  159SAPE   H9X17840   4.950   6.446   8.000 -2.2571  2.2637  1.9874
  159SAPE   H9Y17841   4.998   6.600   7.916  1.0951  0.6111  0.6250
  159SAPE  C31017842   5.089   6.565   8.109  0.5527  0.5312 -0.1718
  159SAPE  H10X17843   5.155   6.653   8.099 -0.4745  1.3793  0.3533
  159SAPE  H10Y17844   5.161   6.490   8.149  1.5840  1.8779  0.5433
  159SAPE  C31117845   4.982   6.585   8.220  0.0438 -0.0190 -0.6173
  159SAPE  H11X17846   4.924   6.491   8.214  1.4687 -0.9563 -0.3063
  159SAPE  H11Y17847   4.931   6.682   8.200 -0.1024 -0.2576 -1.4018
  159SAPE  C31217848   5.049   6.600   8.353 -0.0814 -0.0052 -0.4968
  159SAPE  H12X17849   5.094   6.701   8.363 -1.0887  0.6545 -2.2162
  159SAPE  H12Y17850   5.122   6.516   8.347  1.8777  1.6216 -0.4154
  159SAPE  C31317851   4.955   6.567   8.475 -0.0233 -0.3000  0.8326
  159SAPE  H13X17852   4.918   6.462   8.475 -2.8439  0.6272  0.7703
  159SAPE  H13Y17853   4.866   6.633   8.471 -0.5196 -0.9872 -2.1190
  159SAPE  C31417854   5.027   6.585   8.609 -0.3512  0.0635  0.2012
  159SAPE  H14X17855   5.050   6.693   8.620 -0.9930  0.4272 -1.7096
  159SAPE  H14Y17856   5.124   6.532   8.602  1.2210  2.8736 -0.9096
  159SAPE  C31517857   4.958   6.519   8.729 -0.4107  0.6769 -0.2820
  159SAPE  H15X17858   4.976   6.411   8.708 -0.9202  0.2622  1.2642
  159SAPE  H15Y17859   4.848   6.534   8.729 -0.7261 -1.2647 -1.0791
  159SAPE  C31617860   5.018   6.561   8.864 -0.1695 -0.2370  0.0938
  159SAPE  H16X17861   4.998   6.666   8.893 -1.2500 -0.6010  0.7132
  159SAPE  H16Y17862   5.129   6.549   8.862 -0.2086 -0.8416  0.9437
  159SAPE  C31717863   4.964   6.471   8.971 -0.3389 -0.0072 -0.3648
  159SAPE  H17X17864   5.011   6.371   8.963 -0.9781 -0.3086 -0.3917
  159SAPE  H17Y17865   4.856   6.463   8.947 -0.3639  0.6722 -0.5172
  159SAPE  C31817866   4.999   6.511   9.117  0.2211 -0.1229  0.3337
  159SAPE  H18X17867   4.969   6.616   9.140 -4.1371 -0.9123 -0.8966
  159SAPE  H18Y17868   5.110   6.511   9.129  0.2236 -0.6723  0.3246
  159SAPE  H18Z17869   4.958   6.434   9.185 -2.2740  2.0085  1.3894
  160SAPE     N17870   3.049   6.537   6.442  0.1921  0.2728 -0.3395
  160SAPE   HN117871   2.978   6.468   6.409  0.1612  0.1823 -0.0815
  160SAPE   HN217872   3.000   6.628   6.446 -1.1044 -0.3546 -1.0279
  160SAPE   HN317873   3.122   6.549   6.369  0.3571  0.5924 -0.1188
  160SAPE   C1217874   3.111   6.493   6.575 -0.0391 -0.4366  0.5173
  160SAPE  H12A17875   3.026   6.496   6.648 -1.2807  1.1974 -0.9137
  160SAPE  H12B17876   3.190   6.568   6.594 -0.5750  0.0900  0.7234
  160SAPE   C1117877   3.165   6.354   6.575  0.2501 -0.2061  0.3475
  160SAPE  H11A17878   3.242   6.343   6.655 -0.8723 -0.7216  1.3843
  160SAPE  H11B17879   3.218   6.352   6.478  0.1877  0.0740  0.3053
  160SAPE     P17880   3.084   6.121   6.602  0.0247  0.4487 -0.0860
  160SAPE   O1317881   2.955   6.045   6.587 -0.4244 -0.0920 -0.3291
  160SAPE   O1417882   3.193   6.086   6.511 -0.2347  0.2850 -1.0085
  160SAPE   O1217883   3.051   6.271   6.583 -0.5388 -0.3420 -0.2344
  160SAPE   O1117884   3.131   6.112   6.748 -0.4462 -0.2138  0.3041
  160SAPE    C117885   3.048   6.143   6.856  0.4511 -0.1335 -0.1824
  160SAPE    HA17886   2.977   6.226   6.833  2.4268  1.1159 -2.2772
  160SAPE    HB17887   2.975   6.063   6.880  0.5780  0.1883  1.3942
  160SAPE    C217888   3.108   6.174   6.994  0.0519  1.1412  0.2556
  160SAPE    HS17889   3.195   6.108   7.017  1.0281  2.5743  0.8445
  160SAPE   O2117890   3.006   6.171   7.098  0.3404 -0.2844 -0.2236
  160SAPE   C2117891   3.049   6.126   7.221 -0.6665 -0.4486 -0.0408
  160SAPE   O2217892   3.165   6.086   7.240  0.9716 -0.2154  0.4259
  160SAPE   C2217893   2.940   6.163   7.326  0.1478 -0.9196  0.2819
  160SAPE   H2R17894   2.912   6.266   7.298  0.5043 -1.2330 -1.3117
  160SAPE   H2S17895   2.859   6.094   7.294 -1.4274  0.5873  0.8788
  160SAPE    C317896   3.174   6.312   6.991 -0.1253  0.6149  0.9612
  160SAPE    HX17897   3.095   6.388   6.973 -1.2710  0.0518  3.2060
  160SAPE    HY17898   3.250   6.318   6.910  1.0927 -0.5799  1.9612
  160SAPE   O3117899   3.237   6.331   7.119 -0.0523  0.4752 -0.1475
  160SAPE   C3117900   3.268   6.456   7.141  0.2893  0.5311 -0.2982
  160SAPE   O3217901   3.243   6.547   7.066  0.6564 -0.7121 -0.3098
  160SAPE   C3217902   3.354   6.458   7.267  0.6125  0.4346 -0.1714
  160SAPE   H2X17903   3.462   6.438   7.251  0.1876 -0.8429 -1.6256
  160SAPE   H2Y17904   3.313   6.376   7.329  2.6519 -2.2521 -2.1428
  160SAPE   C2317905   2.981   6.143   7.472  0.0661 -0.4331 -0.4415
  160SAPE   H3R17906   3.040   6.235   7.495 -0.1001 -0.4193 -0.0567
  160SAPE   H3S17907   3.040   6.054   7.504 -2.4223 -1.5160  1.4391
  160SAPE   C2417908   2.854   6.154   7.560 -0.2872  0.6282 -0.1945
  160SAPE   H4R17909   2.793   6.244   7.536  0.9535  1.1858 -1.3490
  160SAPE   H4S17910   2.894   6.175   7.661  0.1437 -1.1920  0.0466
  160SAPE   C2517911   2.783   6.026   7.550  0.1095  0.3517 -0.0459
  160SAPE   H5R17912   2.752   5.991   7.450 -1.8402  1.4274  0.1521
  160SAPE   C2617913   2.773   5.933   7.654  0.4031  0.6277 -0.1601
  160SAPE   H6R17914   2.720   5.839   7.631  0.5961  0.3050  0.6997
  160SAPE   C2717915   2.821   5.935   7.791 -0.1551 -0.3929 -0.1074
  160SAPE   H7R17916   2.891   6.018   7.818 -0.3326 -0.7507  1.5710
  160SAPE   H7S17917   2.892   5.853   7.816  0.6967  0.5621  0.7233
  160SAPE   C2817918   2.704   5.941   7.885 -0.4008 -0.3765  0.1527
  160SAPE   H8R17919   2.629   6.019   7.873  0.2174  0.4328  1.3310
  160SAPE   C2917920   2.686   5.855   7.993 -1.0863  0.5836  0.1497
  160SAPE   H9R17921   2.594   5.859   8.053 -2.0551 -0.3677 -1.2251
  160SAPE  C21017922   2.776   5.737   8.030 -0.2837  0.4290  0.8636
  160SAPE  H10R17923   2.765   5.719   8.139 -1.8158 -1.0988  0.4964
  160SAPE  H10S17924   2.884   5.754   8.015 -0.6465  0.8808 -1.7027
  160SAPE  C21117925   2.760   5.618   7.945 -0.3729  0.3663  0.4209
  160SAPE  H11R17926   2.761   5.642   7.838  1.3416  2.5953  0.8445
  160SAPE  C21217927   2.744   5.491   7.984  0.0837  0.2427  0.1879
  160SAPE  H12R17928   2.733   5.418   7.902  0.7364  1.1920 -0.7652
  160SAPE  C21317929   2.734   5.436   8.118 -0.3471 -0.1017 -0.5399
  160SAPE  H13R17930   2.627   5.424   8.146 -0.2774 -1.8981 -0.9308
  160SAPE  H13S17931   2.769   5.511   8.192  0.4977 -1.3708  0.4096
  160SAPE  C21417932   2.826   5.311   8.132  0.8589 -0.5460 -0.1487
  160SAPE  H14R17933   2.892   5.294   8.045 -0.3783  3.4907 -2.1469
  160SAPE  C21517934   2.835   5.245   8.246 -0.6525 -0.0565  0.2307
  160SAPE  H15R17935   2.887   5.148   8.249 -2.6028 -1.1684 -0.2363
  160SAPE  C21617936   2.769   5.287   8.374 -0.0484 -0.1677  0.2116
  160SAPE  H16R17937   2.753   5.396   8.384  0.0623 -0.1324 -0.0039
  160SAPE  H16S17938   2.825   5.256   8.465 -1.3323  0.6985  1.3347
  160SAPE  C21717939   2.632   5.235   8.394  0.1938 -0.4217 -0.4885
  160SAPE  H17R17940   2.624   5.131   8.356 -0.3806 -0.2728 -0.8020
  160SAPE  H17S17941   2.572   5.293   8.320  2.0857 -0.8104 -2.4144
  160SAPE  C21817942   2.572   5.259   8.534 -0.1647 -0.8767 -0.2838
  160SAPE  H18R17943   2.576   5.368   8.556 -1.9364 -0.1118 -3.1613
  160SAPE  H18S17944   2.638   5.209   8.608 -1.8893 -0.3264  1.7314
  160SAPE  C21917945   2.428   5.215   8.546  0.3365 -0.2607  0.0956
  160SAPE  H19R17946   2.417   5.107   8.523 -0.7970 -0.2674  0.5879
  160SAPE  H19S17947   2.372   5.265   8.464  0.3003  0.1407  0.3639
  160SAPE  C22017948   2.366   5.250   8.687  0.1186  0.4682 -0.7369
  160SAPE  H20R17949   2.385   5.357   8.714  2.0784 -0.2444  0.9885
  160SAPE  H20S17950   2.425   5.198   8.765  1.4898  2.3535 -0.4303
  160SAPE  H20T17951   2.259   5.226   8.701  0.2025  0.8747  0.7811
  160SAPE   C3317952   3.346   6.595   7.340 -0.2538  0.0412 -0.4719
  160SAPE   H3X17953   3.240   6.628   7.331  0.0043  1.2020  0.4436
  160SAPE   H3Y17954   3.426   6.665   7.305 -0.2973  0.8831  1.0059
  160SAPE   C3417955   3.371   6.583   7.492 -0.8637 -0.7005  0.3735
  160SAPE   H4X17956   3.465   6.525   7.506 -1.4774 -2.5293 -2.2449
  160SAPE   H4Y17957   3.292   6.524   7.542 -0.1242 -0.8714  1.3757
  160SAPE   C3517958   3.370   6.713   7.563  0.2836  0.1627  0.7581
  160SAPE   H5X17959   3.267   6.754   7.575  0.8058  0.9032  3.3011
  160SAPE   H5Y17960   3.431   6.783   7.503 -0.0863 -0.7633 -0.7692
  160SAPE   C3617961   3.434   6.691   7.696  0.4747 -0.7884  0.2993
  160SAPE   H6X17962   3.539   6.656   7.684  0.7587  0.0832  0.1685
  160SAPE   H6Y17963   3.379   6.603   7.737 -2.9638  0.1613 -1.8242
  160SAPE   C3717964   3.436   6.820   7.778  0.6866 -0.1352  0.1519
  160SAPE   H7X17965   3.326   6.835   7.783  0.3209 -2.1069 -1.0943
  160SAPE   H7Y17966   3.485   6.909   7.733  0.8312 -0.7847 -1.0013
  160SAPE   C3817967   3.483   6.802   7.929 -0.0079 -0.3660  0.6388
  160SAPE   H8X17968   3.472   6.900   7.981 -1.8067  0.4116 -1.0549
  160SAPE   H8Y17969   3.590   6.774   7.933 -0.0800 -1.0234 -1.0213
  160SAPE   C3917970   3.408   6.691   8.003  0.7752 -0.3008  0.0708
  160SAPE   H9X17971   3.443   6.599   7.951 -0.6904 -0.4610 -0.6696
  160SAPE   H9Y17972   3.298   6.704   7.995  0.7423 -0.5610  0.0861
  160SAPE  C31017973   3.440   6.694   8.151 -0.2740  0.8133  0.4995
  160SAPE  H10X17974   3.392   6.782   8.199 -0.7831  0.1354  1.2664
  160SAPE  H10Y17975   3.546   6.726   8.146 -0.5950  1.7570 -0.9661
  160SAPE  C31117976   3.411   6.562   8.220  0.3137  0.0266  0.1360
  160SAPE  H11X17977   3.468   6.477   8.176  2.0981 -0.3382  2.8768
  160SAPE  H11Y17978   3.308   6.531   8.196  0.2181  0.1523  0.3795
  160SAPE  C31217979   3.440   6.569   8.368  0.2399 -0.4971 -0.5289
  160SAPE  H12X17980   3.382   6.658   8.400  0.7812 -0.3965  0.2026
  160SAPE  H12Y17981   3.549   6.585   8.384  0.6417 -0.8123 -2.6033
  160SAPE  C31317982   3.387   6.450   8.446  0.3990 -0.4745  0.3729
  160SAPE  H13X17983   3.461   6.372   8.475 -0.5759 -0.8768  1.8941
  160SAPE  H13Y17984   3.305   6.407   8.385  0.5301 -0.2086  0.0042
  160SAPE  C31417985   3.324   6.487   8.587 -0.1073 -0.2854 -0.3282
  160SAPE  H14X17986   3.232   6.547   8.568 -1.7230 -2.4757  0.2314
  160SAPE  H14Y17987   3.388   6.551   8.652 -2.2923  2.1711 -0.3991
  160SAPE  C31517988   3.272   6.357   8.659 -0.0663  0.0113  0.0782
  160SAPE  H15X17989   3.327   6.262   8.640  0.2313  0.4699 -1.4735
  160SAPE  H15Y17990   3.172   6.331   8.617  0.4576 -0.1391 -1.0996
  160SAPE  C31617991   3.239   6.376   8.811 -0.0868 -0.1267 -0.0928
  160SAPE  H16X17992   3.198   6.479   8.810 -2.5890 -1.0507 -0.7715
  160SAPE  H16Y17993   3.337   6.364   8.863 -0.3463  0.6527  0.5944
  160SAPE  C31717994   3.145   6.274   8.866  0.1772  0.3044  0.3209
  160SAPE  H17X17995   3.191   6.173   8.854 -0.6043 -0.0716  0.4421
  160SAPE  H17Y17996   3.042   6.266   8.826 -1.3193  0.2532  3.8402
  160SAPE  C31817997   3.127   6.302   9.017 -0.0344  0.2905 -0.5478
  160SAPE  H18X17998   3.096   6.205   9.061 -0.5584 -0.0048 -1.5392
  160SAPE  H18Y17999   3.038   6.366   9.036 -0.2080  0.5136 -2.0081
  160SAPE  H18Z18000   3.225   6.332   9.061 -0.5044  2.0984 -0.6347
  161SAPE     N18001   4.684   5.220   6.222  0.2181  0.2010 -0.0827
  161SAPE   HN118002   4.584   5.219   6.194 -0.0735  0.9834  0.9012
  161SAPE   HN218003   4.724   5.315   6.212 -1.7882  1.1800  0.6410
  161SAPE   HN318004   4.743   5.161   6.159 -0.1602  1.1081 -1.3265
  161SAPE   C1218005   4.686   5.177   6.368 -0.0391  0.3423  0.6443
  161SAPE  H12A18006   4.601   5.225   6.420  0.3990 -0.3701  2.0689
  161SAPE  H12B18007   4.783   5.209   6.414  1.1366 -1.3601 -0.5179
  161SAPE   C1118008   4.658   5.027   6.383 -0.3739 -0.2097 -0.2710
  161SAPE  H11A18009   4.554   4.989   6.373 -0.3330 -0.2313 -0.6433
  161SAPE  H11B18010   4.676   5.006   6.491  1.2029  1.1280 -0.2409
  161SAPE     P18011   4.898   4.906   6.327 -0.0355 -0.0317  0.1626
  161SAPE   O1318012   4.937   4.795   6.235  0.1715  0.4781 -0.0425
  161SAPE   O1418013   4.987   5.028   6.313 -0.6636 -0.2180  0.1687
  161SAPE   O1218014   4.740   4.949   6.290  0.1830 -0.7958  0.1517
  161SAPE   O1118015   4.898   4.863   6.478 -0.5618 -0.0100  0.4754
  161SAPE    C118016   4.828   4.755   6.541 -0.4447 -0.0575  0.4132
  161SAPE    HA18017   4.731   4.748   6.487  0.6680  0.2152 -1.7479
  161SAPE    HB18018   4.881   4.657   6.545  0.5719  0.4497 -0.3309
  161SAPE    C218019   4.795   4.801   6.680 -0.1566 -0.2991 -0.0955
  161SAPE    HS18020   4.733   4.892   6.663 -0.4371  0.1600  2.8663
  161SAPE   O2118021   4.903   4.818   6.764 -0.2591  0.0402 -0.1985
  161SAPE   C2118022   4.893   4.928   6.841 -0.2426  0.2019  0.2377
  161SAPE   O2218023   4.814   5.020   6.830 -0.5210 -0.7136  0.2559
  161SAPE   C2218024   4.992   4.914   6.950 -0.0627  0.0123 -0.6555
  161SAPE   H2R18025   4.948   4.835   7.014 -0.0108  1.4986  1.3078
  161SAPE   H2S18026   5.089   4.882   6.908  0.2398  0.3366 -0.2092
  161SAPE    C318027   4.693   4.702   6.741  0.6304  0.2311  0.3147
  161SAPE    HX18028   4.740   4.603   6.726  4.1086  1.9540 -1.2863
  161SAPE    HY18029   4.596   4.698   6.685  0.2050  0.1006  1.0479
  161SAPE   O3118030   4.671   4.721   6.885  0.3894 -0.3119  0.9079
  161SAPE   C3118031   4.570   4.796   6.912 -0.1208  1.0485 -0.0837
  161SAPE   O3218032   4.488   4.836   6.833  0.2721  0.3936  0.3381
  161SAPE   C3218033   4.547   4.795   7.069  0.5728 -0.6963 -0.2884
  161SAPE   H2X18034   4.535   4.690   7.102 -1.8164  0.1305  1.8099
  161SAPE   H2Y18035   4.472   4.872   7.099 -0.6294 -0.3555 -3.7209
  161SAPE   C2318036   5.016   5.044   7.030  0.3745 -0.3487 -0.5620
  161SAPE   H3R18037   4.920   5.082   7.070 -0.2260 -0.5159 -1.7873
  161SAPE   H3S18038   5.062   5.123   6.967  1.4051 -0.7659 -0.3623
  161SAPE   C2418039   5.110   5.003   7.150  0.4537 -0.2846 -0.4287
  161SAPE   H4R18040   5.137   5.104   7.188 -0.4556 -0.0281 -0.4362
  161SAPE   H4S18041   5.208   4.963   7.117 -0.5588 -3.3864  0.0164
  161SAPE   C2518042   5.052   4.910   7.254 -0.3500 -0.2883 -0.3701
  161SAPE   H5R18043   4.993   4.825   7.216  1.5363 -1.8836  0.0698
  161SAPE   C2618044   5.051   4.930   7.390 -0.0622 -0.4523 -0.0156
  161SAPE   H6R18045   4.991   4.860   7.450 -0.6319  0.5872  0.6572
  161SAPE   C2718046   5.104   5.048   7.464  0.4555 -0.4244 -0.9801
  161SAPE   H7R18047   5.018   5.117   7.474  1.3482  0.4122  1.7902
  161SAPE   H7S18048   5.194   5.096   7.419  1.4247 -0.0533  1.2399
  161SAPE   C2818049   5.128   5.020   7.610  0.2365 -0.2552 -0.2675
  161SAPE   H8R18050   5.151   4.913   7.624 -2.5028 -1.1836 -2.0497
  161SAPE   C2918051   5.135   5.110   7.717  0.5094 -0.1800 -0.7898
  161SAPE   H9R18052   5.148   5.068   7.818 -1.1643 -0.2096 -0.5562
  161SAPE  C21018053   5.119   5.261   7.710 -0.1675  0.1958  0.2869
  161SAPE  H10R18054   5.063   5.288   7.618 -1.3942  0.7061  1.1680
  161SAPE  H10S18055   5.220   5.297   7.680 -0.5372  0.5432 -0.5620
  161SAPE  C21118056   5.065   5.338   7.829  0.3482  0.4049  0.0559
  161SAPE  H11R18057   4.959   5.367   7.823  0.5364  1.0140 -0.5849
  161SAPE  C21218058   5.133   5.357   7.942 -0.1182 -0.0661 -1.0623
  161SAPE  H12R18059   5.075   5.394   8.028 -1.6321 -2.3105 -1.0128
  161SAPE  C21318060   5.274   5.314   7.977 -0.5764  0.4435  0.2153
  161SAPE  H13R18061   5.336   5.401   8.008  1.3255 -2.3072  5.1852
  161SAPE  H13S18062   5.326   5.260   7.895  0.5524  0.6599  0.7743
  161SAPE  C21418063   5.263   5.221   8.096  0.0884  0.4113 -0.0728
  161SAPE  H14R18064   5.215   5.128   8.062 -0.2010  0.0792  1.1880
  161SAPE  C21518065   5.308   5.244   8.218  0.9087  0.0807  0.0383
  161SAPE  H15R18066   5.278   5.175   8.297 -2.8896 -1.1578 -2.2010
  161SAPE  C21618067   5.379   5.368   8.275  0.1583  0.1373  0.0029
  161SAPE  H16R18068   5.303   5.427   8.332 -0.6153 -1.8255  1.1066
  161SAPE  H16S18069   5.414   5.438   8.196  0.0222 -1.0558 -1.1518
  161SAPE  C21718070   5.495   5.337   8.383 -0.4169 -0.0532 -0.3393
  161SAPE  H17R18071   5.472   5.236   8.423 -2.1253 -0.3337 -1.9061
  161SAPE  H17S18072   5.502   5.413   8.464 -1.7476  1.0146 -1.1918
  161SAPE  C21818073   5.639   5.326   8.322  0.0025  0.2543  0.0109
  161SAPE  H18R18074   5.669   5.416   8.264 -0.5297 -1.8055 -3.7558
  161SAPE  H18S18075   5.652   5.238   8.256  1.2504 -0.6103  1.3557
  161SAPE  C21918076   5.751   5.298   8.429 -0.1143  0.1937  0.4123
  161SAPE  H19R18077   5.724   5.202   8.479 -0.2346 -1.1313 -2.0675
  161SAPE  H19S18078   5.745   5.377   8.508 -0.9816  2.2049 -1.5391
  161SAPE  C22018079   5.889   5.285   8.362  0.1914  0.0482  0.0665
  161SAPE  H20R18080   5.914   5.367   8.291 -0.2622 -0.9707 -1.3276
  161SAPE  H20S18081   5.892   5.190   8.304 -1.8131  0.1020 -0.1898
  161SAPE  H20T18082   5.965   5.274   8.443 -0.7484 -1.3929  0.7866
  161SAPE   C3318083   4.688   4.834   7.136 -0.3062 -0.3209 -0.3064
  161SAPE   H3X18084   4.716   4.940   7.120  0.6925 -0.7458 -1.5313
  161SAPE   H3Y18085   4.773   4.776   7.094  0.9657  1.1567  0.1447
  161SAPE   C3418086   4.700   4.783   7.280  0.3429  0.2316 -0.0107
  161SAPE   H4X18087   4.805   4.770   7.315  0.4777  1.8231  0.2581
  161SAPE   H4Y18088   4.641   4.690   7.297 -1.1371  0.5057 -2.9290
  161SAPE   C3518089   4.631   4.880   7.377 -0.2589  0.2021 -0.3289
  161SAPE   H5X18090   4.632   4.844   7.482  1.2532 -1.2440 -0.8046
  161SAPE   H5Y18091   4.524   4.894   7.350 -0.9397 -2.0398  0.9662
  161SAPE   C3618092   4.687   5.024   7.381  0.0551  0.5773 -0.0371
  161SAPE   H6X18093   4.682   5.078   7.284 -1.8745 -1.0754 -0.9479
  161SAPE   H6Y18094   4.791   5.009   7.417 -0.3701 -1.7744  0.4320
  161SAPE   C3718095   4.598   5.112   7.469 -0.3859 -0.7606 -0.1073
  161SAPE   H7X18096   4.560   5.039   7.544 -0.0920 -0.5213  0.2767
  161SAPE   H7Y18097   4.522   5.161   7.405  2.2255 -1.5182 -4.1793
  161SAPE   C3818098   4.670   5.231   7.540 -0.0182 -0.0483  0.3114
  161SAPE   H8X18099   4.700   5.303   7.461  0.1737  0.9791  1.3016
  161SAPE   H8Y18100   4.764   5.195   7.588  0.7237  3.7185  1.9582
  161SAPE   C3918101   4.584   5.302   7.654 -0.7358 -0.2256  0.0413
  161SAPE   H9X18102   4.547   5.217   7.716 -0.3610  0.2570  0.9382
  161SAPE   H9Y18103   4.511   5.335   7.577  0.3421 -1.2271 -1.4786
  161SAPE  C31018104   4.648   5.422   7.724  1.1712  0.3645  0.4508
  161SAPE  H10X18105   4.672   5.506   7.655 -1.6481  0.6992 -0.2475
  161SAPE  H10Y18106   4.745   5.385   7.765  1.8308 -0.1807 -1.4790
  161SAPE  C31118107   4.565   5.473   7.845  0.0334 -0.6332  0.4180
  161SAPE  H11X18108   4.458   5.483   7.816  0.1580 -3.2512 -1.2983
  161SAPE  H11Y18109   4.612   5.570   7.873  0.5022 -0.4511 -0.9364
  161SAPE  C31218110   4.577   5.383   7.965 -0.3657  0.4429  0.0822
  161SAPE  H12X18111   4.685   5.373   7.988 -0.4591  1.5821  1.1801
  161SAPE  H12Y18112   4.539   5.282   7.938  1.7682 -0.0108 -1.4493
  161SAPE  C31318113   4.502   5.446   8.077 -0.2067 -0.0639 -0.0608
  161SAPE  H13X18114   4.396   5.430   8.048 -0.6985 -1.3861  2.1986
  161SAPE  H13Y18115   4.515   5.555   8.094 -1.5020  0.2254 -0.8432
  161SAPE  C31418116   4.519   5.369   8.212  0.4143  0.3710 -0.5199
  161SAPE  H14X18117   4.625   5.338   8.229  0.6460  1.0281 -0.7065
  161SAPE  H14Y18118   4.458   5.279   8.194  0.6503 -0.0280  0.5706
  161SAPE  C31518119   4.464   5.447   8.335 -0.0053 -0.7526  0.1818
  161SAPE  H15X18120   4.363   5.488   8.313  0.6945  1.0950  0.1881
  161SAPE  H15Y18121   4.525   5.540   8.345  0.2124 -0.9394  0.6465
  161SAPE  C31618122   4.463   5.372   8.468 -0.8664 -0.2051  0.3230
  161SAPE  H16X18123   4.403   5.280   8.448 -0.5533 -0.5450  0.9317
  161SAPE  H16Y18124   4.406   5.438   8.536 -1.2555 -0.2942  0.0871
  161SAPE  C31718125   4.601   5.345   8.531 -0.5394 -0.7631 -0.2988
  161SAPE  H17X18126   4.667   5.433   8.518 -1.9555  0.3109 -0.5284
  161SAPE  H17Y18127   4.645   5.259   8.476 -0.1346  0.0454 -1.2503
  161SAPE  C31818128   4.599   5.305   8.684 -0.2728 -0.0545  0.2381
  161SAPE  H18X18129   4.603   5.195   8.698 -0.6305  0.1210  1.9198
  161SAPE  H18Y18130   4.500   5.336   8.724  0.0838  1.5770 -0.0462
  161SAPE  H18Z18131   4.679   5.352   8.745 -0.3117  1.4437 -0.7954
  162SAPE     N18132   2.990   0.976   6.293  0.5008  0.1125  0.3190
  162SAPE   HN118133   3.030   1.034   6.217  1.2728 -0.3072  0.3970
  162SAPE   HN218134   2.890   1.006   6.297  0.3545 -0.3750  0.4000
  162SAPE   HN318135   3.039   1.020   6.373  2.3204 -0.2853 -0.5372
  162SAPE   C1218136   2.995   0.828   6.278 -0.9231 -0.0556  0.5734
  162SAPE  H12A18137   2.990   0.802   6.170 -1.0899 -1.7317  0.9565
  162SAPE  H12B18138   2.906   0.780   6.324 -0.0822 -0.3964  1.8825
  162SAPE   C1118139   3.122   0.781   6.334 -0.1301 -0.2547  0.0678
  162SAPE  H11A18140   3.117   0.670   6.338 -2.1391 -0.3174 -1.9912
  162SAPE  H11B18141   3.143   0.816   6.438  1.2008  0.6728 -0.4948
  162SAPE     P18142   3.289   0.722   6.139 -0.3134 -0.4200 -0.3873
  162SAPE   O1318143   3.190   0.670   6.044  0.1358  0.1322  0.5481
  162SAPE   O1418144   3.416   0.776   6.088  0.6462 -0.4036 -0.0683
  162SAPE   O1218145   3.222   0.817   6.243 -0.0788 -0.4587 -0.0701
  162SAPE   O1118146   3.332   0.597   6.230 -0.2042 -0.2565 -0.1265
  162SAPE    C118147   3.443   0.614   6.312 -0.2702  0.5693  0.4771
  162SAPE    HA18148   3.534   0.591   6.253 -1.0372 -0.4983 -0.3257
  162SAPE    HB18149   3.447   0.719   6.348 -0.1966  0.4681  0.7717
  162SAPE    C218150   3.432   0.508   6.424 -0.2697 -0.5348 -0.7892
  162SAPE    HS18151   3.419   0.409   6.376 -2.3254 -1.7578  1.9864
  162SAPE   O2118152   3.318   0.545   6.504 -0.5797  0.7481 -0.0880
  162SAPE   C2118153   3.272   0.457   6.583  0.5043  0.1463 -0.8306
  162SAPE   O2218154   3.306   0.336   6.588  0.4409 -0.6406  0.1684
  162SAPE   C2218155   3.155   0.521   6.656 -0.4896 -0.2813 -0.4781
  162SAPE   H2R18156   3.160   0.632   6.653  0.4797 -0.3445 -1.9321
  162SAPE   H2S18157   3.056   0.486   6.622 -0.5926  1.0153 -1.5968
  162SAPE    C318158   3.555   0.500   6.516 -0.3784 -0.3951  0.4189
  162SAPE    HX18159   3.641   0.476   6.450  0.0880  1.7087  0.2046
  162SAPE    HY18160   3.534   0.419   6.589 -2.3200  0.7447  1.2075
  162SAPE   O3118161   3.575   0.624   6.587 -0.1047  0.0863  0.7448
  162SAPE   C3118162   3.689   0.634   6.662 -0.1034 -0.5006 -1.2709
  162SAPE   O3218163   3.774   0.552   6.661 -0.9634  0.3254  0.0122
  162SAPE   C3218164   3.684   0.753   6.760 -0.2249  0.4242 -0.0712
  162SAPE   H2X18165   3.681   0.841   6.693 -3.9721 -1.7020 -3.0774
  162SAPE   H2Y18166   3.777   0.757   6.821 -0.3569  1.0241  0.0999
  162SAPE   C2318167   3.174   0.490   6.814 -0.3371 -0.0030  0.3311
  162SAPE   H3R18168   3.248   0.564   6.850 -0.3790 -0.0438  0.4992
  162SAPE   H3S18169   3.216   0.389   6.835  1.5964  0.8925  1.0026
  162SAPE   C2418170   3.042   0.511   6.896  1.0110  0.0049 -0.1156
  162SAPE   H4R18171   3.071   0.483   7.000 -0.3881  1.6892  0.7798
  162SAPE   H4S18172   2.975   0.435   6.851 -0.2216 -0.0578  1.6995
  162SAPE   C2518173   2.982   0.645   6.869 -0.1424  0.0060 -0.9357
  162SAPE   H5R18174   2.928   0.662   6.775 -0.9307  4.3252  0.0728
  162SAPE   C2618175   2.994   0.758   6.957  0.1007 -0.5232 -0.1537
  162SAPE   H6R18176   2.946   0.854   6.931 -1.8008 -0.7422  2.1977
  162SAPE   C2718177   3.071   0.759   7.089 -0.1620  0.0209 -0.0604
  162SAPE   H7R18178   3.074   0.657   7.134  1.6730  0.7220  1.5231
  162SAPE   H7S18179   3.015   0.825   7.158  1.4364  1.0554  0.2780
  162SAPE   C2818180   3.205   0.815   7.055 -0.1711  0.0045 -0.3471
  162SAPE   H8R18181   3.259   0.782   6.965  0.9220  1.2542 -0.1878
  162SAPE   C2918182   3.269   0.907   7.131 -0.5608 -0.1177  0.4973
  162SAPE   H9R18183   3.369   0.944   7.103  0.0278 -0.4566  2.0507
  162SAPE  C21018184   3.230   0.966   7.263  0.0462  0.7559 -0.4015
  162SAPE  H10R18185   3.119   0.970   7.255 -0.0908  0.5961  1.1604
  162SAPE  H10S18186   3.269   1.070   7.260 -2.3180  1.7023 -0.5817
  162SAPE  C21118187   3.250   0.882   7.384 -0.7316  0.7844  0.1563
  162SAPE  H11R18188   3.238   0.773   7.377  2.2998  0.3909 -0.2607
  162SAPE  C21218189   3.252   0.917   7.513  0.6476  0.2195 -0.0436
  162SAPE  H12R18190   3.269   0.837   7.586 -0.0340  0.4800  0.4146
  162SAPE  C21318191   3.230   1.058   7.558  0.1035 -0.2426  0.5346
  162SAPE  H13R18192   3.164   1.056   7.648 -2.9584  1.0136 -1.5477
  162SAPE  H13S18193   3.182   1.119   7.479  0.0088  1.6729  1.9903
  162SAPE  C21418194   3.358   1.125   7.595  0.1246  0.2100 -0.5067
  162SAPE  H14R18195   3.421   1.151   7.509  0.2843 -0.2035 -0.5157
  162SAPE  C21518196   3.410   1.152   7.721 -0.3252 -0.1268  0.1816
  162SAPE  H15R18197   3.499   1.216   7.723 -0.0731 -0.4826  1.1926
  162SAPE  C21618198   3.345   1.124   7.858  0.2147  0.2732 -0.1493
  162SAPE  H16R18199   3.424   1.069   7.914 -0.5098  2.3741  3.2527
  162SAPE  H16S18200   3.269   1.044   7.844  0.4265  0.1288 -0.4964
  162SAPE  C21718201   3.293   1.240   7.938 -0.3537 -0.2833 -0.2228
  162SAPE  H17R18202   3.196   1.272   7.895 -0.4673  0.3731  0.5090
  162SAPE  H17S18203   3.370   1.318   7.926  0.1125 -0.3325  2.0082
  162SAPE  C21818204   3.285   1.225   8.088 -0.7440  0.4879  0.0564
  162SAPE  H18R18205   3.387   1.193   8.117  0.1091  0.0627 -3.0797
  162SAPE  H18S18206   3.216   1.144   8.122 -1.7266  0.6533 -1.4495
  162SAPE  C21918207   3.242   1.349   8.165  0.9231  0.4867  0.1896
  162SAPE  H19R18208   3.311   1.434   8.143  0.1160  1.1565  0.2030
  162SAPE  H19S18209   3.261   1.324   8.272 -0.2082 -0.1159  0.2698
  162SAPE  C22018210   3.098   1.388   8.128  0.2119  0.2043 -0.2454
  162SAPE  H20R18211   3.042   1.426   8.216 -1.6111  0.1407 -1.3249
  162SAPE  H20S18212   3.045   1.300   8.084  0.1994 -0.0074  0.1938
  162SAPE  H20T18213   3.099   1.470   8.052 -4.1221  1.5149  0.8509
  162SAPE   C3318214   3.554   0.742   6.851  0.1061  0.4298  0.5373
  162SAPE   H3X18215   3.465   0.702   6.799  1.0334  1.8965 -2.3875
  162SAPE   H3Y18216   3.527   0.843   6.888  0.4054 -0.0391  2.1389
  162SAPE   C3418217   3.566   0.654   6.971  0.0370  0.1769  0.1062
  162SAPE   H4X18218   3.613   0.559   6.942  0.4848  1.2661 -3.1389
  162SAPE   H4Y18219   3.466   0.641   7.018  0.4455 -3.3735  0.2086
  162SAPE   C3518220   3.664   0.705   7.077  1.0501  0.5960 -0.4987
  162SAPE   H5X18221   3.635   0.802   7.122 -0.7074 -1.0139  2.1954
  162SAPE   H5Y18222   3.767   0.719   7.040  0.5421 -0.7210 -2.6067
  162SAPE   C3618223   3.667   0.602   7.196  0.0512 -0.1025 -0.3308
  162SAPE   H6X18224   3.700   0.501   7.164  0.6305  0.4815 -1.6601
  162SAPE   H6Y18225   3.561   0.596   7.229 -1.2014  2.3846 -3.4201
  162SAPE   C3718226   3.754   0.641   7.318 -0.3326 -0.9510 -0.9150
  162SAPE   H7X18227   3.859   0.662   7.287 -0.4588  1.6018  0.1642
  162SAPE   H7Y18228   3.760   0.550   7.382  2.7056  0.6324  1.2906
  162SAPE   C3818229   3.703   0.752   7.411  0.4500 -0.3380  0.3571
  162SAPE   H8X18230   3.597   0.737   7.440 -0.9417 -0.6863 -4.1349
  162SAPE   H8Y18231   3.708   0.848   7.356 -0.0305  0.4876  1.7213
  162SAPE   C3918232   3.801   0.767   7.533  0.2385  0.0314  0.0163
  162SAPE   H9X18233   3.903   0.806   7.513  0.4894 -0.0221  1.1568
  162SAPE   H9Y18234   3.818   0.668   7.582  0.3235  0.7603  1.5049
  162SAPE  C31018235   3.730   0.858   7.633 -0.9000  0.0275 -0.3791
  162SAPE  H10X18236   3.627   0.821   7.652  0.2438 -1.5871  3.8552
  162SAPE  H10Y18237   3.724   0.962   7.595 -0.5720  0.5657  0.9687
  162SAPE  C31118238   3.788   0.861   7.775  0.1747 -0.1716 -0.3027
  162SAPE  H11X18239   3.898   0.876   7.785 -0.1352  1.5370  0.8938
  162SAPE  H11Y18240   3.765   0.763   7.822 -1.1407  0.0539 -0.4410
  162SAPE  C31218241   3.742   0.979   7.860 -0.4761  0.7705 -0.2983
  162SAPE  H12X18242   3.633   0.990   7.841 -1.1167 -1.7596  1.4297
  162SAPE  H12Y18243   3.797   1.064   7.814  0.8046  1.0255  1.5942
  162SAPE  C31318244   3.788   0.975   8.009  0.6989  0.0519  0.4074
  162SAPE  H13X18245   3.733   0.903   8.074 -0.2096 -0.1763 -0.5800
  162SAPE  H13Y18246   3.740   1.067   8.048 -1.0691 -0.5402 -0.2495
  162SAPE  C31418247   3.935   0.971   8.035 -0.4234 -0.7377  1.0869
  162SAPE  H14X18248   3.983   1.056   7.982 -2.8375  0.8280  1.2302
  162SAPE  H14Y18249   3.983   0.876   8.003  0.8532  0.6808 -1.5906
  162SAPE  C31518250   3.967   1.011   8.183  0.1318 -0.0270  0.1892
  162SAPE  H15X18251   3.900   0.962   8.256  2.4325 -0.7069  1.9788
  162SAPE  H15Y18252   3.967   1.120   8.205  1.7166 -0.0608  0.5138
  162SAPE  C31618253   4.114   0.959   8.219 -0.0738  0.2173  0.5755
  162SAPE  H16X18254   4.126   0.856   8.180  0.6810  0.7078 -0.5235
  162SAPE  H16Y18255   4.109   0.949   8.330 -1.1951 -2.0471  0.3765
  162SAPE  C31718256   4.223   1.048   8.177 -1.0551  0.0748 -0.1380
  162SAPE  H17X18257   4.203   1.151   8.213  0.1405  0.0787  0.5643
  162SAPE  H17Y18258   4.214   1.068   8.068  1.2747  1.8969 -0.0911
  162SAPE  C31818259   4.360   0.999   8.215  0.0873  0.3415  0.2146
  162SAPE  H18X18260   4.440   1.064   8.173  0.9773 -0.4989  0.5728
  162SAPE  H18Y18261   4.391   0.898   8.181 -1.1842  0.0548 -0.1230
  162SAPE  H18Z18262   4.375   0.990   8.325  0.8133  1.2495  0.2073
  163SAPE     N18263   1.760   0.282   6.404  0.2984 -1.0973  0.3874
  163SAPE   HN118264   1.781   0.184   6.429  0.2455 -0.6979  2.1353
  163SAPE   HN218265   1.684   0.268   6.335  0.5752 -0.0680 -0.1522
  163SAPE   HN318266   1.842   0.320   6.352 -0.7264  1.4791  0.4893
  163SAPE   C1218267   1.723   0.365   6.527  0.7362  0.0303 -0.1090
  163SAPE  H12A18268   1.650   0.304   6.585  1.5793 -0.3466  0.5716
  163SAPE  H12B18269   1.676   0.463   6.501  1.3931  0.6701  1.0315
  163SAPE   C1118270   1.844   0.396   6.617  0.0957  0.7003  0.2292
  163SAPE  H11A18271   1.865   0.295   6.659  0.0213 -0.1458 -1.6610
  163SAPE  H11B18272   1.816   0.462   6.702 -3.7246 -1.4062  0.8390
  163SAPE     P18273   2.096   0.397   6.558 -0.1126 -0.4030 -0.4541
  163SAPE   O1318274   2.096   0.257   6.516 -0.4287  0.1839  0.5332
  163SAPE   O1418275   2.189   0.483   6.483 -0.3227 -0.4781 -0.2527
  163SAPE   O1218276   1.956   0.456   6.537 -0.1923 -0.1901 -0.0331
  163SAPE   O1118277   2.113   0.417   6.713  0.3099  0.6071  0.5460
  163SAPE    C118278   2.150   0.537   6.778 -0.3435 -0.0557  0.2578
  163SAPE    HA18279   2.136   0.626   6.713  1.1530 -0.6167 -0.8878
  163SAPE    HB18280   2.095   0.554   6.873  0.7934  1.2100  0.7247
  163SAPE    C218281   2.306   0.543   6.811 -0.2351  0.1841  0.0392
  163SAPE    HS18282   2.368   0.533   6.719  0.9200  0.4361  0.7617
  163SAPE   O2118283   2.335   0.432   6.901  0.3185  0.3371  0.3199
  163SAPE   C2118284   2.390   0.323   6.837 -0.0786  0.4753 -0.1222
  163SAPE   O2218285   2.403   0.306   6.717 -0.3114  0.1401 -0.0244
  163SAPE   C2218286   2.447   0.228   6.932 -0.2982 -0.0644 -0.5950
  163SAPE   H2R18287   2.556   0.247   6.941 -0.3266 -0.4532  0.8735
  163SAPE   H2S18288   2.397   0.255   7.028  0.0334  0.4251 -0.5593
  163SAPE    C318289   2.348   0.678   6.873 -0.2727  0.2169 -0.4345
  163SAPE    HX18290   2.342   0.757   6.795 -0.2446  0.3251 -0.3279
  163SAPE    HY18291   2.456   0.666   6.895  0.2198 -0.9222 -3.0789
  163SAPE   O3118292   2.271   0.718   6.989  0.0915  0.5830  0.5075
  163SAPE   C3118293   2.310   0.667   7.104  0.0441 -0.2030 -0.5444
  163SAPE   O3218294   2.412   0.601   7.119  0.3129 -0.1853 -0.0788
  163SAPE   C3218295   2.206   0.691   7.211 -0.0627 -1.1868 -0.1890
  163SAPE   H2X18296   2.111   0.649   7.171 -1.3834  1.0935  0.3351
  163SAPE   H2Y18297   2.182   0.800   7.215 -2.0052 -1.5638 -0.4474
  163SAPE   C2318298   2.429   0.079   6.890  0.3380  0.2435 -0.7555
  163SAPE   H3R18299   2.471   0.046   6.792 -1.0094 -1.5151 -0.7841
  163SAPE   H3S18300   2.321   0.079   6.864  0.7820 -0.9608 -2.8515
  163SAPE   C2418301   2.454  -0.028   7.000  0.5268  0.5703  0.2362
  163SAPE   H4R18302   2.560  -0.042   7.033  0.4281 -0.7293  0.0444
  163SAPE   H4S18303   2.431  -0.128   6.958  0.4987  1.0052 -0.8136
  163SAPE   C2518304   2.370  -0.009   7.122 -0.0437  0.3410  0.3961
  163SAPE   H5R18305   2.269  -0.052   7.115 -0.3302  0.7713  1.5802
  163SAPE   C2618306   2.392   0.050   7.233  0.5531 -0.4701 -0.3486
  163SAPE   H6R18307   2.317   0.032   7.312 -0.0779 -1.1023 -1.0773
  163SAPE   C2718308   2.523   0.110   7.280 -0.4725  0.4777 -0.8160
  163SAPE   H7R18309   2.598   0.111   7.198 -0.0861  3.3734 -0.5325
  163SAPE   H7S18310   2.565   0.056   7.368  1.6252  0.5027 -1.7348
  163SAPE   C2818311   2.511   0.255   7.320  0.1508 -0.5108 -0.0295
  163SAPE   H8R18312   2.521   0.317   7.230  0.9428 -0.4506  0.0982
  163SAPE   C2918313   2.491   0.307   7.443  0.6242  1.0359 -0.6496
  163SAPE   H9R18314   2.482   0.416   7.459 -0.3895  1.5888 -4.0667
  163SAPE  C21018315   2.476   0.214   7.565  0.3249  0.0540  0.3292
  163SAPE  H10R18316   2.571   0.175   7.608 -0.0484 -1.3151 -0.0564
  163SAPE  H10S18317   2.418   0.124   7.536  1.4718 -0.2934 -0.9939
  163SAPE  C21118318   2.404   0.281   7.680  1.2882 -0.7621 -0.2173
  163SAPE  H11R18319   2.300   0.315   7.675  0.7753 -1.0736  4.1117
  163SAPE  C21218320   2.462   0.308   7.798  0.2262  0.0948 -0.6271
  163SAPE  H12R18321   2.399   0.344   7.880 -1.3678 -2.2744 -0.6993
  163SAPE  C21318322   2.603   0.276   7.828 -0.5682  0.5677 -0.5912
  163SAPE  H13R18323   2.664   0.312   7.742  0.4955  1.8000  0.6242
  163SAPE  H13S18324   2.621   0.168   7.811 -1.4882  0.3110  0.0230
  163SAPE  C21418325   2.672   0.314   7.959  0.4400  0.1510 -0.1460
  163SAPE  H14R18326   2.745   0.395   7.945  0.6942  0.3026  1.8133
  163SAPE  C21518327   2.665   0.251   8.076 -0.7314  0.3606  0.1006
  163SAPE  H15R18328   2.728   0.274   8.163  0.9604 -1.3355 -0.6249
  163SAPE  C21618329   2.582   0.126   8.097  0.4253  1.3721  0.1634
  163SAPE  H16R18330   2.639   0.030   8.097 -0.8728  0.5539  1.5554
  163SAPE  H16S18331   2.502   0.119   8.021  0.2252  1.2408  0.3860
  163SAPE  C21718332   2.513   0.137   8.234 -0.1040 -0.1422  0.3258
  163SAPE  H17R18333   2.441   0.053   8.240 -0.9148  0.5916  1.3426
  163SAPE  H17S18334   2.448   0.227   8.226 -0.6439 -0.5878 -0.4122
  163SAPE  C21818335   2.600   0.113   8.360 -0.1353 -0.1183  0.0999
  163SAPE  H18R18336   2.661   0.204   8.380  0.3135 -0.3435 -0.2392
  163SAPE  H18S18337   2.663   0.024   8.338 -1.4113 -0.9375 -0.3474
  163SAPE  C21918338   2.517   0.097   8.490  0.1821 -1.1301  0.6927
  163SAPE  H19R18339   2.426   0.161   8.502  1.5560  1.0368  0.1218
  163SAPE  H19S18340   2.580   0.123   8.577  1.9381 -0.8054 -0.6263
  163SAPE  C22018341   2.478  -0.050   8.509 -0.1654 -0.1781 -0.1949
  163SAPE  H20R18342   2.558  -0.124   8.488 -0.0099 -1.0771  3.0393
  163SAPE  H20S18343   2.392  -0.073   8.441 -0.5526  1.2352 -0.2190
  163SAPE  H20T18344   2.449  -0.072   8.614 -0.2284 -0.5414 -0.2874
  163SAPE   C3318345   2.258   0.635   7.351  0.4163  0.2754  0.5440
  163SAPE   H3X18346   2.295   0.532   7.338 -1.7224 -0.5216  0.4285
  163SAPE   H3Y18347   2.159   0.631   7.402 -0.4019 -1.8339 -1.0705
  163SAPE   C3418348   2.350   0.724   7.431 -0.6349  0.6844 -0.0812
  163SAPE   H4X18349   2.305   0.824   7.449  0.3650  0.9369  1.1438
  163SAPE   H4Y18350   2.449   0.736   7.382 -1.7635 -1.2911 -3.2050
  163SAPE   C3518351   2.383   0.669   7.578  0.5693  0.2830  0.8324
  163SAPE   H5X18352   2.431   0.568   7.577  3.2530  1.4391  2.1712
  163SAPE   H5Y18353   2.285   0.664   7.629  0.1286 -0.9557 -0.0616
  163SAPE   C3618354   2.491   0.756   7.650 -0.3619  0.3666 -0.5731
  163SAPE   H6X18355   2.455   0.856   7.681  1.3694  1.0056 -0.5115
  163SAPE   H6Y18356   2.580   0.767   7.584  2.3778  0.0700  2.8016
  163SAPE   C3718357   2.558   0.699   7.779 -0.5042 -0.0090 -0.5035
  163SAPE   H7X18358   2.629   0.776   7.817 -1.2469 -0.3038  1.5930
  163SAPE   H7Y18359   2.593   0.598   7.747 -1.8773  0.1825 -2.8850
  163SAPE   C3818360   2.438   0.680   7.877 -0.7088  0.0955 -0.1102
  163SAPE   H8X18361   2.364   0.615   7.827 -0.5842 -0.7784  0.8117
  163SAPE   H8Y18362   2.399   0.782   7.897  0.5614  0.4896  0.4999
  163SAPE   C3918363   2.477   0.630   8.017  0.1243  0.3036  0.4910
  163SAPE   H9X18364   2.513   0.525   8.020 -1.2116 -0.2039 -0.3014
  163SAPE   H9Y18365   2.381   0.606   8.066 -0.7184  0.4646 -1.0051
  163SAPE  C31018366   2.546   0.739   8.104 -0.7633  0.7673  0.0290
  163SAPE  H10X18367   2.504   0.841   8.091 -0.4238  0.9320  0.2051
  163SAPE  H10Y18368   2.649   0.756   8.065 -0.8826 -1.2858 -1.3667
  163SAPE  C31118369   2.543   0.692   8.248 -0.4595  0.4657  0.0508
  163SAPE  H11X18370   2.442   0.673   8.291 -0.5838 -2.2717 -1.2926
  163SAPE  H11Y18371   2.581   0.779   8.306 -0.2765  0.6878 -0.3922
  163SAPE  C31218372   2.628   0.566   8.269 -1.0314 -0.3581 -0.2057
  163SAPE  H12X18373   2.710   0.581   8.196 -1.9076  1.5077 -0.8615
  163SAPE  H12Y18374   2.569   0.474   8.247 -0.8090 -0.1581 -1.7645
  163SAPE  C31318375   2.686   0.548   8.413  0.8491 -0.1083 -0.2403
  163SAPE  H13X18376   2.618   0.479   8.468  0.5406  1.6969  1.7512
  163SAPE  H13Y18377   2.683   0.648   8.460  3.2579  0.0048 -0.1786
  163SAPE  C31418378   2.825   0.480   8.415 -0.3711 -0.6832  0.0697
  163SAPE  H14X18379   2.902   0.550   8.376 -0.4241 -0.2440  0.7222
  163SAPE  H14Y18380   2.823   0.393   8.346 -1.2362  0.6124 -1.6017
  163SAPE  C31518381   2.869   0.436   8.555 -0.8156  0.0100  0.1180
  163SAPE  H15X18382   2.953   0.365   8.542  0.5560  0.8274  3.5855
  163SAPE  H15Y18383   2.789   0.368   8.593 -0.5187 -0.5834 -0.3014
  163SAPE  C31618384   2.917   0.551   8.648 -0.3498 -0.3502 -0.4811
  163SAPE  H16X18385   2.843   0.633   8.652 -0.2278 -0.2343 -0.5817
  163SAPE  H16Y18386   3.010   0.594   8.604  0.3067 -1.6548 -0.4185
  163SAPE  C31718387   2.965   0.497   8.787  0.1301 -0.1010 -0.8061
  163SAPE  H17X18388   2.874   0.461   8.840 -0.7480  0.9743 -1.5392
  163SAPE  H17Y18389   2.999   0.585   8.845 -0.4336  0.0385 -0.6828
  163SAPE  C31818390   3.082   0.391   8.786 -0.0353 -0.0341  0.1646
  163SAPE  H18X18391   3.108   0.340   8.882  0.0942 -2.1949 -0.9568
  163SAPE  H18Y18392   3.174   0.431   8.738 -1.0745 -1.5258 -3.3914
  163SAPE  H18Z18393   3.043   0.308   8.724 -0.8396 -0.3410  1.0508
  164SAPE     N18394   0.989   1.248   6.007 -0.3927  0.3595  0.3247
  164SAPE   HN118395   0.924   1.313   5.958  1.2365  1.7303 -0.1314
  164SAPE   HN218396   1.069   1.310   6.031 -0.6230  0.5333  0.6562
  164SAPE   HN318397   1.014   1.174   5.938 -0.2246 -0.2168  0.9953
  164SAPE   C1218398   0.920   1.189   6.129 -0.0612 -0.1569  0.5408
  164SAPE  H12A18399   0.857   1.267   6.176 -1.6992 -0.3715 -1.1672
  164SAPE  H12B18400   1.003   1.176   6.201  1.3634  1.4571 -0.7390
  164SAPE   C1118401   0.844   1.068   6.083  0.7229 -0.1878  0.3498
  164SAPE  H11A18402   0.815   1.021   6.180  0.3805  1.2753  0.9867
  164SAPE  H11B18403   0.903   0.982   6.045  0.8258 -0.7099  1.6493
  164SAPE     P18404   0.586   1.118   6.027  0.0217  0.1358 -0.2356
  164SAPE   O1318405   0.550   1.255   5.984  0.3758  0.2422  0.3219
  164SAPE   O1418406   0.525   1.004   5.953  0.1508  0.5536 -0.5187
  164SAPE   O1218407   0.737   1.106   5.995 -0.2099 -0.4856 -0.0431
  164SAPE   O1118408   0.582   1.096   6.182 -0.1897  1.1190 -0.7448
  164SAPE    C118409   0.455   1.074   6.243 -0.2706 -0.9495 -0.6226
  164SAPE    HA18410   0.407   1.168   6.277  0.4993 -2.0383  4.2818
  164SAPE    HB18411   0.393   1.017   6.171 -0.3541 -0.4200 -0.9710
  164SAPE    C218412   0.476   0.977   6.362 -0.3972  0.3989 -0.4199
  164SAPE    HS18413   0.373   0.956   6.396 -1.2336  0.6738 -2.6148
  164SAPE   O2118414   0.559   1.033   6.464  0.6829  0.1330  0.5675
  164SAPE   C2118415   0.489   1.095   6.563 -1.2234  0.5311  0.5335
  164SAPE   O2218416   0.379   1.140   6.554 -0.0213 -0.2212 -0.0248
  164SAPE   C2218417   0.587   1.124   6.671 -0.0983 -0.8503  0.1322
  164SAPE   H2R18418   0.637   1.030   6.700 -1.4107 -1.7385 -0.4142
  164SAPE   H2S18419   0.657   1.199   6.629 -0.0410 -2.0417 -2.0302
  164SAPE    C318420   0.538   0.845   6.323 -0.5167 -0.0371 -0.2338
  164SAPE    HX18421   0.649   0.855   6.321 -0.6213  3.9772  2.6875
  164SAPE    HY18422   0.494   0.828   6.222  2.0361 -1.3793 -1.2385
  164SAPE   O3118423   0.484   0.734   6.401 -0.1890 -0.3184  0.6694
  164SAPE   C3118424   0.555   0.718   6.511  0.1562  0.1395 -0.0089
  164SAPE   O3218425   0.660   0.772   6.528  0.1835  0.0805  0.7909
  164SAPE   C3218426   0.473   0.641   6.616 -0.4728  0.1313  0.9215
  164SAPE   H2X18427   0.478   0.537   6.578  1.1579 -0.4306  2.5547
  164SAPE   H2Y18428   0.371   0.687   6.615 -0.0485  1.1251 -1.2416
  164SAPE   C2318429   0.520   1.176   6.799  0.6265 -0.2142 -0.5204
  164SAPE   H3R18430   0.444   1.104   6.838  1.0715 -0.6404 -0.4354
  164SAPE   H3S18431   0.460   1.267   6.780  0.6647  0.1928  1.1255
  164SAPE   C2418432   0.623   1.205   6.906  0.0558  0.1577  0.8371
  164SAPE   H4R18433   0.688   1.116   6.921 -0.5047 -0.3136  0.5370
  164SAPE   H4S18434   0.571   1.238   6.999  0.8327  1.5385  0.8045
  164SAPE   C2518435   0.712   1.318   6.876 -0.5528 -0.7089 -0.0434
  164SAPE   H5R18436   0.767   1.312   6.781  1.1893  0.8322  0.7979
  164SAPE   C2618437   0.713   1.441   6.942  0.5903 -0.0264 -0.4592
  164SAPE   H6R18438   0.775   1.520   6.898 -0.9086  0.1928 -2.2740
  164SAPE   C2718439   0.631   1.479   7.058 -0.2765 -0.1130  0.5528
  164SAPE   H7R18440   0.586   1.390   7.106  0.9350 -0.5437  0.9199
  164SAPE   H7S18441   0.548   1.536   7.010  0.0647 -0.4165 -0.4299
  164SAPE   C2818442   0.709   1.569   7.152  0.7547 -0.7281  0.2618
  164SAPE   H8R18443   0.756   1.653   7.099 -0.3162  0.8283  1.6746
  164SAPE   C2918444   0.729   1.568   7.285 -0.0759  0.7986  0.6216
  164SAPE   H9R18445   0.795   1.648   7.322  1.9779 -0.3805 -0.3180
  164SAPE  C21018446   0.671   1.463   7.378 -0.4561 -0.9178  0.2086
  164SAPE  H10R18447   0.750   1.430   7.448  1.0366 -1.2027 -1.5353
  164SAPE  H10S18448   0.654   1.365   7.329 -1.5861 -0.7529  0.2507
  164SAPE  C21118449   0.555   1.513   7.454 -0.2110 -0.2701  0.2329
  164SAPE  H11R18450   0.463   1.491   7.397  1.9682 -1.7393 -3.0147
  164SAPE  C21218451   0.550   1.567   7.580 -0.5033 -0.6224 -1.1180
  164SAPE  H12R18452   0.457   1.583   7.635 -0.2967 -2.3626 -0.1704
  164SAPE  C21318453   0.676   1.579   7.671 -0.2701 -0.2374  0.5082
  164SAPE  H13R18454   0.758   1.616   7.605 -0.9053 -0.4030 -0.3974
  164SAPE  H13S18455   0.692   1.472   7.697 -0.1618 -0.3212  0.0975
  164SAPE  C21418456   0.677   1.664   7.801 -0.8008 -0.7283  0.4215
  164SAPE  H14R18457   0.753   1.742   7.790 -0.6802 -0.9797 -0.7410
  164SAPE  C21518458   0.602   1.652   7.907  0.4846 -0.3659 -0.7442
  164SAPE  H15R18459   0.616   1.723   7.990  1.0778 -0.0691 -1.0964
  164SAPE  C21618460   0.488   1.551   7.933 -0.7769  0.9885 -0.2005
  164SAPE  H16R18461   0.474   1.493   7.839 -1.1116  1.9780 -0.7820
  164SAPE  H16S18462   0.394   1.609   7.946 -0.1823  1.6302  1.5336
  164SAPE  C21718463   0.514   1.468   8.062 -0.1199 -0.4084 -0.1088
  164SAPE  H17R18464   0.601   1.399   8.071 -1.0958 -1.4138  3.0133
  164SAPE  H17S18465   0.427   1.399   8.066 -0.4302 -0.0614 -0.7744
  164SAPE  C21818466   0.525   1.547   8.194  0.1295 -0.0456 -0.0854
  164SAPE  H18R18467   0.421   1.585   8.202 -0.5892 -2.2759  2.8297
  164SAPE  H18S18468   0.599   1.630   8.185  0.3079 -0.0718  1.0508
  164SAPE  C21918469   0.544   1.461   8.313  0.4212  0.3388 -0.2989
  164SAPE  H19R18470   0.639   1.404   8.303  0.8878  1.0360  0.0635
  164SAPE  H19S18471   0.469   1.380   8.303  1.3049 -0.6259  0.6582
  164SAPE  C22018472   0.532   1.532   8.445 -0.1448  0.3963  0.2895
  164SAPE  H20R18473   0.614   1.608   8.453  0.0433 -0.0091  3.5223
  164SAPE  H20S18474   0.543   1.459   8.528  0.9966  0.6348  0.3688
  164SAPE  H20T18475   0.441   1.596   8.447  0.4949  1.5574 -2.7526
  164SAPE   C3318476   0.535   0.647   6.755  0.1241 -0.0473 -0.1642
  164SAPE   H3X18477   0.646   0.642   6.756  0.1573 -2.2409  3.4182
  164SAPE   H3Y18478   0.508   0.562   6.822 -0.0423  0.1289 -0.0077
  164SAPE   C3418479   0.516   0.777   6.833 -0.4641  0.9512 -0.1308
  164SAPE   H4X18480   0.412   0.815   6.843 -0.2553  1.4265  0.3648
  164SAPE   H4Y18481   0.581   0.851   6.781 -1.3605 -0.2055 -3.0589
  164SAPE   C3518482   0.566   0.754   6.980  0.3815  0.0904 -0.3336
  164SAPE   H5X18483   0.665   0.705   6.987  1.0819  1.6431  1.2250
  164SAPE   H5Y18484   0.489   0.701   7.040  0.5030  2.5202  2.1377
  164SAPE   C3618485   0.584   0.881   7.059 -0.7729  0.1801 -0.1717
  164SAPE   H6X18486   0.490   0.937   7.041 -1.5514 -0.5694  1.3630
  164SAPE   H6Y18487   0.671   0.932   7.014 -0.5223 -1.1125 -1.2233
  164SAPE   C3718488   0.603   0.853   7.216 -0.0282 -0.5360  0.1677
  164SAPE   H7X18489   0.709   0.820   7.210  0.1732 -0.2169  1.5605
  164SAPE   H7Y18490   0.545   0.767   7.256 -1.3343 -0.4930 -1.5272
  164SAPE   C3818491   0.580   0.977   7.301 -0.3060 -0.3047 -0.3811
  164SAPE   H8X18492   0.474   1.007   7.286 -0.1674 -0.6172 -2.2839
  164SAPE   H8Y18493   0.636   1.067   7.267  0.5044 -1.0869 -1.1674
  164SAPE   C3918494   0.594   0.959   7.453 -0.1708  0.3005 -0.0515
  164SAPE   H9X18495   0.703   0.963   7.476 -0.8026  1.0568  3.2324
  164SAPE   H9Y18496   0.546   0.861   7.477  0.0691 -0.1296 -1.2627
  164SAPE  C31018497   0.530   1.073   7.529  0.0922 -0.6813 -1.1560
  164SAPE  H10X18498   0.422   1.069   7.503 -0.1308  0.7093 -0.5234
  164SAPE  H10Y18499   0.573   1.166   7.487 -0.5208  0.1267 -0.0478
  164SAPE  C31118500   0.538   1.066   7.682 -0.1789  0.3229  0.2331
  164SAPE  H11X18501   0.496   1.163   7.715  2.0615  1.0554  1.1477
  164SAPE  H11Y18502   0.641   1.064   7.724  0.8958  0.4283 -2.2144
  164SAPE  C31218503   0.476   0.951   7.748  0.4727  0.8624  0.1716
  164SAPE  H12X18504   0.550   0.868   7.743 -2.0582 -1.5590  0.7392
  164SAPE  H12Y18505   0.383   0.922   7.695  1.4538 -1.1615 -0.5458
  164SAPE  C31318506   0.443   0.978   7.897  0.2395 -0.5161  0.0803
  164SAPE  H13X18507   0.405   0.884   7.943  1.3235 -0.2246  1.6337
  164SAPE  H13Y18508   0.370   1.061   7.891 -0.7003 -1.3742 -0.7994
  164SAPE  C31418509   0.568   1.025   7.973  0.1926 -0.5554  0.6623
  164SAPE  H14X18510   0.589   1.130   7.942 -2.1433 -0.4553 -0.8429
  164SAPE  H14Y18511   0.654   0.959   7.947 -0.0553 -1.4060  1.9349
  164SAPE  C31518512   0.556   1.026   8.130  0.4241  0.2723  0.4834
  164SAPE  H15X18513   0.535   0.924   8.168  0.4642  0.0653 -0.0316
  164SAPE  H15Y18514   0.474   1.098   8.151  1.2828  1.5872 -0.4620
  164SAPE  C31618515   0.682   1.087   8.198  0.6133 -0.2164 -0.3091
  164SAPE  H16X18516   0.697   1.191   8.164  1.2749  1.1421  3.5808
  164SAPE  H16Y18517   0.771   1.034   8.158  0.1957 -0.9417 -0.3063
  164SAPE  C31718518   0.666   1.087   8.343  0.2566 -0.0597 -0.3617
  164SAPE  H17X18519   0.559   1.068   8.366  0.3739 -0.1500  0.1178
  164SAPE  H17Y18520   0.678   1.188   8.388 -1.8608 -0.3524  1.0244
  164SAPE  C31818521   0.761   0.983   8.411 -0.6335  0.2008  0.4810
  164SAPE  H18X18522   0.761   0.887   8.356 -2.7919  0.5358 -0.1640
  164SAPE  H18Y18523   0.729   0.972   8.517 -0.3293  1.9328  0.7824
  164SAPE  H18Z18524   0.865   1.022   8.405 -0.1239 -1.2981 -1.5921
  165SAPE     N18525   6.232   4.932   5.964 -0.2571  0.5515 -0.0891
  165SAPE   HN118526   6.271   4.863   6.031  0.9504  1.7593  0.5019
  165SAPE   HN218527   6.258   4.895   5.870  3.0929 -0.4706  1.0692
  165SAPE   HN318528   6.285   5.020   5.979  0.1187  0.6113 -1.5692
  165SAPE   C1218529   6.087   4.963   5.986 -0.5778 -0.4320 -0.0511
  165SAPE  H12A18530   6.024   4.872   5.978 -0.5648 -0.7704  2.7826
  165SAPE  H12B18531   6.063   5.034   5.904  1.4454 -3.0965 -3.2079
  165SAPE   C1118532   6.075   5.010   6.131  1.0044  0.6882 -0.1888
  165SAPE  H11A18533   5.971   5.039   6.160 -0.5443 -0.2492 -4.1141
  165SAPE  H11B18534   6.119   5.110   6.149  1.6530  0.5440 -0.9636
  165SAPE     P18535   6.251   4.946   6.317 -0.4113  0.1361 -0.0139
  165SAPE   O1318536   6.282   4.819   6.396 -0.7865  0.0650  0.5556
  165SAPE   O1418537   6.359   5.001   6.230  0.1923  0.7537  0.1892
  165SAPE   O1218538   6.123   4.912   6.228  0.1541 -0.1592  0.1837
  165SAPE   O1118539   6.210   5.063   6.408 -0.4868 -0.3218 -0.4574
  165SAPE    C118540   6.120   5.049   6.523 -0.1882  0.2061  0.8457
  165SAPE    HA18541   6.085   4.945   6.543  1.9340 -0.5452  0.8695
  165SAPE    HB18542   6.166   5.088   6.616  2.0245 -0.2918  0.0144
  165SAPE    C218543   5.994   5.133   6.496  0.1833  0.4097  0.4922
  165SAPE    HS18544   5.968   5.110   6.391  0.5355 -0.9171  0.6708
  165SAPE   O2118545   6.016   5.272   6.517  0.3014  0.3874 -0.7907
  165SAPE   C2118546   5.937   5.356   6.461  0.6746  0.0033  0.6229
  165SAPE   O2218547   5.863   5.333   6.364 -0.3288 -0.2950  0.4429
  165SAPE   C2218548   5.946   5.487   6.541  0.1742 -0.2715  0.3986
  165SAPE   H2R18549   5.850   5.535   6.569  1.0600  1.2384  0.9828
  165SAPE   H2S18550   5.991   5.451   6.635  0.8289  1.0093  0.6094
  165SAPE    C318551   5.870   5.078   6.578 -0.1591  0.8165 -0.4762
  165SAPE    HX18552   5.883   4.972   6.548  0.8660  1.1054 -1.1170
  165SAPE    HY18553   5.777   5.108   6.526 -1.8000  0.1861  1.9516
  165SAPE   O3118554   5.877   5.089   6.723  0.0621 -0.2333  0.0939
  165SAPE   C3118555   5.815   5.201   6.763  0.3064 -0.0526 -0.3467
  165SAPE   O3218556   5.747   5.276   6.698 -0.0700  0.2996  0.2958
  165SAPE   C3218557   5.840   5.230   6.910  0.3342  0.8392 -1.0731
  165SAPE   H2X18558   5.949   5.230   6.930  0.1873  0.1560 -0.2495
  165SAPE   H2Y18559   5.797   5.141   6.960  0.7042  1.1205 -0.2432
  165SAPE   C2318560   6.036   5.586   6.468 -0.2829 -0.0720  0.2359
  165SAPE   H3R18561   6.007   5.589   6.360 -0.7826  0.3704  0.3786
  165SAPE   H3S18562   6.141   5.554   6.486 -0.0133  0.2301 -0.7403
  165SAPE   C2418563   6.027   5.724   6.529 -0.1874  0.0733  0.1339
  165SAPE   H4R18564   6.098   5.788   6.471 -0.2880 -0.1985 -0.2881
  165SAPE   H4S18565   6.056   5.717   6.636 -3.2052 -0.4732  0.9963
  165SAPE   C2518566   5.888   5.789   6.509  0.7743  0.0695 -0.0888
  165SAPE   H5R18567   5.845   5.775   6.409  0.5169 -1.2446  0.1797
  165SAPE   C2618568   5.818   5.851   6.607 -0.4898  0.3350  0.1414
  165SAPE   H6R18569   5.733   5.915   6.580 -0.5095 -0.3029 -1.4296
  165SAPE   C2718570   5.867   5.870   6.745 -0.2069 -0.1729 -0.0587
  165SAPE   H7R18571   5.964   5.924   6.744  0.1714 -0.7794  1.5865
  165SAPE   H7S18572   5.893   5.771   6.788 -1.8932  0.1313  1.8208
  165SAPE   C2818573   5.759   5.935   6.820  0.4713 -0.0620 -0.1695
  165SAPE   H8R18574   5.750   6.045   6.820  1.6834  0.1168  2.3688
  165SAPE   C2918575   5.677   5.877   6.910  0.4220 -0.0363 -0.7247
  165SAPE   H9R18576   5.595   5.934   6.955  3.5715  2.2527  2.6833
  165SAPE  C21018577   5.683   5.733   6.941 -0.2319  0.4638 -0.2897
  165SAPE  H10R18578   5.789   5.709   6.964 -0.2353  1.3570  0.8032
  165SAPE  H10S18579   5.672   5.680   6.845 -0.6009 -1.3618  0.7259
  165SAPE  C21118580   5.573   5.684   7.034  0.2596 -0.3068 -0.5101
  165SAPE  H11R18581   5.528   5.589   7.000  1.3967  0.2292 -3.8620
  165SAPE  C21218582   5.554   5.714   7.162  0.0716 -0.6909  0.2459
  165SAPE  H12R18583   5.469   5.673   7.218 -3.5260 -0.3556 -4.3635
  165SAPE  C21318584   5.642   5.815   7.239  0.0857  0.2957 -0.3181
  165SAPE  H13R18585   5.690   5.892   7.174  0.3490  1.8703  1.6528
  165SAPE  H13S18586   5.726   5.771   7.297  0.9564  1.4978 -0.6217
  165SAPE  C21418587   5.543   5.895   7.318  0.0549 -0.3891 -0.5652
  165SAPE  H14R18588   5.479   5.967   7.265 -2.1872 -2.0116 -0.2086
  165SAPE  C21518589   5.530   5.889   7.450 -0.0921  1.0705 -0.9192
  165SAPE  H15R18590   5.463   5.957   7.505 -1.3265 -0.9223  0.1286
  165SAPE  C21618591   5.608   5.799   7.543 -0.2035 -0.2566  0.1464
  165SAPE  H16R18592   5.664   5.734   7.473  0.3357  1.2488 -0.8641
  165SAPE  H16S18593   5.542   5.728   7.598 -1.2443  0.8681  0.4131
  165SAPE  C21718594   5.707   5.881   7.627  0.2024 -0.5186  0.0622
  165SAPE  H17R18595   5.654   5.969   7.669 -0.5221 -1.2748  0.7764
  165SAPE  H17S18596   5.790   5.912   7.560  1.5564 -1.2122  1.3737
  165SAPE  C21818597   5.773   5.798   7.737 -0.2823  0.5521 -0.1233
  165SAPE  H18R18598   5.805   5.703   7.690 -2.7970  0.1433 -1.2222
  165SAPE  H18S18599   5.713   5.776   7.827 -0.9398 -1.0560 -0.9126
  165SAPE  C21918600   5.899   5.867   7.790 -0.6622  0.1033  1.1147
  165SAPE  H19R18601   5.888   5.971   7.827 -0.4586  0.5267  0.0319
  165SAPE  H19S18602   5.950   5.883   7.692  0.5230  0.3638  1.7550
  165SAPE  C22018603   5.987   5.792   7.890  0.7051  0.9439  0.1242
  165SAPE  H20R18604   6.096   5.813   7.885  0.7822  0.7828  0.9665
  165SAPE  H20S18605   5.966   5.684   7.875 -0.3375  1.2717 -0.9783
  165SAPE  H20T18606   5.967   5.828   7.994  2.9297  1.1414  0.5288
  165SAPE   C3318607   5.773   5.359   6.965 -0.7235 -0.1715 -0.2495
  165SAPE   H3X18608   5.676   5.328   7.009 -1.1824 -1.1651 -1.9020
  165SAPE   H3Y18609   5.740   5.417   6.876 -1.6405 -0.7389 -0.2904
  165SAPE   C3418610   5.851   5.436   7.075 -0.4517  0.5924 -0.3449
  165SAPE   H4X18611   5.794   5.528   7.100 -1.5763  0.8773 -3.5710
  165SAPE   H4Y18612   5.951   5.473   7.044 -0.2357 -0.3715 -0.8422
  165SAPE   C3518613   5.866   5.351   7.199  0.4467 -0.7401 -0.2582
  165SAPE   H5X18614   5.934   5.267   7.173  3.2042  1.5320 -0.9305
  165SAPE   H5Y18615   5.761   5.322   7.222  0.3117  0.0817  0.1720
  165SAPE   C3618616   5.916   5.431   7.318 -0.3876 -0.0503 -0.5398
  165SAPE   H6X18617   5.844   5.503   7.363  0.8051 -0.1285  1.6552
  165SAPE   H6Y18618   6.010   5.476   7.279 -1.6004  1.5556 -1.7268
  165SAPE   C3718619   5.960   5.339   7.430  0.1332  0.1862  0.2918
  165SAPE   H7X18620   6.037   5.265   7.400 -2.4175 -2.0401 -1.2329
  165SAPE   H7Y18621   5.872   5.286   7.473  0.2754  1.0241  1.6738
  165SAPE   C3818622   6.020   5.416   7.546  0.2206 -0.6248 -0.0925
  165SAPE   H8X18623   5.946   5.492   7.581  2.0105 -0.0048  2.6489
  165SAPE   H8Y18624   6.116   5.459   7.509 -0.3593  1.3944  0.6066
  165SAPE   C3918625   6.062   5.325   7.658  0.0054  0.0359 -0.1748
  165SAPE   H9X18626   6.135   5.250   7.619 -2.2989 -1.3250 -2.1633
  165SAPE   H9Y18627   5.970   5.276   7.695 -0.6475  1.6170  0.3480
  165SAPE  C31018628   6.111   5.414   7.780  0.3565  0.1860 -0.6267
  165SAPE  H10X18629   6.034   5.486   7.815  0.3311 -0.3316  0.4271
  165SAPE  H10Y18630   6.205   5.468   7.756  1.6661 -1.0664  1.4091
  165SAPE  C31118631   6.153   5.327   7.899  0.5405  1.0952 -0.3497
  165SAPE  H11X18632   6.252   5.294   7.861  0.1154  1.7292 -2.1152
  165SAPE  H11Y18633   6.078   5.246   7.912 -0.4822  2.2582  1.3531
  165SAPE  C31218634   6.156   5.388   8.042  0.3052 -0.3627 -0.3781
  165SAPE  H12X18635   6.212   5.321   8.112  0.1828  0.2968  0.3611
  165SAPE  H12Y18636   6.055   5.405   8.084 -0.5887 -0.2535 -2.4556
  165SAPE  C31318637   6.231   5.519   8.044 -0.1669  0.4821  0.5326
  165SAPE  H13X18638   6.168   5.589   7.985 -0.6915 -1.2468 -1.0564
  165SAPE  H13Y18639   6.325   5.501   7.989  0.9954  2.6028  1.6973
  165SAPE  C31418640   6.262   5.573   8.185 -0.1534 -0.7327  0.0631
  165SAPE  H14X18641   6.179   5.600   8.252  0.2639  1.7156 -0.3291
  165SAPE  H14Y18642   6.323   5.665   8.180  1.8329 -2.0320 -0.8780
  165SAPE  C31518643   6.339   5.472   8.275  0.0520  0.1778  0.4051
  165SAPE  H15X18644   6.413   5.418   8.212  1.9748  0.2065  2.5548
  165SAPE  H15Y18645   6.268   5.396   8.314  2.5679 -1.0196  2.9199
  165SAPE  C31618646   6.393   5.540   8.394  0.2979  0.5713 -0.2376
  165SAPE  H16X18647   6.313   5.562   8.469  0.2103 -0.6110  0.0380
  165SAPE  H16Y18648   6.458   5.627   8.372  0.9555  0.9032  2.6391
  165SAPE  C31718649   6.491   5.443   8.459  0.9585 -0.2385 -0.4420
  165SAPE  H17X18650   6.447   5.341   8.462  1.6619 -0.5564  2.1815
  165SAPE  H17Y18651   6.480   5.471   8.566  0.0097 -1.3733 -0.2161
  165SAPE  C31818652   6.632   5.436   8.400 -0.6214  0.1458 -0.4452
  165SAPE  H18X18653   6.616   5.419   8.292 -1.4701 -0.7731 -0.1913
  165SAPE  H18Y18654   6.689   5.353   8.446 -4.1284 -1.5547  1.2448
  165SAPE  H18Z18655   6.677   5.536   8.416 -0.9257 -0.0123  1.7670
  166SAPE     N18656   5.441   1.635   5.960 -0.5259  0.5093  0.7189
  166SAPE   HN118657   5.370   1.565   5.991  2.1644 -2.9195 -0.1614
  166SAPE   HN218658   5.538   1.598   5.967 -0.4454  0.7006  0.6135
  166SAPE   HN318659   5.438   1.719   6.020 -1.2857  0.5703  0.6031
  166SAPE   C1218660   5.406   1.675   5.818 -0.3347  0.0204 -0.0897
  166SAPE  H12A18661   5.472   1.756   5.781 -0.7394  0.0126 -0.8495
  166SAPE  H12B18662   5.309   1.729   5.811 -0.3061 -0.1296 -2.3670
  166SAPE   C1118663   5.435   1.549   5.728  0.0986  0.4822 -0.6738
  166SAPE  H11A18664   5.392   1.569   5.628 -2.1936  0.9413  0.3413
  166SAPE  H11B18665   5.384   1.456   5.763 -1.0224  1.6883  1.0427
  166SAPE     P18666   5.652   1.400   5.779  0.5454  0.2359 -0.3520
  166SAPE   O1318667   5.595   1.279   5.715  0.5700  0.3687 -0.2963
  166SAPE   O1418668   5.797   1.422   5.787  0.7394 -0.4589  0.1636
  166SAPE   O1218669   5.577   1.521   5.704  0.2739  0.0794  0.1593
  166SAPE   O1118670   5.590   1.407   5.932  0.3466  0.2888  0.8394
  166SAPE    C118671   5.572   1.301   6.021 -0.0855  0.1045  0.7144
  166SAPE    HA18672   5.464   1.276   6.029 -0.2812  1.1577  1.6022
  166SAPE    HB18673   5.629   1.210   5.991 -2.3596 -2.3329  3.1883
  166SAPE    C218674   5.632   1.339   6.158 -1.4258  0.1657 -0.0347
  166SAPE    HS18675   5.568   1.415   6.206  1.2424  0.4161  3.4668
  166SAPE   O2118676   5.770   1.375   6.139 -0.2384 -0.0183 -0.1444
  166SAPE   C2118677   5.780   1.510   6.141 -0.3402  0.0507 -0.0672
  166SAPE   O2218678   5.681   1.586   6.147 -1.0230  0.1987  0.1444
  166SAPE   C2218679   5.926   1.561   6.147  0.7579 -0.2309 -0.4795
  166SAPE   H2R18680   5.990   1.476   6.178 -0.9744 -1.1670  0.7728
  166SAPE   H2S18681   5.946   1.591   6.042  1.5970 -1.4556 -0.6931
  166SAPE    C318682   5.632   1.212   6.243  0.4549 -0.3481  0.5898
  166SAPE    HX18683   5.684   1.127   6.194 -1.7948 -0.0601 -2.6584
  166SAPE    HY18684   5.527   1.177   6.251  0.0886  1.0018  2.5328
  166SAPE   O3118685   5.677   1.235   6.372  0.8197 -0.1181  0.1177
  166SAPE   C3118686   5.799   1.200   6.399 -0.4837  0.0227 -0.2603
  166SAPE   O3218687   5.882   1.155   6.322  0.5841  0.0643 -0.0960
  166SAPE   C3218688   5.816   1.205   6.554 -0.0283 -0.8121  0.3476
  166SAPE   H2X18689   5.730   1.156   6.605  0.6589  0.6666  3.1424
  166SAPE   H2Y18690   5.811   1.312   6.584  2.2551 -0.6367  0.2452
  166SAPE   C2318691   5.940   1.676   6.242  0.2084 -0.0726 -0.6089
  166SAPE   H3R18692   5.869   1.760   6.223  2.0914  1.5784 -0.6429
  166SAPE   H3S18693   6.037   1.727   6.225  2.5464 -2.5129  3.6961
  166SAPE   C2418694   5.945   1.637   6.393 -0.3251  0.4536 -1.0804
  166SAPE   H4R18695   5.853   1.576   6.406  0.4490 -0.8225 -1.4955
  166SAPE   H4S18696   5.930   1.729   6.454  1.9487 -0.2563  0.6693
  166SAPE   C2518697   6.070   1.563   6.426 -0.3346 -0.6599 -0.0308
  166SAPE   H5R18698   6.104   1.498   6.345 -0.6956  0.4258 -1.0739
  166SAPE   C2618699   6.142   1.573   6.536  0.3956  0.1027 -0.5305
  166SAPE   H6R18700   6.231   1.508   6.543 -0.4683 -0.9372  1.3976
  166SAPE   C2718701   6.123   1.659   6.658 -0.5816  0.0808  0.1248
  166SAPE   H7R18702   6.031   1.722   6.659 -1.5892 -1.3283 -0.0635
  166SAPE   H7S18703   6.208   1.731   6.660  0.9616 -1.5631  3.9640
  166SAPE   C2818704   6.127   1.592   6.795  0.2612 -1.0115  0.3595
  166SAPE   H8R18705   6.028   1.576   6.838  0.2924 -1.3344  0.3136
  166SAPE   C2918706   6.237   1.563   6.867  0.2092  0.6394  0.0050
  166SAPE   H9R18707   6.228   1.512   6.963 -0.0212  0.1922 -0.2499
  166SAPE  C21018708   6.375   1.588   6.809 -0.5662  0.0896  0.0420
  166SAPE  H10R18709   6.380   1.538   6.710 -2.7369  1.2801 -0.7344
  166SAPE  H10S18710   6.441   1.527   6.873 -0.8154 -1.1907 -0.8764
  166SAPE  C21118711   6.432   1.724   6.788  0.3979 -0.3979  0.4613
  166SAPE  H11R18712   6.410   1.761   6.687  0.6712 -0.5283  0.3548
  166SAPE  C21218713   6.489   1.805   6.882  0.0349  0.7608  0.0040
  166SAPE  H12R18714   6.530   1.901   6.848  2.9314 -0.4588 -0.2566
  166SAPE  C21318715   6.521   1.772   7.024 -0.0281  0.4875  0.1359
  166SAPE  H13R18716   6.490   1.671   7.056  1.8600 -0.5504 -1.1314
  166SAPE  H13S18717   6.473   1.848   7.089 -1.9597 -1.1543  0.7246
  166SAPE  C21418718   6.669   1.771   7.051  0.5227 -0.5773  0.4700
  166SAPE  H14R18719   6.720   1.787   6.955 -1.0083  2.3106  0.0087
  166SAPE  C21518720   6.730   1.759   7.169  0.5095 -0.3283 -0.4646
  166SAPE  H15R18721   6.838   1.744   7.160  0.2885 -2.5628  0.1848
  166SAPE  C21618722   6.661   1.740   7.299  0.5495  0.1698 -0.0475
  166SAPE  H16R18723   6.556   1.704   7.295  0.1253  1.4166 -0.6765
  166SAPE  H16S18724   6.665   1.839   7.350 -4.6295  1.7255 -2.0463
  166SAPE  C21718725   6.738   1.640   7.392  0.1166  0.5465 -0.0484
  166SAPE  H17R18726   6.842   1.679   7.397 -0.2410  1.7504 -1.3174
  166SAPE  H17S18727   6.750   1.549   7.330  0.7867  1.1814 -0.8725
  166SAPE  C21818728   6.659   1.607   7.522  0.0908 -0.4690  0.2863
  166SAPE  H18R18729   6.717   1.537   7.586  0.3164 -1.6564 -1.1307
  166SAPE  H18S18730   6.564   1.559   7.488  0.3957 -1.1885  0.4227
  166SAPE  C21918731   6.629   1.727   7.611  0.0360 -0.5686  0.6514
  166SAPE  H19R18732   6.560   1.689   7.690 -0.1165  1.2142  1.4183
  166SAPE  H19S18733   6.576   1.809   7.559 -0.6359 -0.8698  0.8429
  166SAPE  C22018734   6.762   1.781   7.675 -0.2664  0.5243  0.7536
  166SAPE  H20R18735   6.826   1.814   7.590  1.9943 -2.3798  1.1594
  166SAPE  H20S18736   6.817   1.702   7.731 -0.3207 -1.3939 -1.7112
  166SAPE  H20T18737   6.736   1.867   7.740 -2.6884 -0.0597  0.6561
  166SAPE   C3318738   5.953   1.150   6.609 -0.1303 -0.1373  0.0912
  166SAPE   H3X18739   6.031   1.225   6.585 -0.2942  0.2282  0.6880
  166SAPE   H3Y18740   5.975   1.046   6.576  0.4691  0.2419 -0.7328
  166SAPE   C3418741   5.934   1.121   6.758  0.4831  0.2137  0.6048
  166SAPE   H4X18742   6.016   1.066   6.809 -0.8972 -1.2202  1.3720
  166SAPE   H4Y18743   5.840   1.066   6.780  1.1927 -1.4148 -0.2866
  166SAPE   C3518744   5.917   1.250   6.843 -0.2888 -0.2552  0.0662
  166SAPE   H5X18745   5.808   1.262   6.857 -0.0097  0.4979  1.8552
  166SAPE   H5Y18746   5.961   1.333   6.784 -2.0585  0.7844  0.1422
  166SAPE   C3618747   5.978   1.246   6.988  0.0508 -0.0922  0.2854
  166SAPE   H6X18748   6.089   1.238   6.989  0.1307  0.8492 -0.0262
  166SAPE   H6Y18749   5.928   1.159   7.036 -1.7433 -0.6132 -2.3237
  166SAPE   C3718750   5.937   1.375   7.068 -0.1569  0.6167  0.5163
  166SAPE   H7X18751   5.828   1.385   7.049 -0.1168 -0.7598 -0.5466
  166SAPE   H7Y18752   6.001   1.455   7.026  0.9949 -1.5143 -2.0662
  166SAPE   C3818753   5.965   1.366   7.221 -0.2529 -0.8759  0.3373
  166SAPE   H8X18754   6.069   1.336   7.245  0.1780 -0.7859 -1.2539
  166SAPE   H8Y18755   5.901   1.291   7.272  0.1228  0.1343  2.3906
  166SAPE   C3918756   5.931   1.485   7.310 -0.1978 -0.8196 -0.3020
  166SAPE   H9X18757   5.846   1.542   7.267  1.7612  1.0122 -1.9658
  166SAPE   H9Y18758   6.016   1.556   7.313 -0.4258 -0.5574  0.3188
  166SAPE  C31018759   5.907   1.429   7.459  0.2571 -0.8192 -0.3878
  166SAPE  H10X18760   5.975   1.345   7.485  1.0520 -0.0495  0.0816
  166SAPE  H10Y18761   5.801   1.395   7.472  0.3034 -0.8633 -0.1165
  166SAPE  C31118762   5.923   1.543   7.562 -0.4851  0.6174  0.6291
  166SAPE  H11X18763   5.870   1.629   7.515  1.1136  0.4479 -1.6516
  166SAPE  H11Y18764   6.031   1.563   7.553 -0.6764  1.6266  0.4650
  166SAPE  C31218765   5.893   1.516   7.709 -0.2546 -0.0228  0.0093
  166SAPE  H12X18766   5.948   1.422   7.731  2.0330  1.1743 -0.2905
  166SAPE  H12Y18767   5.784   1.505   7.728 -0.3688  0.6321 -0.2440
  166SAPE  C31318768   5.964   1.610   7.814 -0.5225 -0.0123 -0.4498
  166SAPE  H13X18769   5.934   1.716   7.797 -0.2893  0.6583  2.6094
  166SAPE  H13Y18770   6.072   1.600   7.793 -0.0231 -2.2600  2.5399
  166SAPE  C31418771   5.944   1.578   7.960 -0.0773 -0.6823  1.0130
  166SAPE  H14X18772   5.960   1.469   7.974  0.4076 -0.6001  1.1081
  166SAPE  H14Y18773   5.840   1.608   7.988 -0.9988  0.0379 -2.6480
  166SAPE  C31518774   6.039   1.659   8.043 -0.2082  0.3177 -0.5529
  166SAPE  H15X18775   6.029   1.763   8.004  0.2163  0.1161 -1.2167
  166SAPE  H15Y18776   6.146   1.632   8.025  0.6669  2.6918  0.6689
  166SAPE  C31618777   6.009   1.645   8.196 -0.4547  0.8541  0.0764
  166SAPE  H16X18778   6.024   1.542   8.235 -0.9319 -0.3415 -2.6112
  166SAPE  H16Y18779   5.907   1.678   8.224 -0.6081  0.4487  0.0079
  166SAPE  C31718780   6.108   1.729   8.285  0.4292  0.7896 -0.4690
  166SAPE  H17X18781   6.075   1.832   8.257  0.5283  0.3092 -2.5063
  166SAPE  H17Y18782   6.211   1.712   8.247 -0.2230 -0.9163 -1.5811
  166SAPE  C31818783   6.097   1.715   8.434  0.7667  0.3398  0.1107
  166SAPE  H18X18784   6.144   1.624   8.478 -0.8120 -0.8741 -0.6338
  166SAPE  H18Y18785   5.992   1.701   8.464  0.5371 -0.4859 -0.9904
  166SAPE  H18Z18786   6.127   1.808   8.486  0.2600  1.4994 -1.5944
  167SAPE     N18787   6.592   4.964   6.151 -0.0178 -0.2129  0.1076
  167SAPE   HN118788   6.652   5.021   6.214  1.0512  1.0532 -1.9369
  167SAPE   HN218789   6.490   4.972   6.165  0.1402 -0.9808  1.8546
  167SAPE   HN318790   6.614   4.863   6.165  0.0793 -0.1114  0.7016
  167SAPE   C1218791   6.637   4.998   6.009 -0.2300 -0.0868  0.2825
  167SAPE  H12A18792   6.572   4.934   5.946  0.2750  0.8916 -1.2993
  167SAPE  H12B18793   6.746   4.977   6.003 -0.4602 -0.9553 -1.3843
  167SAPE   C1118794   6.600   5.144   5.982 -0.2452  0.6710 -0.3567
  167SAPE  H11A18795   6.643   5.176   5.884 -0.8164 -0.8714 -1.1501
  167SAPE  H11B18796   6.652   5.201   6.062 -1.3864 -1.6829  2.2346
  167SAPE     P18797   6.417   5.312   6.018 -0.5425 -0.4068  0.0835
  167SAPE   O1318798   6.465   5.403   5.917 -0.3132 -0.1277 -0.0875
  167SAPE   O1418799   6.271   5.309   6.058 -0.3403  0.1521 -0.8471
  167SAPE   O1218800   6.458   5.168   5.986  0.1621  0.7458 -0.5217
  167SAPE   O1118801   6.496   5.353   6.153  0.1101 -0.5363  0.4788
  167SAPE    C118802   6.470   5.308   6.284 -0.3373 -0.3237  0.3450
  167SAPE    HA18803   6.399   5.222   6.282 -0.7396 -0.0227  1.2170
  167SAPE    HB18804   6.560   5.259   6.326 -1.7554 -2.1787  1.4009
  167SAPE    C218805   6.424   5.422   6.375  0.6592 -0.1812  0.1686
  167SAPE    HS18806   6.338   5.475   6.326  1.1961  0.3119 -0.2561
  167SAPE   O2118807   6.542   5.498   6.406  0.7277  0.1720  0.3372
  167SAPE   C2118808   6.511   5.624   6.437  0.6620  1.0935  0.2522
  167SAPE   O2218809   6.410   5.692   6.421 -0.0082  0.5480 -0.0930
  167SAPE   C2218810   6.628   5.665   6.521 -1.1010  1.5227 -0.1016
  167SAPE   H2R18811   6.615   5.622   6.623  0.1730  1.8698  0.2242
  167SAPE   H2S18812   6.723   5.628   6.478 -1.4314  2.7693 -2.0164
  167SAPE    C318813   6.361   5.350   6.506  0.0933 -0.1304  1.5615
  167SAPE    HX18814   6.437   5.279   6.544 -0.7605 -2.1454 -0.2611
  167SAPE    HY18815   6.276   5.293   6.463  0.2809  0.5790  0.1957
  167SAPE   O3118816   6.321   5.444   6.602 -0.2626 -0.1007  0.3873
  167SAPE   C3118817   6.251   5.399   6.716  0.4709  0.4113  0.4616
  167SAPE   O3218818   6.243   5.284   6.745  0.0296  0.2213  0.0736
  167SAPE   C3218819   6.198   5.521   6.796  0.2991  0.8661  1.2127
  167SAPE   H2X18820   6.094   5.542   6.761  0.9212  1.5069 -0.3215
  167SAPE   H2Y18821   6.257   5.611   6.770 -0.4239  0.5084 -2.1858
  167SAPE   C2318822   6.636   5.816   6.556 -0.2232  0.6280  0.0199
  167SAPE   H3R18823   6.545   5.860   6.603  0.7850  1.2951  1.4166
  167SAPE   H3S18824   6.657   5.871   6.462  1.6134 -1.2666 -0.7767
  167SAPE   C2418825   6.747   5.837   6.649  0.0871  0.5448  0.7209
  167SAPE   H4R18826   6.834   5.801   6.590 -0.9985 -0.5499 -0.2880
  167SAPE   H4S18827   6.729   5.766   6.733 -1.1858  0.4090  0.3600
  167SAPE   C2518828   6.769   5.974   6.708 -0.1217  0.0430  0.0515
  167SAPE   H5R18829   6.775   6.045   6.624  0.0954 -1.6038 -1.3803
  167SAPE   C2618830   6.760   6.013   6.838  0.7061 -0.5117  0.8403
  167SAPE   H6R18831   6.778   6.115   6.875  1.1270 -0.3605  0.2230
  167SAPE   C2718832   6.730   5.919   6.948  0.1673  0.5827  0.0028
  167SAPE   H7R18833   6.825   5.884   6.994 -0.3682 -2.7339 -1.2015
  167SAPE   H7S18834   6.686   5.821   6.922  0.9679 -0.3638  2.0403
  167SAPE   C2818835   6.637   5.993   7.045 -0.1845 -0.2166  0.1596
  167SAPE   H8R18836   6.534   5.993   7.005  0.2554  1.8441 -1.0706
  167SAPE   C2918837   6.677   6.039   7.167 -0.3403 -0.5289  0.7350
  167SAPE   H9R18838   6.595   6.067   7.235 -1.3264 -0.2780 -0.4942
  167SAPE  C21018839   6.812   6.049   7.226 -0.5731 -0.5359 -0.8568
  167SAPE  H10R18840   6.894   6.009   7.163  0.8215  0.1050  0.5012
  167SAPE  H10S18841   6.822   5.998   7.324  0.8071 -0.9262 -1.1734
  167SAPE  C21118842   6.849   6.194   7.236 -1.1896 -0.1770  0.6676
  167SAPE  H11R18843   6.847   6.253   7.144  3.0868  1.5794  1.4683
  167SAPE  C21218844   6.889   6.251   7.352  0.5100 -0.0781 -0.6911
  167SAPE  H12R18845   6.885   6.361   7.352  0.7507 -0.0641 -0.1627
  167SAPE  C21318846   6.900   6.190   7.491  0.7750  0.5188 -0.7654
  167SAPE  H13R18847   6.949   6.264   7.558  2.1031 -0.4635 -0.6160
  167SAPE  H13S18848   6.979   6.112   7.483 -0.0864 -0.2033 -2.8502
  167SAPE  C21418849   6.774   6.131   7.552  0.2777 -0.1963 -0.2799
  167SAPE  H14R18850   6.700   6.077   7.491 -1.5002  0.0851  1.4836
  167SAPE  C21518851   6.722   6.138   7.676 -0.2885 -0.2707  1.0519
  167SAPE  H15R18852   6.633   6.074   7.692 -0.4299 -0.4889 -0.4159
  167SAPE  C21618853   6.782   6.213   7.794 -0.3093  0.1109  0.1261
  167SAPE  H16R18854   6.739   6.312   7.819  1.3601  0.1540  3.4188
  167SAPE  H16S18855   6.889   6.240   7.781 -0.4158  0.2903 -0.4113
  167SAPE  C21718856   6.778   6.141   7.923  0.2740  0.4273 -1.2222
  167SAPE  H17R18857   6.802   6.033   7.915  0.4951  0.1327  2.0260
  167SAPE  H17S18858   6.671   6.138   7.953  0.5334  0.1713 -0.2936
  167SAPE  C21818859   6.862   6.209   8.038  0.2979  0.0381 -0.3159
  167SAPE  H18R18860   6.827   6.313   8.057  0.7018  0.4043 -1.5252
  167SAPE  H18S18861   6.964   6.220   7.994  0.1193 -0.9355 -1.0016
  167SAPE  C21918862   6.863   6.122   8.168 -0.0821 -0.6435  0.4089
  167SAPE  H19R18863   6.889   6.018   8.139 -1.1632 -0.5594 -0.9590
  167SAPE  H19S18864   6.758   6.120   8.205  0.1558 -1.0036  1.0810
  167SAPE  C22018865   6.951   6.188   8.276  1.1028 -0.0813 -0.2743
  167SAPE  H20R18866   7.057   6.193   8.245  1.3784  0.8314  0.7373
  167SAPE  H20S18867   6.944   6.133   8.373  0.6281 -1.0325 -0.8319
  167SAPE  H20T18868   6.908   6.288   8.296  0.8188  0.1292 -1.8392
  167SAPE   C3318869   6.206   5.492   6.940  0.7271  0.0750  0.5538
  167SAPE   H3X18870   6.164   5.399   6.983 -1.5648  1.2736  1.0693
  167SAPE   H3Y18871   6.151   5.574   6.992  3.6305  2.8919 -0.4896
  167SAPE   C3418872   6.351   5.524   6.989  0.0063  0.1035 -0.1368
  167SAPE   H4X18873   6.377   5.631   6.972  1.6618  0.0204  1.4638
  167SAPE   H4Y18874   6.428   5.466   6.934 -1.2431 -0.8247 -0.9215
  167SAPE   C3518875   6.377   5.505   7.140  0.1096 -0.0229  1.0752
  167SAPE   H5X18876   6.377   5.398   7.170 -3.7088 -0.4365  0.1487
  167SAPE   H5Y18877   6.295   5.551   7.201 -0.7292 -1.4530  1.0579
  167SAPE   C3618878   6.500   5.572   7.181 -0.3506  0.0913 -0.4044
  167SAPE   H6X18879   6.501   5.671   7.132 -0.3474  0.9656  1.2718
  167SAPE   H6Y18880   6.583   5.512   7.137 -0.0889  0.2024 -0.0724
  167SAPE   C3718881   6.502   5.600   7.333  0.7031 -0.2591 -0.0793
  167SAPE   H7X18882   6.418   5.670   7.353  1.9641  1.7132 -1.3000
  167SAPE   H7Y18883   6.597   5.656   7.347  0.7952 -0.6758  1.1157
  167SAPE   C3818884   6.494   5.471   7.421  0.2425  0.4243  0.4892
  167SAPE   H8X18885   6.560   5.397   7.370 -0.5053  1.4556 -2.1033
  167SAPE   H8Y18886   6.389   5.435   7.431  0.3534  0.1267  0.5915
  167SAPE   C3918887   6.554   5.508   7.553 -0.7920  0.6015 -0.2413
  167SAPE   H9X18888   6.508   5.599   7.599 -1.1487 -0.2527  1.1460
  167SAPE   H9Y18889   6.665   5.512   7.552 -0.7195 -1.0305 -1.8221
  167SAPE  C31018890   6.511   5.389   7.650 -0.6464 -1.6634  0.0811
  167SAPE  H10X18891   6.528   5.295   7.594  2.5620  0.0722 -2.1488
  167SAPE  H10Y18892   6.404   5.399   7.679 -0.2662  1.4974  0.7965
  167SAPE  C31118893   6.579   5.392   7.779  0.0817  0.2920  0.1792
  167SAPE  H11X18894   6.561   5.488   7.831  3.2482  1.2195 -0.2591
  167SAPE  H11Y18895   6.684   5.403   7.745 -0.3936  2.6026 -0.7240
  167SAPE  C31218896   6.555   5.276   7.875  0.2002  0.7063 -0.7720
  167SAPE  H12X18897   6.522   5.185   7.820 -0.1495  1.2274 -1.4292
  167SAPE  H12Y18898   6.460   5.308   7.924 -0.1005  0.4138 -1.1586
  167SAPE  C31318899   6.667   5.251   7.974 -0.0857  0.2268 -0.0223
  167SAPE  H13X18900   6.687   5.346   8.028  0.3155  0.3845 -0.4478
  167SAPE  H13Y18901   6.753   5.218   7.913 -0.1385 -0.2764  0.1665
  167SAPE  C31418902   6.642   5.140   8.080  0.0102  0.2377  0.7470
  167SAPE  H14X18903   6.617   5.045   8.029  2.1660 -0.7648  1.4413
  167SAPE  H14Y18904   6.561   5.161   8.153  1.6944  0.4301  2.6380
  167SAPE  C31518905   6.768   5.126   8.169 -0.4712 -0.0061 -0.9799
  167SAPE  H15X18906   6.769   5.229   8.211 -1.8434 -0.4117  0.1408
  167SAPE  H15Y18907   6.856   5.104   8.105  0.6212 -1.5715  0.9782
  167SAPE  C31618908   6.755   5.037   8.294 -0.3919  0.7630  0.4054
  167SAPE  H16X18909   6.700   4.949   8.253  1.2977  0.2689 -0.9199
  167SAPE  H16Y18910   6.695   5.078   8.378 -0.8952 -0.2772  0.5763
  167SAPE  C31718911   6.898   4.992   8.335  0.8047 -0.3601  0.2513
  167SAPE  H17X18912   6.929   5.056   8.420 -0.4607 -0.3370  0.7251
  167SAPE  H17Y18913   6.969   5.019   8.255  1.3922 -3.6910 -0.4883
  167SAPE  C31818914   6.918   4.838   8.366 -0.2504  0.1142 -0.7200
  167SAPE  H18X18915   6.846   4.797   8.440  1.9817 -0.1645  1.4351
  167SAPE  H18Y18916   7.022   4.819   8.402 -0.6645 -0.1424  0.3816
  167SAPE  H18Z18917   6.897   4.778   8.275 -2.6616 -1.0149  0.4914
  168SAPE     N18918   2.945   5.521   6.328 -0.0104 -0.3105 -0.8585
  168SAPE   HN118919   2.960   5.622   6.348  0.0213 -0.6390  0.9663
  168SAPE   HN218920   3.008   5.474   6.396  0.3694  2.0998  0.5575
  168SAPE   HN318921   2.973   5.472   6.240  0.1506 -2.9546  0.5530
  168SAPE   C1218922   2.804   5.493   6.342 -0.1115 -0.2901  0.3325
  168SAPE  H12A18923   2.750   5.552   6.264  1.5653  1.4638  0.4084
  168SAPE  H12B18924   2.766   5.529   6.440  2.1981 -1.5907  1.7734
  168SAPE   C1118925   2.775   5.343   6.312  0.0769  0.0905  0.4015
  168SAPE  H11A18926   2.811   5.309   6.212 -2.0310 -0.6850 -0.1422
  168SAPE  H11B18927   2.665   5.329   6.309  0.0194  0.6053 -0.0318
  168SAPE     P18928   2.761   5.201   6.536 -0.2784  0.3296  0.1282
  168SAPE   O1318929   2.670   5.094   6.484  0.0006  0.0581 -0.4974
  168SAPE   O1418930   2.854   5.162   6.642 -0.3672  0.0970  0.2335
  168SAPE   O1218931   2.835   5.261   6.413  0.4752  0.5727  0.5165
  168SAPE   O1118932   2.669   5.313   6.585 -0.3269  0.3217  0.4626
  168SAPE    C118933   2.705   5.409   6.682 -0.2247  0.4010  0.7331
  168SAPE    HA18934   2.806   5.451   6.664  0.1833 -0.3197  1.3203
  168SAPE    HB18935   2.633   5.493   6.667  1.6658  1.5302 -3.3574
  168SAPE    C218936   2.697   5.360   6.826  0.0147 -0.5944 -0.0737
  168SAPE    HS18937   2.742   5.259   6.837  0.6340 -0.0561  3.8303
  168SAPE   O2118938   2.559   5.354   6.858 -0.6989 -0.1411 -0.0264
  168SAPE   C2118939   2.521   5.252   6.931 -0.4235  0.2975  0.6979
  168SAPE   O2218940   2.595   5.164   6.975 -0.0218  0.2102 -0.0856
  168SAPE   C2218941   2.374   5.265   6.959 -0.4144  0.9120  0.0832
  168SAPE   H2R18942   2.348   5.371   6.976 -2.1456  0.4661  0.3557
  168SAPE   H2S18943   2.320   5.227   6.869  1.6530 -1.5687 -0.2444
  168SAPE    C318944   2.767   5.455   6.922  0.1051  0.2248  0.2713
  168SAPE    HX18945   2.751   5.560   6.891  0.0204 -0.2474 -1.3906
  168SAPE    HY18946   2.878   5.446   6.918  0.0936  0.5953 -1.3813
  168SAPE   O3118947   2.719   5.436   7.052 -0.3111 -0.9495  0.2364
  168SAPE   C3118948   2.760   5.528   7.139 -0.1886  0.9413  0.9636
  168SAPE   O3218949   2.822   5.628   7.106  0.3560 -0.0292 -0.5324
  168SAPE   C3218950   2.730   5.500   7.281 -0.0508  0.2897 -0.0078
  168SAPE   H2X18951   2.717   5.390   7.292 -0.8893  0.3373 -0.4052
  168SAPE   H2Y18952   2.636   5.553   7.306 -1.3918 -1.5795 -0.8727
  168SAPE   C2318953   2.344   5.188   7.087  0.3704  0.2748 -0.6876
  168SAPE   H3R18954   2.414   5.230   7.162  0.4097  1.4226 -1.3400
  168SAPE   H3S18955   2.353   5.078   7.074  0.0758  0.4326 -2.5341
  168SAPE   C2418956   2.199   5.216   7.135 -0.0445 -0.2631  0.3097
  168SAPE   H4R18957   2.177   5.153   7.224 -0.4952  1.8031  1.7097
  168SAPE   H4S18958   2.133   5.179   7.053  1.2520  0.2452 -1.0126
  168SAPE   C2518959   2.181   5.358   7.168 -0.0857  0.5513 -0.1786
  168SAPE   H5R18960   2.180   5.431   7.085  0.7877 -1.1004 -1.7230
  168SAPE   C2618961   2.157   5.405   7.289  0.2208 -0.0492 -0.0733
  168SAPE   H6R18962   2.147   5.513   7.304  0.0654 -0.0971  0.1798
  168SAPE   C2718963   2.160   5.334   7.420  0.1428  0.8336  0.0304
  168SAPE   H7R18964   2.219   5.394   7.493  0.8470  0.7578 -0.4699
  168SAPE   H7S18965   2.217   5.239   7.414  0.4514  0.9507  0.9240
  168SAPE   C2818966   2.024   5.308   7.472  0.3794 -0.5735 -0.4560
  168SAPE   H8R18967   1.942   5.287   7.403 -0.7306  1.0022  0.3331
  168SAPE   C2918968   1.998   5.284   7.604  0.0346 -0.4611  0.0679
  168SAPE   H9R18969   1.895   5.256   7.628 -0.3374  1.3973  0.8789
  168SAPE  C21018970   2.098   5.292   7.714  0.5938 -0.1700  0.3882
  168SAPE  H10R18971   2.096   5.387   7.773  3.0269  0.5287 -0.5369
  168SAPE  H10S18972   2.205   5.301   7.686  1.9679 -2.2561  4.1859
  168SAPE  C21118973   2.077   5.167   7.803  0.0366 -0.3359 -0.9007
  168SAPE  H11R18974   2.155   5.090   7.814 -0.1486 -0.2917  1.1929
  168SAPE  C21218975   1.974   5.139   7.879 -0.3149 -0.2866 -0.2893
  168SAPE  H12R18976   1.967   5.035   7.917 -0.4014 -0.6521 -1.2838
  168SAPE  C21318977   1.850   5.220   7.912 -0.4418 -0.4432 -0.2476
  168SAPE  H13R18978   1.778   5.150   7.960  0.2092 -0.6668  0.4200
  168SAPE  H13S18979   1.798   5.257   7.821  0.6428  1.9733  0.0447
  168SAPE  C21418980   1.890   5.343   7.987  0.5352 -0.7109  0.3212
  168SAPE  H14R18981   1.924   5.420   7.916  0.8487 -1.1913 -0.0567
  168SAPE  C21518982   1.888   5.359   8.122 -1.2307 -0.0763 -0.1511
  168SAPE  H15R18983   1.908   5.457   8.166  0.2173  0.0646 -1.0570
  168SAPE  C21618984   1.864   5.261   8.237  0.4593 -0.4187 -0.0352
  168SAPE  H16R18985   1.922   5.166   8.229  0.8378 -0.2121  0.2529
  168SAPE  H16S18986   1.758   5.231   8.248  0.9929 -1.9852  1.2586
  168SAPE  C21718987   1.878   5.334   8.377 -0.0990  0.7000 -0.0815
  168SAPE  H17R18988   1.838   5.261   8.449 -0.2837 -1.2659 -2.0704
  168SAPE  H17S18989   1.813   5.420   8.404 -0.2095  0.6507 -0.1874
  168SAPE  C21818990   2.018   5.357   8.432 -0.2474 -0.0128  0.1973
  168SAPE  H18R18991   2.079   5.422   8.365  2.1755 -2.5699 -0.2450
  168SAPE  H18S18992   2.070   5.260   8.420 -3.1710 -1.8048  1.1386
  168SAPE  C21918993   2.019   5.403   8.576  0.4050 -0.1443  0.1326
  168SAPE  H19R18994   2.126   5.407   8.606  0.3888 -2.0804  0.6052
  168SAPE  H19S18995   1.975   5.319   8.634 -5.0944 -0.2668 -3.5359
  168SAPE  C22018996   1.962   5.536   8.620 -0.2108  0.1048  0.6353
  168SAPE  H20R18997   2.006   5.556   8.720  1.3289 -1.3405  0.3001
  168SAPE  H20S18998   1.851   5.534   8.629 -0.1621  0.7981  1.6343
  168SAPE  H20T18999   2.001   5.616   8.555  0.4640  0.5894  1.6210
  168SAPE   C3319000   2.845   5.537   7.377  0.0485 -0.2336 -0.1056
  168SAPE   H3X19001   2.845   5.648   7.375 -3.5640 -0.1087  0.3984
  168SAPE   H3Y19002   2.937   5.488   7.338  0.3379  1.3463 -1.5396
  168SAPE   C3419003   2.818   5.487   7.520 -0.5084  1.0103 -0.1809
  168SAPE   H4X19004   2.709   5.486   7.539 -0.5073  0.4607 -0.1737
  168SAPE   H4Y19005   2.858   5.556   7.597  1.9397 -1.8710  1.3701
  168SAPE   C3519006   2.881   5.348   7.551  0.1938 -0.2261 -0.0478
  168SAPE   H5X19007   2.982   5.346   7.504  1.8322  0.7615  3.1203
  168SAPE   H5Y19008   2.817   5.269   7.507 -1.4982  0.6471  0.7704
  168SAPE   C3619009   2.911   5.309   7.703 -0.1705 -0.1893 -0.8759
  168SAPE   H6X19010   2.813   5.277   7.743 -1.5600  3.1506 -1.3129
  168SAPE   H6Y19011   2.928   5.399   7.765 -2.3580  0.7170 -1.5155
  168SAPE   C3719012   3.012   5.195   7.726  0.0842  0.2394 -0.0457
  168SAPE   H7X19013   3.111   5.233   7.692 -1.1300  0.6701 -3.5612
  168SAPE   H7Y19014   2.988   5.111   7.658  1.1266 -0.8856  0.9197
  168SAPE   C3819015   3.028   5.136   7.866 -0.4940 -0.0182  0.1447
  168SAPE   H8X19016   2.944   5.087   7.919  0.2615 -0.8243  0.6246
  168SAPE   H8Y19017   3.071   5.214   7.933 -1.3223  1.3171 -0.8289
  168SAPE   C3919018   3.128   5.019   7.862  0.4158  0.5678 -0.2936
  168SAPE   H9X19019   3.227   5.055   7.825  0.9956 -1.3790 -0.7477
  168SAPE   H9Y19020   3.092   4.945   7.788 -2.4285 -0.7576  2.2097
  168SAPE  C31019021   3.159   4.948   7.996  0.2194  0.2124 -0.3198
  168SAPE  H10X19022   3.250   4.887   7.978  0.2603  0.0616  0.3688
  168SAPE  H10Y19023   3.067   4.889   8.018  1.3949 -1.5689  0.0425
  168SAPE  C31119024   3.194   5.040   8.113 -0.1681 -0.6264 -0.0609
  168SAPE  H11X19025   3.098   5.080   8.151  0.3212 -0.6927  1.2926
  168SAPE  H11Y19026   3.260   5.121   8.075  0.4725 -1.4076 -0.6508
  168SAPE  C31219027   3.261   4.975   8.233 -0.0830  0.4113  0.1222
  168SAPE  H12X19028   3.365   4.950   8.206 -0.0648 -0.7422  1.2078
  168SAPE  H12Y19029   3.207   4.880   8.252 -1.8122  0.5497 -3.2395
  168SAPE  C31319030   3.266   5.063   8.359  0.2058 -0.9051 -0.9285
  168SAPE  H13X19031   3.166   5.082   8.404  0.6700 -1.1199  0.2233
  168SAPE  H13Y19032   3.302   5.165   8.335 -0.2233 -0.8742 -1.4515
  168SAPE  C31419033   3.329   4.996   8.483 -0.6140  0.3722  0.2472
  168SAPE  H14X19034   3.439   4.992   8.490 -0.6823  0.0123  1.2784
  168SAPE  H14Y19035   3.309   4.887   8.483 -0.1873  0.2381  2.4824
  168SAPE  C31519036   3.282   5.047   8.619  0.2052  0.3868  0.4122
  168SAPE  H15X19037   3.171   5.055   8.625  0.2529  2.4740 -0.5504
  168SAPE  H15Y19038   3.318   5.149   8.641  2.3779 -0.4939  1.2162
  168SAPE  C31619039   3.360   4.959   8.730  0.8530 -0.2464 -0.4306
  168SAPE  H16X19040   3.468   4.971   8.707  0.6999 -0.6865 -1.3992
  168SAPE  H16Y19041   3.327   4.853   8.717 -0.2930 -0.0087  0.3655
  168SAPE  C31719042   3.334   5.003   8.875  0.1118  0.1756 -0.4630
  168SAPE  H17X19043   3.374   5.106   8.888  2.5639 -0.6281 -1.1188
  168SAPE  H17Y19044   3.393   4.936   8.942  0.3387 -0.1485 -0.9859
  168SAPE  C31819045   3.183   4.988   8.897 -0.2798  0.5137 -0.7933
  168SAPE  H18X19046   3.144   5.089   8.924  1.5310  0.4922  2.5140
  168SAPE  H18Y19047   3.168   4.926   8.988 -2.1817  0.0063 -1.4148
  168SAPE  H18Z19048   3.120   4.930   8.827 -1.4128 -0.6375  1.0858
  169SAPE     N19049   4.154   5.634   6.604 -0.3029 -0.1615 -0.0184
  169SAPE   HN119050   4.117   5.681   6.519 -2.6753  0.2909  1.1937
  169SAPE   HN219051   4.145   5.531   6.595  1.0967 -0.5628  2.2587
  169SAPE   HN319052   4.099   5.661   6.688 -0.6348 -1.5957  0.2475
  169SAPE   C1219053   4.302   5.659   6.629  0.6211  0.7277  0.0849
  169SAPE  H12A19054   4.312   5.768   6.649  1.7033  0.7086 -0.2607
  169SAPE  H12B19055   4.362   5.627   6.542  1.1571  0.4645  0.5430
  169SAPE   C1119056   4.347   5.563   6.744  0.0733 -0.6561  0.1370
  169SAPE  H11A19057   4.284   5.588   6.831  0.5240 -0.1899  0.3355
  169SAPE  H11B19058   4.451   5.591   6.770  0.3452 -0.9711 -0.5785
  169SAPE     P19059   4.436   5.348   6.634  0.4091 -0.1126 -0.5367
  169SAPE   O1319060   4.374   5.221   6.586 -0.5177  0.6011  0.0008
  169SAPE   O1419061   4.515   5.421   6.533 -0.0127 -0.0745  0.3810
  169SAPE   O1219062   4.320   5.431   6.690 -0.1306 -0.0117 -0.2348
  169SAPE   O1119063   4.521   5.326   6.762 -0.6926 -0.3345  0.1828
  169SAPE    C119064   4.476   5.277   6.889  0.4927 -0.3290 -0.9057
  169SAPE    HA19065   4.368   5.255   6.887  0.6242 -0.9503 -1.5624
  169SAPE    HB19066   4.529   5.180   6.904 -0.1809 -0.9225 -2.2230
  169SAPE    C219067   4.512   5.379   7.008  0.8359 -0.1299  0.3122
  169SAPE    HS19068   4.484   5.480   6.973 -0.4841 -0.6964 -0.3153
  169SAPE   O2119069   4.649   5.366   7.033  0.0149 -0.2281 -0.3248
  169SAPE   C2119070   4.704   5.474   7.086 -0.3870  0.5649  0.4053
  169SAPE   O2219071   4.660   5.587   7.090  0.5524 -0.0642  0.0056
  169SAPE   C2219072   4.844   5.432   7.150  0.3762  0.2586  0.2020
  169SAPE   H2R19073   4.842   5.323   7.173 -1.9131  0.2985  0.4827
  169SAPE   H2S19074   4.915   5.437   7.065 -1.1024 -0.0475 -1.0873
  169SAPE    C319075   4.428   5.343   7.136 -0.0618 -0.5178  0.3804
  169SAPE    HX19076   4.478   5.257   7.186  0.5071  0.5233  1.6791
  169SAPE    HY19077   4.325   5.311   7.109 -0.7575  1.7304  0.1584
  169SAPE   O3119078   4.439   5.450   7.236 -0.3818  0.0353 -0.2498
  169SAPE   C3119079   4.348   5.543   7.224  0.1088 -0.6467  0.3350
  169SAPE   O3219080   4.273   5.556   7.127  0.9838 -0.4642 -0.4779
  169SAPE   C3219081   4.359   5.643   7.348 -0.2472 -0.1126  0.7374
  169SAPE   H2X19082   4.417   5.733   7.318 -0.6140 -0.0793  0.1092
  169SAPE   H2Y19083   4.408   5.598   7.437  0.7709 -3.5734 -1.3818
  169SAPE   C2319084   4.865   5.530   7.269  0.6835 -0.5837  0.0474
  169SAPE   H3R19085   4.774   5.541   7.332  1.9053 -1.0666  1.9680
  169SAPE   H3S19086   4.889   5.630   7.227 -1.0620 -0.1107  0.0918
  169SAPE   C2419087   4.967   5.487   7.373 -0.8975 -0.0752  0.0780
  169SAPE   H4R19088   4.948   5.392   7.427  1.1124 -1.7126 -1.9516
  169SAPE   H4S19089   4.973   5.561   7.456 -0.2101  3.8756 -3.1716
  169SAPE   C2519090   5.100   5.480   7.306 -0.5643 -0.3116 -0.1256
  169SAPE   H5R19091   5.108   5.409   7.222 -0.1064 -0.9413  0.4498
  169SAPE   C2619092   5.218   5.527   7.359  0.5966 -0.0124  0.4654
  169SAPE   H6R19093   5.311   5.501   7.306 -0.1214 -0.8611 -0.4238
  169SAPE   C2719094   5.252   5.609   7.485  0.5044 -0.0877  0.6823
  169SAPE   H7R19095   5.362   5.604   7.490  0.4804 -0.1655  1.1839
  169SAPE   H7S19096   5.215   5.564   7.580 -1.1635 -0.1967  0.0283
  169SAPE   C2819097   5.205   5.748   7.481  0.4244  0.6325  0.1685
  169SAPE   H8R19098   5.160   5.781   7.386  0.3147  0.8719  0.3017
  169SAPE   C2919099   5.222   5.837   7.588  0.6256  0.5221  0.3893
  169SAPE   H9R19100   5.201   5.945   7.577 -0.0880  0.5827  1.9233
  169SAPE  C21019101   5.280   5.791   7.722  0.2054  0.5812  0.1875
  169SAPE  H10R19102   5.341   5.699   7.707  2.7822  2.1024  0.6744
  169SAPE  H10S19103   5.191   5.763   7.782 -0.2152  1.6746  0.1089
  169SAPE  C21119104   5.361   5.883   7.813 -0.0210  0.8091 -0.2602
  169SAPE  H11R19105   5.445   5.933   7.764  0.0860  1.4975  0.6049
  169SAPE  C21219106   5.330   5.907   7.944 -0.3812 -0.2755  0.3237
  169SAPE  H12R19107   5.409   5.957   8.002  1.1864  0.4039 -2.2493
  169SAPE  C21319108   5.220   5.863   8.034  0.8990 -0.3172 -0.1153
  169SAPE  H13R19109   5.206   5.753   8.023 -0.0056 -0.1891 -0.3928
  169SAPE  H13S19110   5.122   5.906   8.001  0.9788 -0.2966 -0.3297
  169SAPE  C21419111   5.230   5.911   8.179 -0.5029 -0.0403  0.1967
  169SAPE  H14R19112   5.268   6.013   8.198  0.9478 -0.5600  0.2505
  169SAPE  C21519113   5.198   5.841   8.284  0.4238  0.4408  0.2916
  169SAPE  H15R19114   5.188   5.885   8.384 -0.4471 -1.0424  0.8917
  169SAPE  C21619115   5.154   5.698   8.288 -0.1085  0.7193  1.0066
  169SAPE  H16R19116   5.167   5.656   8.390  0.4091  1.7550  1.3775
  169SAPE  H16S19117   5.216   5.638   8.218  0.0251  0.6214  1.2093
  169SAPE  C21719118   5.004   5.660   8.244 -1.1017  0.2289  0.2521
  169SAPE  H17R19119   5.009   5.549   8.250  0.9784  0.2440 -0.3808
  169SAPE  H17S19120   4.984   5.687   8.138 -0.4549  2.1910  0.5854
  169SAPE  C21819121   4.882   5.721   8.322  0.3572 -0.0797  0.1739
  169SAPE  H18R19122   4.802   5.717   8.246  1.3093 -2.3047 -0.7730
  169SAPE  H18S19123   4.916   5.825   8.345  0.1002 -0.4098  2.2188
  169SAPE  C21919124   4.840   5.646   8.454 -0.1386  0.3586 -0.4853
  169SAPE  H19R19125   4.924   5.647   8.527  0.8069 -0.6790 -1.5155
  169SAPE  H19S19126   4.822   5.539   8.433  1.6464  0.1886 -1.2977
  169SAPE  C22019127   4.727   5.726   8.519 -0.2937 -0.4998  0.5848
  169SAPE  H20R19128   4.628   5.717   8.468 -1.5137 -0.5492  2.8310
  169SAPE  H20S19129   4.752   5.834   8.507  1.4339 -0.6594  2.3101
  169SAPE  H20T19130   4.705   5.694   8.623  0.0042 -0.3307  0.7008
  169SAPE   C3319131   4.223   5.705   7.382 -1.1651  0.0540  0.4960
  169SAPE   H3X19132   4.153   5.635   7.433 -0.7239 -0.6474  0.1563
  169SAPE   H3Y19133   4.176   5.744   7.289  0.9684 -1.0170 -1.1139
  169SAPE   C3419134   4.244   5.829   7.475  0.2378  0.3009  0.0935
  169SAPE   H4X19135   4.153   5.893   7.465  0.8305  1.2953  0.9129
  169SAPE   H4Y19136   4.327   5.892   7.437  0.2761  1.2132  1.6120
  169SAPE   C3519137   4.257   5.794   7.630 -0.5104  0.6932 -0.6680
  169SAPE   H5X19138   4.343   5.724   7.629 -2.0328 -1.2858  0.3906
  169SAPE   H5Y19139   4.175   5.734   7.675 -0.5764  2.2536  1.4408
  169SAPE   C3619140   4.296   5.912   7.713 -0.1698  0.0216 -1.2128
  169SAPE   H6X19141   4.221   5.994   7.723  2.0543  1.8639  4.2055
  169SAPE   H6Y19142   4.389   5.957   7.674 -0.8962  0.3117 -2.6920
  169SAPE   C3719143   4.329   5.851   7.844  0.3955 -0.0146 -0.1250
  169SAPE   H7X19144   4.411   5.776   7.840 -0.0774 -0.4798 -2.5374
  169SAPE   H7Y19145   4.240   5.795   7.883  1.3505 -1.5684 -0.0840
  169SAPE   C3819146   4.362   5.970   7.944 -0.0083 -0.5453 -0.0410
  169SAPE   H8X19147   4.272   6.034   7.954 -0.1411 -0.8417  0.6688
  169SAPE   H8Y19148   4.453   6.029   7.918  0.2078  1.2192  4.0598
  169SAPE   C3919149   4.405   5.917   8.075 -0.9086  0.4114  0.3955
  169SAPE   H9X19150   4.504   5.866   8.069  0.9308  3.8417 -1.8361
  169SAPE   H9Y19151   4.331   5.839   8.102 -1.4694 -0.3865 -3.0341
  169SAPE  C31019152   4.404   6.023   8.188  0.0863  0.5818  0.0494
  169SAPE  H10X19153   4.312   6.085   8.198 -2.4816 -3.0136  0.9382
  169SAPE  H10Y19154   4.471   6.099   8.142  0.1226 -0.3306 -1.4689
  169SAPE  C31119155   4.450   5.973   8.328 -0.0827 -0.1030 -0.1654
  169SAPE  H11X19156   4.483   6.065   8.381  0.0073 -0.0604 -0.2953
  169SAPE  H11Y19157   4.536   5.903   8.332  0.8525  1.0332  0.0630
  169SAPE  C31219158   4.334   5.911   8.412  0.0363  0.6129  0.5602
  169SAPE  H12X19159   4.301   5.813   8.372 -0.8952  1.7596 -1.6629
  169SAPE  H12Y19160   4.247   5.978   8.395  1.4387  2.7465  1.3855
  169SAPE  C31319161   4.365   5.874   8.558  0.7827 -0.0850  0.3174
  169SAPE  H13X19162   4.438   5.791   8.564  1.0667  0.1921  0.7293
  169SAPE  H13Y19163   4.270   5.839   8.604  1.7064 -0.0350  2.3994
  169SAPE  C31419164   4.419   5.992   8.634  0.1243  0.2110  0.7766
  169SAPE  H14X19165   4.349   6.075   8.615  0.0331 -0.4064 -2.1143
  169SAPE  H14Y19166   4.514   6.029   8.589  0.5406 -0.6180  0.9434
  169SAPE  C31519167   4.417   5.973   8.780 -0.1982  0.0026  0.3780
  169SAPE  H15X19168   4.309   5.969   8.804 -0.9570 -0.8682 -2.7231
  169SAPE  H15Y19169   4.457   6.058   8.839  0.1305  0.7226 -0.8430
  169SAPE  C31619170   4.471   5.837   8.826  0.5677  0.4640  0.4711
  169SAPE  H16X19171   4.553   5.795   8.765  0.3331 -1.0889  1.1741
  169SAPE  H16Y19172   4.390   5.761   8.822  0.6238  0.3941  0.6449
  169SAPE  C31719173   4.507   5.838   8.976 -0.2893 -0.8780  0.0685
  169SAPE  H17X19174   4.439   5.909   9.027  0.1984 -0.4893  0.1852
  169SAPE  H17Y19175   4.611   5.874   8.991 -0.6448  0.9470 -1.3794
  169SAPE  C31819176   4.490   5.698   9.033  0.0220  0.4518 -0.5856
  169SAPE  H18X19177   4.386   5.662   9.017 -0.5574  1.9432 -0.4006
  169SAPE  H18Y19178   4.519   5.706   9.140  0.6410 -1.7806 -0.5490
  169SAPE  H18Z19179   4.564   5.633   8.983  1.7639  1.0940  1.0378
  170SAPE     N19180   3.649   3.291   6.617 -0.4597 -0.0153 -0.8964
  170SAPE   HN119181   3.745   3.271   6.581 -0.6920 -0.9176 -1.0394
  170SAPE   HN219182   3.607   3.355   6.547 -1.0451 -0.4955 -0.9929
  170SAPE   HN319183   3.669   3.345   6.704  3.7131 -0.2294 -1.5261
  170SAPE   C1219184   3.563   3.173   6.636 -0.1117  0.2238 -0.4910
  170SAPE  H12A19185   3.477   3.202   6.700 -0.4888 -0.9429 -0.4413
  170SAPE  H12B19186   3.613   3.096   6.698 -2.9990 -0.4148  1.2186
  170SAPE   C1119187   3.518   3.106   6.507 -1.0010  0.5475  0.3059
  170SAPE  H11A19188   3.429   3.166   6.479 -1.8631 -1.1749 -0.7838
  170SAPE  H11B19189   3.480   3.004   6.527  1.1524 -0.4661 -0.3863
  170SAPE     P19190   3.657   2.983   6.324 -0.1201 -0.1431 -0.1769
  170SAPE   O1319191   3.530   2.924   6.274 -0.1523 -0.2487 -0.7378
  170SAPE   O1419192   3.761   3.022   6.221  0.0940 -0.0420 -0.5435
  170SAPE   O1219193   3.627   3.108   6.416  0.0709 -0.0161 -0.3196
  170SAPE   O1119194   3.735   2.885   6.426  0.6508  0.1189  0.1570
  170SAPE    C119195   3.821   2.948   6.526 -0.1766  0.4680  0.7769
  170SAPE    HA19196   3.876   3.038   6.489  1.0863 -0.7154 -0.3335
  170SAPE    HB19197   3.760   2.983   6.612 -0.4406 -0.3279  0.9161
  170SAPE    C219198   3.932   2.847   6.575  0.2098 -0.3011  0.4457
  170SAPE    HS19199   3.986   2.824   6.481  2.0837 -0.1788  1.4593
  170SAPE   O2119200   3.870   2.720   6.609 -0.5401 -0.3062 -0.4317
  170SAPE   C2119201   3.953   2.615   6.622 -0.6040 -0.3161 -0.0120
  170SAPE   O2219202   4.073   2.611   6.604 -0.1454  0.1697 -0.5451
  170SAPE   C2219203   3.873   2.500   6.681  0.7827 -0.4064 -0.4377
  170SAPE   H2R19204   3.850   2.533   6.785  0.8002 -0.6072 -0.3690
  170SAPE   H2S19205   3.771   2.497   6.636 -0.3196 -2.2771  1.8938
  170SAPE    C319206   4.026   2.902   6.684 -0.1943 -0.5825 -0.4416
  170SAPE    HX19207   4.061   3.004   6.657 -0.2957  0.1827  2.0553
  170SAPE    HY19208   4.121   2.844   6.687  0.6727  0.7813 -0.5892
  170SAPE   O3119209   3.973   2.907   6.821 -0.8298 -0.5053 -0.2421
  170SAPE   C3119210   3.923   3.028   6.859 -0.7978  0.8402  0.1008
  170SAPE   O3219211   3.896   3.119   6.783 -0.9660 -0.3129 -0.0546
  170SAPE   C3219212   3.891   3.018   7.007 -1.0782  0.0944  0.3932
  170SAPE   H2X19213   3.971   2.956   7.052  0.5271 -0.5106 -2.9923
  170SAPE   H2Y19214   3.792   2.967   7.014 -1.2061  0.4681  1.5214
  170SAPE   C2319215   3.924   2.348   6.679  0.1067  0.1675 -0.0378
  170SAPE   H3R19216   3.976   2.321   6.584  1.7524 -2.2465  1.4189
  170SAPE   H3S19217   3.838   2.279   6.671  1.4491 -1.4891 -0.9372
  170SAPE   C2419218   4.002   2.302   6.804 -0.0983 -0.3291  0.3638
  170SAPE   H4R19219   4.019   2.193   6.814 -0.5191 -0.5554 -1.1221
  170SAPE   H4S19220   3.931   2.330   6.885  0.1025  1.4529 -0.0280
  170SAPE   C2519221   4.143   2.362   6.815 -0.2677 -0.0201 -0.3612
  170SAPE   H5R19222   4.205   2.364   6.723 -0.1394 -1.6707 -0.3416
  170SAPE   C2619223   4.187   2.428   6.929 -0.5530  0.5505  0.4610
  170SAPE   H6R19224   4.294   2.454   6.931 -0.3484  0.4462 -3.2150
  170SAPE   C2719225   4.106   2.446   7.054 -0.1017  0.3262 -0.2173
  170SAPE   H7R19226   4.167   2.457   7.146 -0.0394 -1.3320 -0.0407
  170SAPE   H7S19227   4.056   2.349   7.072  1.6323 -0.4786  0.5465
  170SAPE   C2819228   4.006   2.559   7.057  0.0883 -0.1611 -0.6883
  170SAPE   H8R19229   3.980   2.601   6.959  0.9791 -0.6593 -1.1483
  170SAPE   C2919230   3.949   2.613   7.166 -0.4062 -0.3116  0.0193
  170SAPE   H9R19231   3.870   2.688   7.147  0.7864  2.0026  3.2412
  170SAPE  C21019232   3.966   2.578   7.316 -0.2722 -0.5222  0.4454
  170SAPE  H10R19233   3.874   2.616   7.366 -1.7966 -3.2792 -0.0581
  170SAPE  H10S19234   4.056   2.638   7.342 -0.1653 -0.2438 -0.5166
  170SAPE  C21119235   3.985   2.436   7.354  0.8033  0.0678  0.3782
  170SAPE  H11R19236   3.968   2.358   7.279  1.5531  1.4741 -1.3372
  170SAPE  C21219237   4.019   2.399   7.480 -0.4759  0.1426  0.3696
  170SAPE  H12R19238   4.040   2.294   7.504  0.2232  0.3681  0.7852
  170SAPE  C21319239   4.062   2.497   7.591  0.4708 -0.7785 -0.0019
  170SAPE  H13R19240   4.061   2.604   7.561 -0.9794 -1.4685 -2.6390
  170SAPE  H13S19241   4.168   2.475   7.617  0.8922 -1.6688 -2.2731
  170SAPE  C21419242   3.974   2.478   7.708 -0.0980 -0.1965 -0.1353
  170SAPE  H14R19243   3.976   2.372   7.738 -0.0177 -0.4696 -1.0508
  170SAPE  C21519244   3.918   2.573   7.789  0.3294  0.2793 -0.1283
  170SAPE  H15R19245   3.856   2.541   7.874 -1.4530  1.0525 -1.1029
  170SAPE  C21619246   3.939   2.726   7.766  0.6464 -1.0870 -0.2618
  170SAPE  H16R19247   4.004   2.748   7.678  0.4155  1.0448  0.0516
  170SAPE  H16S19248   3.992   2.770   7.853  1.0300  1.2114 -1.5783
  170SAPE  C21719249   3.808   2.800   7.764 -0.2238 -0.1701  0.2351
  170SAPE  H17R19250   3.828   2.909   7.773  0.1245 -0.2441  0.3511
  170SAPE  H17S19251   3.732   2.792   7.845  2.0464  2.3946  2.8417
  170SAPE  C21819252   3.739   2.789   7.620 -0.5326  0.7760 -0.2973
  170SAPE  H18R19253   3.709   2.684   7.598  1.1481  0.2424 -0.1981
  170SAPE  H18S19254   3.812   2.807   7.538 -1.1351  1.0639 -0.7777
  170SAPE  C21919255   3.621   2.887   7.610  0.1192  0.2221 -0.7537
  170SAPE  H19R19256   3.661   2.987   7.638  1.5273 -0.6784  0.6730
  170SAPE  H19S19257   3.545   2.857   7.686 -0.3457  0.8398 -0.9735
  170SAPE  C22019258   3.555   2.901   7.472 -0.0747  0.4251 -0.4199
  170SAPE  H20R19259   3.625   2.930   7.391 -0.5202 -3.3068 -2.3459
  170SAPE  H20S19260   3.473   2.977   7.472 -0.1670  0.3287  0.0721
  170SAPE  H20T19261   3.511   2.802   7.446  3.2010 -0.9611 -1.0841
  170SAPE   C3319262   3.888   3.161   7.061  0.1791  0.2806 -0.4908
  170SAPE   H3X19263   3.804   3.217   7.015 -0.8732 -0.4780  0.4509
  170SAPE   H3Y19264   3.986   3.211   7.045  0.4635 -0.1227 -0.0346
  170SAPE   C3419265   3.842   3.156   7.210  0.4434  0.0628 -0.5735
  170SAPE   H4X19266   3.748   3.102   7.233 -0.6449  1.9069 -0.5230
  170SAPE   H4Y19267   3.823   3.261   7.240 -1.9103 -0.8436  1.4265
  170SAPE   C3519268   3.955   3.105   7.299  0.2631  0.5293 -0.6778
  170SAPE   H5X19269   4.049   3.161   7.279  0.9106 -0.6574 -1.1114
  170SAPE   H5Y19270   3.991   3.003   7.272  0.9272  0.1746  1.3567
  170SAPE   C3619271   3.917   3.096   7.451 -0.2195 -0.0962 -0.0859
  170SAPE   H6X19272   3.865   3.000   7.470 -1.9688  1.0376  1.1810
  170SAPE   H6Y19273   3.839   3.173   7.465 -0.9754 -0.6668 -1.1180
  170SAPE   C3719274   4.037   3.105   7.548 -0.0990 -0.2524 -0.4628
  170SAPE   H7X19275   4.108   3.180   7.507 -2.0157  1.0550 -1.5215
  170SAPE   H7Y19276   4.080   3.003   7.542  1.7074  0.5559 -2.7966
  170SAPE   C3819277   4.013   3.152   7.693  0.2429 -0.0978 -0.2135
  170SAPE   H8X19278   4.114   3.159   7.739 -0.9714  3.2670  2.3145
  170SAPE   H8Y19279   3.948   3.083   7.751 -2.1875  2.7142  0.6485
  170SAPE   C3919280   3.947   3.290   7.702  0.3827 -0.2378 -0.1607
  170SAPE   H9X19281   3.855   3.302   7.640  0.7391 -1.1201 -0.8793
  170SAPE   H9Y19282   4.021   3.357   7.655  2.3551 -0.8337  1.9093
  170SAPE  C31019283   3.920   3.345   7.845  0.6119  0.0451  0.0820
  170SAPE  H10X19284   3.896   3.452   7.826  1.6320  0.2263 -0.2640
  170SAPE  H10Y19285   4.019   3.346   7.895  2.4870 -1.0039 -3.3110
  170SAPE  C31119286   3.802   3.295   7.917  0.5176 -0.5183  0.1311
  170SAPE  H11X19287   3.814   3.195   7.964  1.7597 -0.4283  0.0167
  170SAPE  H11Y19288   3.727   3.298   7.835  1.1630  1.2355 -0.4534
  170SAPE  C31219289   3.758   3.386   8.031 -0.4252 -0.3329  0.6403
  170SAPE  H12X19290   3.655   3.357   8.062 -1.2149  1.1627 -0.4131
  170SAPE  H12Y19291   3.748   3.493   8.001 -2.1746 -0.1388  1.7876
  170SAPE  C31319292   3.852   3.374   8.148 -0.3671 -0.5133 -0.5166
  170SAPE  H13X19293   3.944   3.435   8.130 -0.5738  0.7870  2.2849
  170SAPE  H13Y19294   3.872   3.272   8.186 -2.3055 -0.0402  2.0298
  170SAPE  C31419295   3.801   3.446   8.277 -0.2316 -0.2426 -0.5524
  170SAPE  H14X19296   3.741   3.532   8.240 -0.6410  0.2366  1.1034
  170SAPE  H14Y19297   3.880   3.489   8.342  2.3505 -0.6476 -3.2315
  170SAPE  C31519298   3.714   3.351   8.362 -0.0426  0.4836 -0.6008
  170SAPE  H15X19299   3.665   3.274   8.299  1.1398 -1.2889  0.5675
  170SAPE  H15Y19300   3.622   3.403   8.397 -0.3118 -1.0884  1.1481
  170SAPE  C31619301   3.783   3.285   8.481  0.1579  0.5199  0.2327
  170SAPE  H16X19302   3.704   3.251   8.550  0.5056 -0.6604  0.0584
  170SAPE  H16Y19303   3.847   3.355   8.539  2.8852 -0.1704 -1.7073
  170SAPE  C31719304   3.876   3.165   8.442  0.4153 -0.2362 -0.1127
  170SAPE  H17X19305   3.941   3.197   8.357  0.3399  1.4312  0.4242
  170SAPE  H17Y19306   3.799   3.090   8.416 -0.8470  1.4254 -1.4318
  170SAPE  C31819307   3.958   3.126   8.570 -0.0608 -0.1825  0.8019
  170SAPE  H18X19308   3.892   3.116   8.659 -1.0347  0.4588  0.1739
  170SAPE  H18Y19309   4.037   3.199   8.598 -1.4260  0.8310  2.2156
  170SAPE  H18Z19310   4.004   3.026   8.554 -1.6499 -1.1037  1.7426
  171SAPE     N19311   3.432   2.590   6.277 -0.0836 -0.8334 -0.2500
  171SAPE   HN119312   3.502   2.622   6.347  0.3263 -0.2477 -0.9033
  171SAPE   HN219313   3.486   2.606   6.189  0.5825  0.1289  0.3102
  171SAPE   HN319314   3.354   2.658   6.289  1.3995  0.8049  0.7133
  171SAPE   C1219315   3.392   2.447   6.309  0.1940 -0.5743  0.2413
  171SAPE  H12A19316   3.481   2.380   6.312  1.8337  1.3795 -1.4475
  171SAPE  H12B19317   3.325   2.411   6.228 -1.3606  0.1745  1.1489
  171SAPE   C1119318   3.326   2.440   6.450 -0.0401 -0.2601  0.3489
  171SAPE  H11A19319   3.405   2.479   6.517  0.1961  0.1737 -0.1736
  171SAPE  H11B19320   3.309   2.335   6.482 -0.6344 -0.2940 -0.0693
  171SAPE     P19321   3.080   2.501   6.352  0.3696  0.2223  0.3044
  171SAPE   O1319322   3.114   2.580   6.232 -0.3364  0.1053 -0.1121
  171SAPE   O1419323   3.044   2.360   6.336 -0.0573  0.1180  0.0628
  171SAPE   O1219324   3.206   2.515   6.453 -0.2392 -0.0714 -0.0268
  171SAPE   O1119325   2.957   2.573   6.424  0.7173  0.3080  0.5689
  171SAPE    C119326   2.977   2.696   6.492 -0.4734  0.4571  0.6484
  171SAPE    HA19327   3.072   2.747   6.465 -0.4687 -0.6053 -1.5320
  171SAPE    HB19328   2.898   2.766   6.454 -2.3509 -2.1648 -0.6281
  171SAPE    C219329   2.962   2.693   6.644  0.1013 -0.1723 -0.9196
  171SAPE    HS19330   2.941   2.798   6.675  1.3220  0.0504 -0.7794
  171SAPE   O2119331   3.073   2.620   6.705  0.4540  0.1948  0.8443
  171SAPE   C2119332   3.183   2.697   6.718 -0.1555  0.0278 -0.0194
  171SAPE   O2219333   3.181   2.820   6.703  0.0543 -0.4404 -0.0975
  171SAPE   C2219334   3.306   2.623   6.781 -0.4315  0.1604  0.0350
  171SAPE   H2R19335   3.303   2.643   6.891  1.4402  0.3396  0.0900
  171SAPE   H2S19336   3.285   2.519   6.752  1.0868 -0.1641  0.0103
  171SAPE    C319337   2.835   2.612   6.686  0.2986 -0.2645 -0.2953
  171SAPE    HX19338   2.834   2.514   6.633 -2.2530  0.3312 -1.4970
  171SAPE    HY19339   2.748   2.649   6.628  0.3312 -1.1471 -0.9197
  171SAPE   O3119340   2.808   2.607   6.826  0.7928  0.4281 -0.2592
  171SAPE   C3119341   2.793   2.721   6.888 -0.4171 -0.6346 -0.5135
  171SAPE   O3219342   2.759   2.829   6.842  0.0840  0.4601  0.3228
  171SAPE   C3219343   2.812   2.707   7.035 -0.6750  0.4968 -1.1253
  171SAPE   H2X19344   2.919   2.734   7.049  0.8190 -5.4121  2.0991
  171SAPE   H2Y19345   2.789   2.600   7.055 -1.8249  0.3580 -2.9885
  171SAPE   C2319346   3.438   2.680   6.716  0.0606  0.5850  0.5290
  171SAPE   H3R19347   3.419   2.702   6.609 -0.2560 -3.2778 -0.3780
  171SAPE   H3S19348   3.525   2.611   6.724 -0.6459 -0.3592  0.3288
  171SAPE   C2419349   3.496   2.808   6.781 -0.0033  0.4116  0.3132
  171SAPE   H4R19350   3.419   2.888   6.787 -0.8963 -0.5108  2.3284
  171SAPE   H4S19351   3.572   2.846   6.710  1.0488 -0.2071  1.0879
  171SAPE   C2519352   3.557   2.793   6.919 -0.1548 -0.1243 -0.2923
  171SAPE   H5R19353   3.657   2.747   6.930  0.0863  0.4785  0.1425
  171SAPE   C2619354   3.507   2.844   7.036 -0.6653  0.9988 -0.5310
  171SAPE   H6R19355   3.561   2.832   7.131 -1.2051  0.8349 -0.2428
  171SAPE   C2719356   3.385   2.917   7.072  0.7173 -0.1616 -0.5954
  171SAPE   H7R19357   3.391   2.973   7.167 -0.7508 -0.9146 -0.0209
  171SAPE   H7S19358   3.298   2.851   7.097  1.6134 -0.9732  0.5227
  171SAPE   C2819359   3.329   3.023   6.973  0.4857 -0.3410 -0.8865
  171SAPE   H8R19360   3.228   3.010   6.932  0.1636  0.6198 -0.4392
  171SAPE   C2919361   3.391   3.139   6.941 -0.0755 -1.0854 -0.1645
  171SAPE   H9R19362   3.336   3.207   6.875  0.2088 -1.8282 -1.1783
  171SAPE  C21019363   3.520   3.199   6.990 -0.1880 -0.0068 -0.3726
  171SAPE  H10R19364   3.586   3.193   6.901 -1.2742  0.0134 -1.1850
  171SAPE  H10S19365   3.560   3.126   7.064 -0.8577 -2.3084 -2.1768
  171SAPE  C21119366   3.505   3.338   7.043 -0.4932 -0.1077 -0.2799
  171SAPE  H11R19367   3.475   3.412   6.968 -1.2400 -0.4321 -0.3182
  171SAPE  C21219368   3.503   3.373   7.171 -0.2001 -0.7923 -0.1536
  171SAPE  H12R19369   3.491   3.479   7.198 -1.7224 -0.4828 -1.8726
  171SAPE  C21319370   3.513   3.282   7.293 -0.6037 -0.4374 -0.1098
  171SAPE  H13R19371   3.618   3.284   7.329 -0.4661  2.9621 -0.3727
  171SAPE  H13S19372   3.509   3.175   7.263  2.8786 -0.7865  0.3146
  171SAPE  C21419373   3.415   3.300   7.409 -0.1916 -0.1775 -1.2701
  171SAPE  H14R19374   3.308   3.283   7.389 -1.2274  3.4119  0.4076
  171SAPE  C21519375   3.444   3.375   7.521 -0.1573 -0.2932 -0.5258
  171SAPE  H15R19376   3.367   3.370   7.599  1.9080 -3.3382  1.5749
  171SAPE  C21619377   3.573   3.446   7.557 -0.1653  0.4206 -0.2317
  171SAPE  H16R19378   3.621   3.513   7.483  0.0652 -0.7291 -1.1489
  171SAPE  H16S19379   3.643   3.363   7.580 -0.1172  1.0460  2.1200
  171SAPE  C21719380   3.575   3.527   7.696 -0.3013  0.1933 -0.2208
  171SAPE  H17R19381   3.681   3.556   7.708 -0.1567 -0.5394  0.3000
  171SAPE  H17S19382   3.558   3.449   7.773  0.1797 -0.4996 -0.8129
  171SAPE  C21819383   3.486   3.645   7.709  0.3306  0.2971 -0.7823
  171SAPE  H18R19384   3.382   3.608   7.702 -0.0900  1.1839  0.4436
  171SAPE  H18S19385   3.513   3.711   7.623  0.1073  0.9383 -0.3637
  171SAPE  C21919386   3.488   3.716   7.847 -0.5112 -0.2332  0.4469
  171SAPE  H19R19387   3.417   3.801   7.837 -1.5467 -0.7646  2.6293
  171SAPE  H19S19388   3.595   3.744   7.855  0.1691 -2.4809 -0.1331
  171SAPE  C22019389   3.457   3.637   7.973 -0.1392 -0.0609 -0.1126
  171SAPE  H20R19390   3.351   3.604   7.974  0.3156 -1.6722 -1.2974
  171SAPE  H20S19391   3.484   3.694   8.064 -0.2733 -0.6289  0.2855
  171SAPE  H20T19392   3.514   3.543   7.983 -1.2290 -0.8915 -1.3881
  171SAPE   C3319393   2.714   2.784   7.123 -0.0772 -0.4838 -0.0361
  171SAPE   H3X19394   2.620   2.727   7.133 -0.5351  0.2008 -0.3315
  171SAPE   H3Y19395   2.707   2.888   7.082  1.2556 -0.0987  0.6683
  171SAPE   C3419396   2.756   2.797   7.272  0.6866 -1.0098 -0.3317
  171SAPE   H4X19397   2.864   2.814   7.289  0.1568 -0.0936  2.7609
  171SAPE   H4Y19398   2.738   2.702   7.327 -1.0253 -1.2832 -1.3007
  171SAPE   C3519399   2.673   2.902   7.363  0.6821  0.0187 -0.7625
  171SAPE   H5X19400   2.566   2.892   7.336  0.7474 -0.2278 -0.9412
  171SAPE   H5Y19401   2.708   3.005   7.337  0.7253  0.0314 -0.6551
  171SAPE   C3619402   2.700   2.892   7.515  0.1287  0.2512 -0.1804
  171SAPE   H6X19403   2.805   2.885   7.548  0.2456  3.5172  0.4444
  171SAPE   H6Y19404   2.655   2.795   7.544  2.7375 -0.4440  1.9311
  171SAPE   C3719405   2.630   3.004   7.596 -0.1444 -0.0826  0.5930
  171SAPE   H7X19406   2.526   3.011   7.558  0.6906  1.9338 -1.5545
  171SAPE   H7Y19407   2.674   3.102   7.571 -0.0358 -0.6728 -1.8195
  171SAPE   C3819408   2.606   2.991   7.746  0.0393 -0.1222  0.0088
  171SAPE   H8X19409   2.563   2.893   7.774  1.2229 -0.5564  0.3829
  171SAPE   H8Y19410   2.528   3.063   7.779 -0.8483 -0.6537 -0.8853
  171SAPE   C3919411   2.731   3.009   7.839  0.5593 -0.3622  0.9801
  171SAPE   H9X19412   2.775   3.110   7.825  0.2779 -0.4472 -0.6291
  171SAPE   H9Y19413   2.810   2.938   7.809 -0.9944 -1.7285  0.0222
  171SAPE  C31019414   2.705   2.990   7.985 -0.1558  0.0764  0.2275
  171SAPE  H10X19415   2.668   2.885   7.984 -1.1625  0.4235 -0.8830
  171SAPE  H10Y19416   2.620   3.058   8.007 -0.7027 -0.8941  1.2560
  171SAPE  C31119417   2.827   3.001   8.082  0.4401 -0.3549  0.5711
  171SAPE  H11X19418   2.871   3.102   8.067  3.2206 -1.1449  2.5875
  171SAPE  H11Y19419   2.906   2.928   8.056  1.6459 -0.0191  2.9653
  171SAPE  C31219420   2.808   2.968   8.227 -0.5605  0.0354  0.3073
  171SAPE  H12X19421   2.788   2.859   8.233  2.4801 -0.5711  1.6839
  171SAPE  H12Y19422   2.715   3.020   8.259 -2.3547 -0.8439 -3.0936
  171SAPE  C31319423   2.930   3.016   8.299  0.3381 -0.4207 -0.7044
  171SAPE  H13X19424   2.941   3.123   8.274  2.9534 -0.9720 -2.3518
  171SAPE  H13Y19425   3.019   2.953   8.277  0.7102 -1.1742  2.4568
  171SAPE  C31419426   2.926   3.001   8.455 -0.2653  0.6867 -0.3245
  171SAPE  H14X19427   2.882   2.909   8.497 -0.4548  0.9276  0.0093
  171SAPE  H14Y19428   2.856   3.082   8.487 -1.6415 -0.7970  0.5838
  171SAPE  C31519429   3.058   3.014   8.526  0.3449 -0.3838  0.3721
  171SAPE  H15X19430   3.130   2.929   8.527  0.6923 -0.0939  1.9014
  171SAPE  H15Y19431   3.029   3.018   8.633 -0.9931 -2.2923  0.1356
  171SAPE  C31619432   3.130   3.147   8.495 -0.7426  0.1089  0.5520
  171SAPE  H16X19433   3.056   3.225   8.523  0.0267  1.3271 -0.6750
  171SAPE  H16Y19434   3.150   3.160   8.387 -1.9571  0.0666  0.3150
  171SAPE  C31719435   3.261   3.155   8.565  0.6836  0.8598 -0.4318
  171SAPE  H17X19436   3.334   3.076   8.535  0.1426  0.0486  0.3307
  171SAPE  H17Y19437   3.234   3.138   8.672 -0.2167 -2.1295 -1.0364
  171SAPE  C31819438   3.324   3.297   8.551 -0.0689  0.1777  0.1501
  171SAPE  H18X19439   3.254   3.377   8.584 -1.8723 -0.1380 -2.6023
  171SAPE  H18Y19440   3.339   3.319   8.443  0.4940  0.3223  0.2526
  171SAPE  H18Z19441   3.425   3.297   8.598  0.3376 -2.1342 -0.5899
  172SAPE     N19442   3.693   0.750   6.007  0.3547 -0.5107  0.0278
  172SAPE   HN119443   3.591   0.732   6.015  0.3506 -0.2860  0.5257
  172SAPE   HN219444   3.751   0.685   5.950  1.9207 -0.5295  1.5613
  172SAPE   HN319445   3.733   0.726   6.099 -0.9174 -0.8689  0.5179
  172SAPE   C1219446   3.711   0.892   5.970  0.0909  0.5166  0.0441
  172SAPE  H12A19447   3.631   0.943   6.028  1.7426  0.9449  2.0522
  172SAPE  H12B19448   3.704   0.907   5.860 -0.2471 -1.4713 -0.2424
  172SAPE   C1119449   3.849   0.944   6.014  0.0939 -0.1065  0.0108
  172SAPE  H11A19450   3.854   1.048   5.975 -0.4026 -0.1726 -0.2326
  172SAPE  H11B19451   3.921   0.876   5.964 -1.5478 -2.1397  0.2647
  172SAPE     P19452   3.840   1.049   6.251  0.0565  0.1615 -0.7142
  172SAPE   O1319453   3.894   1.005   6.387 -0.7835  0.5294 -0.7071
  172SAPE   O1419454   3.904   1.174   6.198  0.2382 -0.2448  0.8571
  172SAPE   O1219455   3.869   0.931   6.155  0.1097 -0.1693 -0.6235
  172SAPE   O1119456   3.685   1.061   6.249  0.2165  0.2821 -0.1390
  172SAPE    C119457   3.597   0.970   6.322  0.3067 -0.1159  0.1958
  172SAPE    HA19458   3.519   0.943   6.247  0.5544 -0.4896  0.0729
  172SAPE    HB19459   3.636   0.868   6.342  0.5430 -0.0695 -0.0245
  172SAPE    C219460   3.544   1.046   6.442  0.4589 -1.2212 -0.5400
  172SAPE    HS19461   3.516   1.150   6.414 -0.9197 -1.4150  0.0573
  172SAPE   O2119462   3.646   1.053   6.543 -0.4655 -0.7936 -0.5262
  172SAPE   C2119463   3.656   1.157   6.617  0.1184 -0.1114 -0.7596
  172SAPE   O2219464   3.580   1.255   6.614  0.0178  0.1535 -0.0380
  172SAPE   C2219465   3.779   1.151   6.702  0.4621 -0.0388 -0.0067
  172SAPE   H2R19466   3.789   1.049   6.744 -2.5825 -0.1346  0.7212
  172SAPE   H2S19467   3.854   1.164   6.621  1.3123  0.7591  0.8826
  172SAPE    C319468   3.419   0.972   6.490  0.0873 -0.2978  0.7258
  172SAPE    HX19469   3.452   0.869   6.513  1.3849 -0.1928 -0.5294
  172SAPE    HY19470   3.343   0.950   6.412 -0.7693  0.5240  1.3047
  172SAPE   O3119471   3.363   1.024   6.610  0.4235 -0.1103  0.6041
  172SAPE   C3119472   3.236   1.073   6.597  0.6008  0.0318 -0.5480
  172SAPE   O3219473   3.176   1.088   6.495 -0.2437 -0.4888  0.0642
  172SAPE   C3219474   3.180   1.113   6.735  0.4933 -0.6157 -0.4404
  172SAPE   H2X19475   3.121   1.022   6.761  1.2037 -1.6614 -2.2557
  172SAPE   H2Y19476   3.106   1.193   6.712 -0.8182 -1.6738 -0.0126
  172SAPE   C2319477   3.791   1.268   6.797 -0.0604  0.2402 -0.2066
  172SAPE   H3R19478   3.792   1.368   6.750  1.7095 -0.3966 -1.5874
  172SAPE   H3S19479   3.888   1.265   6.850 -2.2480 -0.8422  4.2424
  172SAPE   C2419480   3.688   1.252   6.914  0.1582  0.7524  0.4198
  172SAPE   H4R19481   3.587   1.250   6.868  0.4359  1.4872 -0.2369
  172SAPE   H4S19482   3.676   1.353   6.958 -0.2956  1.1613 -0.6129
  172SAPE   C2519483   3.706   1.138   7.004 -1.1691 -0.3798 -0.4775
  172SAPE   H5R19484   3.688   1.041   6.954 -1.5606  0.5136 -2.1298
  172SAPE   C2619485   3.737   1.147   7.138 -0.1593 -0.3160  0.6138
  172SAPE   H6R19486   3.760   1.047   7.180 -1.6425 -1.2177 -0.6157
  172SAPE   C2719487   3.758   1.269   7.221  0.1737 -0.2563 -0.0475
  172SAPE   H7R19488   3.710   1.237   7.316  1.3688  2.2448  1.5088
  172SAPE   H7S19489   3.696   1.354   7.184 -2.5178 -1.4561  1.4258
  172SAPE   C2819490   3.898   1.315   7.248 -0.5254 -0.0723 -0.0173
  172SAPE   H8R19491   3.936   1.398   7.186  3.2323 -0.8113  1.0722
  172SAPE   C2919492   3.978   1.266   7.341 -0.0642 -0.4499 -0.0037
  172SAPE   H9R19493   4.080   1.305   7.356 -0.2067 -0.0362 -0.0922
  172SAPE  C21019494   3.937   1.157   7.441  0.2995 -0.1916  0.1665
  172SAPE  H10R19495   3.885   1.070   7.394 -0.3140  0.4920 -0.4578
  172SAPE  H10S19496   3.857   1.205   7.502 -0.5024 -0.6066 -0.5295
  172SAPE  C21119497   4.045   1.109   7.546  0.4974 -0.4886 -0.0166
  172SAPE  H11R19498   4.102   1.023   7.509  0.5536 -0.9550  1.1167
  172SAPE  C21219499   4.076   1.176   7.655  0.1024  0.3683 -0.5557
  172SAPE  H12R19500   4.161   1.138   7.714 -1.3734  0.9906  2.1231
  172SAPE  C21319501   4.020   1.296   7.711 -0.3789 -0.0626  0.3007
  172SAPE  H13R19502   3.989   1.262   7.812  2.4531 -2.2673  0.5953
  172SAPE  H13S19503   3.920   1.314   7.668 -0.9081  1.9053  2.2184
  172SAPE  C21419504   4.106   1.418   7.698 -0.3929 -0.3163  0.0642
  172SAPE  H14R19505   4.144   1.438   7.597  1.8367 -0.3229  0.8447
  172SAPE  C21519506   4.144   1.494   7.802  0.0945 -0.2454  0.3111
  172SAPE  H15R19507   4.224   1.566   7.783 -0.6122  0.8580  1.3385
  172SAPE  C21619508   4.119   1.479   7.955 -0.2872  0.4529  0.0525
  172SAPE  H16R19509   4.215   1.495   8.007  0.5195 -1.2652 -0.8196
  172SAPE  H16S19510   4.088   1.374   7.974 -0.5096  0.3672 -0.7322
  172SAPE  C21719511   4.014   1.581   8.016  0.1956  1.1191  1.0907
  172SAPE  H17R19512   4.029   1.676   7.960 -1.1060  1.4552  1.2839
  172SAPE  H17S19513   4.047   1.602   8.120  0.0766  2.5194  0.8775
  172SAPE  C21819514   3.862   1.546   8.011 -0.3665  0.0937 -0.1917
  172SAPE  H18R19515   3.852   1.511   7.906 -0.0749  1.8031 -0.8138
  172SAPE  H18S19516   3.799   1.636   8.018  1.6832  1.8762 -2.7382
  172SAPE  C21919517   3.826   1.452   8.118  0.1906 -0.4346  0.3198
  172SAPE  H19R19518   3.860   1.487   8.217 -2.1704 -1.0383  1.4292
  172SAPE  H19S19519   3.885   1.361   8.094  1.5772  0.7729 -1.0853
  172SAPE  C22019520   3.671   1.433   8.121 -0.4273  0.4523 -0.2945
  172SAPE  H20R19521   3.641   1.341   8.175 -0.3264 -0.6697 -2.0789
  172SAPE  H20S19522   3.632   1.421   8.017 -1.4725  1.2576 -0.0217
  172SAPE  H20T19523   3.627   1.524   8.168 -2.6532 -0.9453  0.4954
  172SAPE   C3319524   3.280   1.160   6.838 -0.1725  0.4132  0.7304
  172SAPE   H3X19525   3.347   1.230   6.782  0.1561  0.2826  0.9589
  172SAPE   H3Y19526   3.348   1.080   6.873 -0.7884  0.6232  2.4965
  172SAPE   C3419527   3.221   1.223   6.967 -0.9065  0.2015 -0.7678
  172SAPE   H4X19528   3.156   1.149   7.019 -0.8428 -0.2025 -1.2579
  172SAPE   H4Y19529   3.155   1.308   6.939 -0.5163  0.6644 -0.3003
  172SAPE   C3519530   3.332   1.271   7.068  0.0321 -0.1175 -0.2290
  172SAPE   H5X19531   3.395   1.339   7.006 -3.8017  2.5979 -1.4835
  172SAPE   H5Y19532   3.382   1.179   7.106 -1.5370 -0.8004  0.2485
  172SAPE   C3619533   3.273   1.363   7.178 -0.8891 -0.8039  0.0993
  172SAPE   H6X19534   3.191   1.321   7.239 -2.3854  1.0212 -0.5284
  172SAPE   H6Y19535   3.229   1.450   7.124 -0.4578  0.1665  1.2449
  172SAPE   C3719536   3.374   1.400   7.283  0.1303  0.2943 -1.1819
  172SAPE   H7X19537   3.442   1.475   7.238 -0.4045 -0.6432 -3.7684
  172SAPE   H7Y19538   3.440   1.320   7.323 -0.8499 -1.2123 -2.4086
  172SAPE   C3819539   3.301   1.477   7.400 -0.1811 -0.2012  0.1223
  172SAPE   H8X19540   3.243   1.399   7.455  1.8417 -1.7676  0.1486
  172SAPE   H8Y19541   3.227   1.548   7.356 -1.1708 -1.9158 -1.1491
  172SAPE   C3919542   3.395   1.545   7.502 -0.3672 -0.4334 -0.2561
  172SAPE   H9X19543   3.443   1.630   7.450  1.9548 -0.2873  1.9060
  172SAPE   H9Y19544   3.477   1.473   7.524  0.9083  0.9203 -0.4582
  172SAPE  C31019545   3.330   1.595   7.626 -0.2554  0.6144 -0.0902
  172SAPE  H10X19546   3.238   1.545   7.665 -0.6771  0.6636 -0.9927
  172SAPE  H10Y19547   3.303   1.701   7.608 -0.6654  0.6406  0.6127
  172SAPE  C31119548   3.438   1.594   7.740  0.6466  0.5375 -0.3759
  172SAPE  H11X19549   3.533   1.631   7.694  0.5531  1.3697  0.0830
  172SAPE  H11Y19550   3.469   1.492   7.773 -2.7085 -0.1282  1.1183
  172SAPE  C31219551   3.383   1.680   7.855 -0.1428  0.5409  0.0024
  172SAPE  H12X19552   3.310   1.626   7.918  0.6386 -0.6487 -0.0878
  172SAPE  H12Y19553   3.338   1.764   7.797  1.7726 -0.0790 -2.5617
  172SAPE  C31319554   3.501   1.737   7.943 -0.0195 -0.1730  0.2017
  172SAPE  H13X19555   3.577   1.792   7.883 -1.2430  1.1092 -0.2335
  172SAPE  H13Y19556   3.550   1.643   7.976 -3.3902 -1.7301  1.2064
  172SAPE  C31419557   3.452   1.799   8.070  0.5619 -0.1339 -0.0810
  172SAPE  H14X19558   3.541   1.809   8.135 -0.4768 -0.1716  1.4139
  172SAPE  H14Y19559   3.389   1.726   8.127  2.0221 -0.0775  1.7084
  172SAPE  C31519560   3.394   1.940   8.061 -1.0718 -0.5333  0.1958
  172SAPE  H15X19561   3.338   1.962   7.967  1.1411 -0.8629 -1.2571
  172SAPE  H15Y19562   3.486   2.002   8.065 -2.0648  1.2318 -1.7616
  172SAPE  C31619563   3.301   1.964   8.190 -0.6598 -0.4510  0.1770
  172SAPE  H16X19564   3.354   1.928   8.281 -3.2328 -4.3327  0.3789
  172SAPE  H16Y19565   3.212   1.898   8.185  0.3116 -1.7178 -3.3876
  172SAPE  C31719566   3.245   2.110   8.191 -0.5412 -0.3067 -0.0428
  172SAPE  H17X19567   3.333   2.178   8.199 -0.4529 -0.5845  2.0185
  172SAPE  H17Y19568   3.205   2.132   8.292  3.1762  0.4997  1.4279
  172SAPE  C31819569   3.153   2.160   8.073  1.0417 -0.0483 -0.5150
  172SAPE  H18X19570   3.203   2.143   7.975  0.5937 -0.0091 -0.7536
  172SAPE  H18Y19571   3.140   2.269   8.088 -1.1204 -0.3928  0.5732
  172SAPE  H18Z19572   3.049   2.120   8.068  0.8248  0.4287  0.1619
  173SOPE     N19573   2.954   4.069  10.845  0.3408  0.1655 -0.0986
  173SOPE   HN119574   3.002   3.995  10.901 -3.7337 -1.6220  1.3959
  173SOPE   HN219575   3.028   4.115  10.788  0.8560  1.2585  1.3907
  173SOPE   HN319576   2.926   4.145  10.910  2.3459 -1.4877  2.9642
  173SOPE   C1219577   2.835   4.016  10.778  0.3670 -0.3582  0.4599
  173SOPE  H12A19578   2.862   4.005  10.671 -0.0110 -1.9631  0.5068
  173SOPE  H12B19579   2.749   4.085  10.789  2.7225  3.0004 -0.3759
  173SOPE   C1119580   2.795   3.865  10.823 -0.4868 -0.8020 -0.0400
  173SOPE  H11A19581   2.709   3.840  10.757  0.1719 -1.2253 -0.7521
  173SOPE  H11B19582   2.766   3.864  10.930  0.1128 -0.2500  0.1405
  173SOPE     P19583   3.020   3.739  10.882  0.4467 -0.2922  0.0933
  173SOPE   O1319584   2.971   3.636  10.981 -0.0931  0.0481  0.8858
  173SOPE   O1419585   3.082   3.860  10.939  0.5924 -0.0155 -0.2586
  173SOPE   O1219586   2.901   3.780  10.789 -0.5913  0.8302 -0.9970
  173SOPE   O1119587   3.127   3.680  10.785  0.0503 -0.2777 -0.3753
  173SOPE    C119588   3.171   3.760  10.678 -0.4497 -0.5420 -0.0604
  173SOPE    HA19589   3.279   3.778  10.696 -0.6570 -0.5209  1.1945
  173SOPE    HB19590   3.119   3.858  10.668  0.8438  0.3216  1.2311
  173SOPE    C219591   3.156   3.691  10.538  0.1050 -0.2169  0.3068
  173SOPE    HS19592   3.200   3.760  10.463  2.3853  0.1010  1.8427
  173SOPE   O2119593   3.027   3.633  10.511  0.5763  0.3735  0.4445
  173SOPE   C2119594   2.929   3.711  10.477  0.1803 -0.1865 -0.1628
  173SOPE   O2219595   2.933   3.833  10.498 -0.4304  0.0608  0.0697
  173SOPE   C2219596   2.811   3.640  10.412 -0.1552  0.2026  0.2581
  173SOPE   H2R19597   2.735   3.609  10.487 -1.3397  1.0028 -0.5796
  173SOPE   H2S19598   2.855   3.555  10.355  1.5987  0.5948  0.9931
  173SOPE    C319599   3.251   3.572  10.534 -0.5612 -0.3625 -0.4282
  173SOPE    HX19600   3.220   3.501  10.613  3.0862 -0.5638  1.0226
  173SOPE    HY19601   3.349   3.615  10.563  0.2163 -2.2819 -0.1240
  173SOPE   O3119602   3.263   3.508  10.407  0.2095  0.6002  0.2380
  173SOPE   C3119603   3.329   3.569  10.317 -0.5229  0.7547  0.5364
  173SOPE   O3219604   3.408   3.660  10.339 -0.1444 -0.3910 -0.1712
  173SOPE   C3219605   3.306   3.502  10.180  0.0738  0.7131 -0.1900
  173SOPE   H2X19606   3.205   3.530  10.143 -0.2269  0.4896  0.4532
  173SOPE   H2Y19607   3.312   3.394  10.207 -1.0168  0.9572  1.0881
  173SOPE   C2319608   2.737   3.735  10.311  0.1996  0.2587 -0.4864
  173SOPE   H3R19609   2.703   3.819  10.375 -3.0467 -1.8737  0.8454
  173SOPE   H3S19610   2.647   3.681  10.277 -0.9314  2.7565 -1.7028
  173SOPE   C2419611   2.808   3.780  10.183  0.4656 -0.1817  0.5990
  173SOPE   H4R19612   2.752   3.854  10.122 -1.0688 -3.1355 -1.8376
  173SOPE   H4S19613   2.901   3.834  10.211 -0.1257  0.2683  1.7510
  173SOPE   C2519614   2.837   3.663  10.088  0.6659 -0.5801 -0.2781
  173SOPE   H5R19615   2.912   3.595  10.134 -1.1829 -1.3627  1.7208
  173SOPE   H5S19616   2.734   3.623  10.073 -0.6673  1.7117  1.9997
  173SOPE   C2619617   2.909   3.717   9.961 -0.1726 -0.2204  0.4230
  173SOPE   H6R19618   2.844   3.791   9.909 -0.9816 -0.9304  0.4113
  173SOPE   H6S19619   3.007   3.764   9.988  0.5067 -0.5212 -1.3830
  173SOPE   C2719620   2.949   3.609   9.855 -0.5738 -0.3236  0.7049
  173SOPE   H7R19621   3.016   3.541   9.912  0.8904  0.5340  0.0844
  173SOPE   H7S19622   2.861   3.552   9.820  1.6649 -3.0126 -1.0136
  173SOPE   C2819623   3.032   3.675   9.740 -0.3854  0.4029  0.3405
  173SOPE   H8R19624   2.974   3.767   9.723 -0.9927  0.3415  1.8616
  173SOPE   H8S19625   3.130   3.712   9.777  0.0555  0.1969 -0.5910
  173SOPE   C2919626   3.034   3.578   9.620 -0.6584  0.3385  0.7225
  173SOPE   H9119627   2.990   3.479   9.639 -0.7592  0.5054  1.3750
  173SOPE  C21019628   3.086   3.609   9.498 -0.1814  0.2259  0.7792
  173SOPE  H10119629   3.088   3.532   9.420  1.4317  1.2488 -0.2670
  173SOPE  C21119630   3.141   3.739   9.460 -0.1442 -0.2273  0.4152
  173SOPE  H11R19631   3.123   3.821   9.534  1.5480  0.9469 -0.4051
  173SOPE  H11S19632   3.088   3.765   9.365 -2.5597 -0.2175  1.6766
  173SOPE  C21219633   3.295   3.733   9.427  0.0930 -0.3888  1.4381
  173SOPE  H12R19634   3.325   3.634   9.387 -0.5981 -0.6867  1.6301
  173SOPE  H12S19635   3.348   3.735   9.525 -1.0453 -4.5106  2.3329
  173SOPE  C21319636   3.341   3.836   9.319  0.3421  0.2719  0.4233
  173SOPE  H13R19637   3.298   3.937   9.338  1.8054  0.6488  2.0644
  173SOPE  H13S19638   3.322   3.797   9.217 -3.8090  0.2256  1.0168
  173SOPE  C21419639   3.494   3.872   9.348 -0.3178 -0.8892  0.0475
  173SOPE  H14R19640   3.556   3.780   9.350  2.0107  0.5886  0.0766
  173SOPE  H14S19641   3.493   3.920   9.448 -3.2112  1.3907 -0.9288
  173SOPE  C21519642   3.557   3.966   9.250 -0.1478 -0.2145 -0.0578
  173SOPE  H15R19643   3.660   3.992   9.283  0.6122 -1.6904 -1.1121
  173SOPE  H15S19644   3.509   4.066   9.252  0.4801  0.1048  2.1795
  173SOPE  C21619645   3.571   3.904   9.114  0.0971  0.1619  0.1847
  173SOPE  H16R19646   3.476   3.874   9.064 -0.5751  0.9503  0.9429
  173SOPE  H16S19647   3.620   3.806   9.132  0.9346  0.1457 -1.8187
  173SOPE  C21719648   3.669   3.985   9.020  0.7864 -1.0020 -0.0530
  173SOPE  H17R19649   3.645   3.948   8.918  3.2345  2.6398 -2.1425
  173SOPE  H17S19650   3.774   3.963   9.047  0.9044  0.5248  0.8099
  173SOPE  C21819651   3.644   4.137   9.018  0.8494 -0.4190 -0.3348
  173SOPE  H18R19652   3.534   4.149   9.009  0.9724 -0.6779 -2.6719
  173SOPE  H18S19653   3.688   4.184   8.928  2.3911 -0.6862  0.2507
  173SOPE  H18T19654   3.687   4.193   9.104 -0.6165  2.3702 -1.2941
  173SOPE   C3319655   3.412   3.537  10.072 -0.5659  0.3551  0.0037
  173SOPE   H3X19656   3.512   3.524  10.118 -0.7922 -0.9605  0.1600
  173SOPE   H3Y19657   3.402   3.647  10.059  0.0428  0.4202  0.0418
  173SOPE   C3419658   3.401   3.456   9.943 -0.2835  0.4730 -0.4015
  173SOPE   H4X19659   3.297   3.459   9.905 -0.6592 -1.0314  0.4422
  173SOPE   H4Y19660   3.421   3.349   9.962 -2.7477  0.0904  0.4273
  173SOPE   C3519661   3.494   3.514   9.827  0.1252 -0.0878  0.1156
  173SOPE   H5X19662   3.598   3.531   9.861 -0.4284  2.5173  0.7409
  173SOPE   H5Y19663   3.437   3.608   9.808 -0.7840 -0.4907  0.7314
  173SOPE   C3619664   3.470   3.420   9.703 -0.6190  0.4673  0.1651
  173SOPE   H6X19665   3.362   3.395   9.695 -0.6830 -0.2585  2.4235
  173SOPE   H6Y19666   3.521   3.327   9.737 -0.8817  0.8127  1.5614
  173SOPE   C3719667   3.542   3.461   9.574 -0.1612 -0.5484 -0.5583
  173SOPE   H7X19668   3.499   3.563   9.563 -2.4934 -1.6077 -2.0655
  173SOPE   H7Y19669   3.505   3.395   9.493  0.2857 -0.7438 -0.6003
  173SOPE   C3819670   3.694   3.465   9.581 -0.6803 -0.0724  0.2104
  173SOPE   H8X19671   3.717   3.357   9.592 -1.5378 -0.0860  2.3172
  173SOPE   H8Y19672   3.727   3.509   9.677  3.2028 -0.7654 -0.6426
  173SOPE   C3919673   3.770   3.527   9.458 -0.2691  0.3484 -0.7568
  173SOPE   H9X19674   3.877   3.501   9.471  0.0253  1.8698  0.1134
  173SOPE   H9Y19675   3.760   3.637   9.464  1.6182  0.5049  0.0944
  173SOPE  C31019676   3.720   3.475   9.323  0.0849 -0.9176  0.3122
  173SOPE  H10X19677   3.617   3.509   9.302  0.9062  1.0466 -0.8300
  173SOPE  H10Y19678   3.719   3.364   9.315  0.4190 -0.7729 -3.1224
  173SOPE  C31119679   3.806   3.538   9.216 -0.1125  0.2568 -0.4789
  173SOPE  H11X19680   3.911   3.502   9.224  0.9069  2.1610 -3.6289
  173SOPE  H11Y19681   3.813   3.647   9.236 -1.1542  0.2597 -0.0592
  173SOPE  C31219682   3.749   3.514   9.073  0.5775  1.1665  0.2181
  173SOPE  H12X19683   3.639   3.530   9.072 -0.0397 -2.3215 -0.4181
  173SOPE  H12Y19684   3.775   3.412   9.039  0.9067  0.4916  2.3795
  173SOPE  C31319685   3.807   3.600   8.959 -0.0087  0.2726 -0.7194
  173SOPE  H13X19686   3.911   3.566   8.940  0.4301  1.9040 -1.4373
  173SOPE  H13Y19687   3.809   3.702   9.003  0.7899 -0.0911  0.1149
  173SOPE  C31419688   3.721   3.579   8.831 -0.8006 -0.0997 -0.5769
  173SOPE  H14X19689   3.619   3.616   8.851 -0.7885 -1.1519  1.7381
  173SOPE  H14Y19690   3.726   3.473   8.799 -1.4226 -0.2198 -0.2829
  173SOPE  C31519691   3.786   3.654   8.715  0.2413  0.7039  0.0016
  173SOPE  H15X19692   3.882   3.601   8.697 -0.6230 -0.6618 -0.8489
  173SOPE  H15Y19693   3.812   3.757   8.748 -0.4777  0.4863  1.2952
  173SOPE  C31619694   3.696   3.647   8.587 -0.0826  0.1888 -0.4701
  173SOPE  H16X19695   3.669   3.542   8.562 -3.0608  1.3938 -2.9008
  173SOPE  H16Y19696   3.756   3.680   8.500 -0.9950  3.2009 -0.0563
  173SOPE  C31719697   3.579   3.735   8.599 -0.5451 -0.0106  0.7834
  173SOPE  H17X19698   3.611   3.840   8.588  1.2693 -0.5828  0.3355
  173SOPE  H17Y19699   3.536   3.711   8.699 -0.2580  0.5176  1.0383
  173SOPE  C31819700   3.473   3.707   8.488 -0.9473 -0.7069  0.2357
  173SOPE  H18X19701   3.398   3.789   8.483  0.9421  1.0241 -2.0045
  173SOPE  H18Y19702   3.428   3.606   8.493 -0.7695 -1.0172 -2.6923
  173SOPE  H18Z19703   3.530   3.709   8.392  3.1189  0.5667  2.4223
  174SOPE     N19704   0.961   2.567  10.923  0.4556  0.2342 -0.2771
  174SOPE   HN119705   0.963   2.663  10.962 -1.1957  1.2535 -2.5059
  174SOPE   HN219706   0.936   2.575  10.822  3.3430  3.1234 -0.9388
  174SOPE   HN319707   0.881   2.522  10.970 -0.6345  0.2537 -2.0167
  174SOPE   C1219708   1.090   2.496  10.938  0.8572  0.9143  0.0557
  174SOPE  H12A19709   1.115   2.482  11.046  2.5440  1.6598 -0.2225
  174SOPE  H12B19710   1.167   2.561  10.892 -0.2891  1.3697 -1.2881
  174SOPE   C1119711   1.082   2.353  10.876 -0.0461  0.1340 -1.1112
  174SOPE  H11A19712   1.059   2.366  10.768  1.4665  1.9046 -1.2802
  174SOPE  H11B19713   0.998   2.303  10.928  0.3721  0.3536 -0.2081
  174SOPE     P19714   1.278   2.198  10.801  0.0382  0.2399  0.1719
  174SOPE   O1319715   1.201   2.075  10.775 -0.6856  0.1424 -0.2488
  174SOPE   O1419716   1.417   2.191  10.858  0.0019  0.6008  0.0707
  174SOPE   O1219717   1.201   2.282  10.903  0.1862 -0.2622  0.0992
  174SOPE   O1119718   1.273   2.289  10.667 -0.5055  0.2871  0.6581
  174SOPE    C119719   1.348   2.413  10.666 -0.5468  0.1263  0.1218
  174SOPE    HA19720   1.440   2.385  10.610 -1.4659 -0.2356 -1.2856
  174SOPE    HB19721   1.370   2.447  10.769  0.4492 -2.4152  0.8334
  174SOPE    C219722   1.271   2.527  10.603 -0.8710  0.1664  0.4005
  174SOPE    HS19723   1.172   2.543  10.651 -1.5173  0.8393 -1.0714
  174SOPE   O2119724   1.270   2.502  10.463 -0.6423 -0.0723 -0.4940
  174SOPE   C2119725   1.153   2.500  10.402 -0.2539 -0.1196 -0.0594
  174SOPE   O2219726   1.049   2.530  10.454 -0.0876  0.4846  0.0823
  174SOPE   C2219727   1.171   2.437  10.265  0.3094 -0.5001 -0.4123
  174SOPE   H2R19728   1.102   2.351  10.256 -2.7920  1.8656 -0.7463
  174SOPE   H2S19729   1.275   2.399  10.256  1.6047  2.6385 -0.2553
  174SOPE    C319730   1.361   2.663  10.617  0.2962 -0.3525 -0.5707
  174SOPE    HX19731   1.464   2.630  10.590  0.2283 -2.7526  1.6778
  174SOPE    HY19732   1.370   2.700  10.722  0.2422 -3.0889  0.5123
  174SOPE   O3119733   1.307   2.771  10.531 -0.2879  0.5368  0.3733
  174SOPE   C3119734   1.378   2.875  10.517  1.2080  0.1484 -0.2560
  174SOPE   O3219735   1.487   2.891  10.576  0.4202  0.3244  0.5057
  174SOPE   C3219736   1.324   2.968  10.414  0.3962 -0.0153 -0.7097
  174SOPE   H2X19737   1.331   3.068  10.461  1.3944  0.1116 -1.0982
  174SOPE   H2Y19738   1.217   2.956  10.388  0.8488  0.7822 -3.2104
  174SOPE   C2319739   1.137   2.535  10.159  0.0987  0.0759  1.4613
  174SOPE   H3R19740   1.203   2.624  10.167 -2.2606  1.9844  1.0274
  174SOPE   H3S19741   1.027   2.553  10.164 -0.1503 -0.1067 -1.5631
  174SOPE   C2419742   1.163   2.474  10.015  0.3941 -0.4983  0.0207
  174SOPE   H4R19743   1.265   2.428  10.015  2.2629  3.2628 -0.6262
  174SOPE   H4S19744   1.083   2.404   9.981 -0.8117  1.8587 -2.3308
  174SOPE   C2519745   1.172   2.570   9.897 -0.0755  0.5749  0.2846
  174SOPE   H5R19746   1.068   2.583   9.860 -0.1124 -0.6057 -0.0841
  174SOPE   H5S19747   1.193   2.668   9.945  1.9955  0.6249 -0.6177
  174SOPE   C2619748   1.270   2.533   9.784  0.6986  0.2621 -0.6746
  174SOPE   H6R19749   1.282   2.630   9.732 -0.8937  1.7902  1.5966
  174SOPE   H6S19750   1.369   2.500   9.822  0.7647  2.7815  1.6121
  174SOPE   C2719751   1.207   2.423   9.684  0.4048 -0.5019 -0.1314
  174SOPE   H7R19752   1.234   2.318   9.709 -0.5620 -1.4134 -2.5545
  174SOPE   H7S19753   1.098   2.439   9.697  0.5256  0.5121 -0.2926
  174SOPE   C2819754   1.259   2.442   9.540 -0.3343  0.1791 -0.0994
  174SOPE   H8R19755   1.202   2.379   9.468  0.2969  1.5163 -1.8268
  174SOPE   H8S19756   1.238   2.548   9.512  0.0594  0.8392  1.9234
  174SOPE   C2919757   1.401   2.408   9.518 -0.5355  0.3052 -0.5020
  174SOPE   H9119758   1.427   2.317   9.573 -0.8224 -0.4935 -1.6335
  174SOPE  C21019759   1.494   2.483   9.463  0.3128 -0.1576  0.3155
  174SOPE  H10119760   1.596   2.441   9.461  1.3356  1.9682  2.4139
  174SOPE  C21119761   1.477   2.619   9.397 -0.2066  0.1043 -0.4007
  174SOPE  H11R19762   1.372   2.657   9.392  0.1064  1.1287  0.4495
  174SOPE  H11S19763   1.510   2.622   9.291  2.5448 -2.0740  0.2964
  174SOPE  C21219764   1.559   2.725   9.465 -0.8005 -0.5183 -0.8881
  174SOPE  H12R19765   1.527   2.750   9.569 -1.3436  1.0278 -1.4077
  174SOPE  H12S19766   1.560   2.817   9.403  0.5737 -0.4643 -0.8219
  174SOPE  C21319767   1.718   2.695   9.480 -0.4045  0.0364 -0.1606
  174SOPE  H13R19768   1.729   2.605   9.545 -0.0965 -0.3724 -0.7716
  174SOPE  H13S19769   1.763   2.772   9.546 -2.8967 -0.0864  1.8347
  174SOPE  C21419770   1.807   2.659   9.361  0.2600  0.7018  0.1374
  174SOPE  H14R19771   1.746   2.583   9.309  0.8075 -0.8605  1.6688
  174SOPE  H14S19772   1.890   2.596   9.401 -0.7971 -1.2208 -0.5696
  174SOPE  C21519773   1.847   2.771   9.266 -0.5563 -0.0763  0.1995
  174SOPE  H15R19774   1.890   2.854   9.326  0.5172 -0.0948 -0.5176
  174SOPE  H15S19775   1.761   2.808   9.206  0.1232  0.7887 -0.2652
  174SOPE  C21619776   1.955   2.721   9.171 -0.0553 -0.3758 -0.0680
  174SOPE  H16R19777   1.945   2.790   9.085 -1.3181 -0.9672 -0.4305
  174SOPE  H16S19778   1.923   2.622   9.132 -1.4044 -0.7833  1.8919
  174SOPE  C21719779   2.099   2.706   9.221 -0.5014  0.0285 -0.6865
  174SOPE  H17R19780   2.112   2.634   9.304  1.5153  0.0900 -0.8961
  174SOPE  H17S19781   2.138   2.807   9.247  1.5139 -0.0452 -3.0196
  174SOPE  C21819782   2.186   2.658   9.106  0.2158 -0.5140  0.4463
  174SOPE  H18R19783   2.182   2.733   9.025 -0.9441  0.4199  1.3481
  174SOPE  H18S19784   2.149   2.570   9.049 -1.1905  0.2879  0.0829
  174SOPE  H18T19785   2.282   2.617   9.144 -0.2117  0.6150  2.9542
  174SOPE   C3319786   1.407   2.957  10.288 -0.1011 -0.3758  0.4665
  174SOPE   H3X19787   1.516   2.946  10.303 -0.1427 -0.8905  0.3993
  174SOPE   H3Y19788   1.389   3.050  10.230 -0.8605 -0.6399  0.2637
  174SOPE   C3419789   1.355   2.840  10.206 -0.0278  0.3567  0.5027
  174SOPE   H4X19790   1.244   2.831  10.204 -0.0113 -1.0403  2.3039
  174SOPE   H4Y19791   1.388   2.754  10.269  1.1346  0.6382  0.2948
  174SOPE   C3519792   1.410   2.826  10.059 -0.0195 -0.1626  0.0797
  174SOPE   H5X19793   1.375   2.727  10.022 -0.1484  0.3842 -1.3242
  174SOPE   H5Y19794   1.521   2.826  10.068  0.2096 -1.4107 -2.1511
  174SOPE   C3619795   1.369   2.930   9.967  0.1004 -0.0935 -0.3001
  174SOPE   H6X19796   1.382   3.034  10.002 -2.2594 -0.5433  2.2388
  174SOPE   H6Y19797   1.258   2.924   9.962  0.0288  0.0687  0.8307
  174SOPE   C3719798   1.436   2.919   9.826 -0.6834 -0.0573  1.2205
  174SOPE   H7X19799   1.373   2.850   9.766  0.5811 -0.8812  0.7809
  174SOPE   H7Y19800   1.539   2.876   9.836  0.7907  1.9987 -2.8575
  174SOPE   C3819801   1.452   3.051   9.754  0.7196 -0.2078  0.4287
  174SOPE   H8X19802   1.518   3.124   9.805  1.0322 -1.5610  2.0339
  174SOPE   H8Y19803   1.350   3.095   9.755 -0.0584 -1.9378  0.1790
  174SOPE   C3919804   1.510   3.038   9.610  0.3887 -0.9553 -0.0310
  174SOPE   H9X19805   1.446   2.964   9.557  0.4322  0.3687 -2.0151
  174SOPE   H9Y19806   1.613   2.996   9.604  1.0613  0.7129 -0.5722
  174SOPE  C31019807   1.501   3.170   9.534 -0.0678 -0.2533  0.5683
  174SOPE  H10X19808   1.577   3.238   9.578  0.6004  0.5404 -1.6354
  174SOPE  H10Y19809   1.402   3.216   9.556  1.2076  3.5237 -0.7002
  174SOPE  C31119810   1.531   3.149   9.386 -0.3025 -0.0274  0.8004
  174SOPE  H11X19811   1.466   3.081   9.327  2.6560 -0.7178 -1.9897
  174SOPE  H11Y19812   1.631   3.101   9.374  0.5703  2.3638 -2.8740
  174SOPE  C31219813   1.530   3.289   9.316  0.8807 -0.4837 -0.0177
  174SOPE  H12X19814   1.588   3.359   9.379 -0.5960  0.1168  0.7229
  174SOPE  H12Y19815   1.424   3.321   9.328  0.7101 -0.9609 -0.1864
  174SOPE  C31319816   1.575   3.286   9.172 -0.5321  0.1453 -0.2618
  174SOPE  H13X19817   1.507   3.344   9.107  2.1455  0.8390 -2.6657
  174SOPE  H13Y19818   1.583   3.181   9.135  1.1011  1.0942 -2.8785
  174SOPE  C31419819   1.717   3.345   9.162  0.7253  0.2576 -0.2850
  174SOPE  H14X19820   1.753   3.317   9.061  3.0282  1.2654  0.1963
  174SOPE  H14Y19821   1.782   3.294   9.236 -0.2435  0.6062  0.8489
  174SOPE  C31519822   1.721   3.497   9.172 -0.0586 -0.6324  0.5513
  174SOPE  H15X19823   1.685   3.529   9.272 -1.4318  0.1520 -0.1708
  174SOPE  H15Y19824   1.646   3.545   9.105 -1.9988 -0.7450  2.5440
  174SOPE  C31619825   1.856   3.557   9.129 -0.1195 -0.3485 -1.0110
  174SOPE  H16X19826   1.927   3.527   9.209 -1.3807  1.1336  0.7380
  174SOPE  H16Y19827   1.856   3.669   9.128  0.2281 -0.3461 -0.8384
  174SOPE  C31719828   1.920   3.522   8.996  0.2589  0.8878  0.3172
  174SOPE  H17X19829   1.946   3.414   8.996  2.6852  1.3730  2.2741
  174SOPE  H17Y19830   2.012   3.581   8.976 -0.4240  2.1056  0.6878
  174SOPE  C31819831   1.825   3.557   8.887 -0.7111 -0.2668 -0.1638
  174SOPE  H18X19832   1.803   3.666   8.886  0.0144 -0.1145 -0.1142
  174SOPE  H18Y19833   1.738   3.489   8.892  0.4234 -1.7064  0.7426
  174SOPE  H18Z19834   1.877   3.533   8.792  1.0634 -1.0701  0.9744
  175SOPE     N19835   4.376   5.545  10.773 -0.0522  0.8654 -0.1060
  175SOPE   HN119836   4.299   5.599  10.818  1.2349  3.2161 -0.5983
  175SOPE   HN219837   4.372   5.443  10.794 -0.4349  0.9658  0.3197
  175SOPE   HN319838   4.463   5.585  10.812 -1.3084  2.9645  0.6923
  175SOPE   C1219839   4.365   5.566  10.627 -1.0335 -0.3127  0.3673
  175SOPE  H12A19840   4.257   5.578  10.602 -1.2106 -1.0576  0.7742
  175SOPE  H12B19841   4.416   5.483  10.575  1.2765  1.7612 -0.9142
  175SOPE   C1119842   4.437   5.702  10.593 -0.2511  0.0921  0.0536
  175SOPE  H11A19843   4.408   5.734  10.491  1.3267  0.6400 -0.2445
  175SOPE  H11B19844   4.542   5.668  10.600  0.4488  2.2835  1.0895
  175SOPE     P19845   4.294   5.911  10.655 -0.0415  0.2455  0.2654
  175SOPE   O1319846   4.310   5.972  10.522 -0.1684 -0.0042 -0.1061
  175SOPE   O1419847   4.266   6.004  10.769 -0.1373  0.2747 -0.4900
  175SOPE   O1219848   4.412   5.811  10.692 -0.4392 -0.1267  0.6981
  175SOPE   O1119849   4.167   5.823  10.642  0.2926  0.2210 -0.2805
  175SOPE    C119850   4.045   5.868  10.579 -0.4959 -0.2878  0.1312
  175SOPE    HA19851   4.046   5.977  10.556  0.5902 -0.3923 -0.3723
  175SOPE    HB19852   3.955   5.857  10.643 -0.3084  0.6807  0.5800
  175SOPE    C219853   4.014   5.781  10.448  0.4937 -0.0082 -0.2020
  175SOPE    HS19854   3.922   5.820  10.400 -0.1416  0.5911  1.4072
  175SOPE   O2119855   3.999   5.644  10.469  0.4697  0.0487 -0.4843
  175SOPE   C2119856   3.884   5.613  10.525  0.0703 -0.0785 -0.2596
  175SOPE   O2219857   3.800   5.692  10.569 -0.8323  0.7986 -0.1071
  175SOPE   C2219858   3.865   5.468  10.544  0.2251 -0.2039 -0.3953
  175SOPE   H2R19859   3.881   5.435  10.649  0.9262  0.3276 -0.3272
  175SOPE   H2S19860   3.939   5.414  10.481  0.2635 -0.9808  0.3013
  175SOPE    C319861   4.134   5.797  10.344  0.1020  0.3768 -0.2173
  175SOPE    HX19862   4.225   5.757  10.393 -0.1590 -0.7619 -0.6249
  175SOPE    HY19863   4.159   5.903  10.324 -3.0435  0.8439 -2.4895
  175SOPE   O3119864   4.096   5.739  10.220  0.1967  0.0792  0.6505
  175SOPE   C3119865   4.164   5.633  10.181 -0.0808 -1.0841  0.3567
  175SOPE   O3219866   4.271   5.602  10.230 -0.0561  0.6004  0.1337
  175SOPE   C3219867   4.097   5.575  10.060 -0.4679  0.3812  0.2290
  175SOPE   H2X19868   4.092   5.659   9.986 -0.2467  0.1002 -0.1058
  175SOPE   H2Y19869   3.991   5.550  10.084 -0.4708 -0.4094 -0.5704
  175SOPE   C2319870   3.730   5.424  10.481  0.0341  0.6065 -0.7406
  175SOPE   H3R19871   3.653   5.474  10.542 -1.4901  2.1467 -3.7183
  175SOPE   H3S19872   3.703   5.316  10.483 -0.0893  0.4153 -4.6631
  175SOPE   C2419873   3.728   5.474  10.340 -0.5650 -0.2130 -0.6993
  175SOPE   H4R19874   3.715   5.585  10.337  2.6672  0.3810  1.7653
  175SOPE   H4S19875   3.826   5.445  10.298 -0.3748 -0.6897  0.0611
  175SOPE   C2519876   3.622   5.397  10.254 -0.3679 -0.0057 -0.1957
  175SOPE   H5R19877   3.649   5.289  10.250  0.0680  0.0517  0.9028
  175SOPE   H5S19878   3.525   5.395  10.309  0.6302 -0.9439  1.6154
  175SOPE   C2619879   3.599   5.448  10.115 -0.1764 -0.5903 -0.3300
  175SOPE   H6R19880   3.522   5.383  10.067 -0.9162 -0.5836  0.8092
  175SOPE   H6S19881   3.568   5.554  10.123  1.7835 -0.0553  0.9958
  175SOPE   C2719882   3.722   5.443  10.023  0.2518 -0.0081  0.4616
  175SOPE   H7R19883   3.789   5.525  10.059  0.2734 -0.4085  1.3722
  175SOPE   H7S19884   3.767   5.342  10.030 -0.5444 -0.5791 -1.8852
  175SOPE   C2819885   3.674   5.490   9.877 -0.1799 -0.5983  0.7937
  175SOPE   H8R19886   3.590   5.424   9.846 -1.0462 -0.1512  2.1065
  175SOPE   H8S19887   3.617   5.586   9.878  0.1067 -0.3664 -1.0187
  175SOPE   C2919888   3.793   5.512   9.784  0.8258  0.3411 -0.2660
  175SOPE   H9119889   3.852   5.597   9.821 -0.1907 -0.0857  2.5901
  175SOPE  C21019890   3.831   5.425   9.687 -0.2264 -0.5182 -0.4414
  175SOPE  H10119891   3.925   5.447   9.633  0.1713  0.7646  0.6939
  175SOPE  C21119892   3.764   5.301   9.648  0.4257  0.0811 -0.1626
  175SOPE  H11R19893   3.664   5.296   9.694 -0.5221 -1.5183 -2.2076
  175SOPE  H11S19894   3.825   5.214   9.681 -1.1459 -1.8541 -2.0906
  175SOPE  C21219895   3.739   5.277   9.496  0.2376  0.9692  0.6825
  175SOPE  H12R19896   3.658   5.344   9.460 -1.6520 -1.3516  0.2893
  175SOPE  H12S19897   3.706   5.172   9.480  3.1596 -0.0008  0.3513
  175SOPE  C21319898   3.854   5.298   9.401  0.2092 -0.1663  0.1803
  175SOPE  H13R19899   3.950   5.254   9.433  0.3047 -1.0325 -1.2321
  175SOPE  H13S19900   3.854   5.409   9.409  0.3152 -0.2129  0.8055
  175SOPE  C21419901   3.810   5.269   9.261  1.0409  0.3820 -0.0049
  175SOPE  H14R19902   3.889   5.310   9.194  1.4444 -1.5596 -0.7885
  175SOPE  H14S19903   3.713   5.317   9.235  0.0706 -0.5182  1.7710
  175SOPE  C21519904   3.802   5.121   9.231  0.1495 -0.3244 -0.7025
  175SOPE  H15R19905   3.713   5.083   9.286  0.5848  1.0998  1.0699
  175SOPE  H15S19906   3.900   5.087   9.270  1.2941  2.2150 -1.1637
  175SOPE  C21619907   3.788   5.095   9.082 -0.0551 -0.1281  0.0646
  175SOPE  H16R19908   3.880   5.133   9.033  0.8723  0.1075  1.9026
  175SOPE  H16S19909   3.701   5.152   9.043  1.6569  1.9831 -0.8000
  175SOPE  C21719910   3.782   4.941   9.055  0.1901  0.4740 -0.0854
  175SOPE  H17R19911   3.691   4.903   9.106  0.0149  1.7793  0.6141
  175SOPE  H17S19912   3.854   4.876   9.111 -1.0353 -1.8998 -1.0921
  175SOPE  C21819913   3.777   4.908   8.909 -0.3319  0.1255  0.2452
  175SOPE  H18R19914   3.680   4.931   8.860 -1.6948 -0.1689  2.6410
  175SOPE  H18S19915   3.816   4.807   8.887 -2.1551 -0.7657  0.9130
  175SOPE  H18T19916   3.851   4.979   8.868 -0.0961 -0.0533  0.3592
  175SOPE   C3319917   4.188   5.467  10.003 -0.3076  0.1043  0.4565
  175SOPE   H3X19918   4.179   5.383  10.075  1.9600 -0.4143  0.2084
  175SOPE   H3Y19919   4.287   5.512   9.978 -0.4521 -0.6126 -1.5774
  175SOPE   C3419920   4.129   5.415   9.873 -0.2434  0.5373  0.3047
  175SOPE   H4X19921   4.128   5.492   9.793 -2.3100 -0.8558 -1.1363
  175SOPE   H4Y19922   4.027   5.376   9.893 -1.0060  3.2399  2.3286
  175SOPE   C3519923   4.209   5.294   9.818 -0.4092  0.1845 -0.1778
  175SOPE   H5X19924   4.232   5.228   9.904  0.0280 -0.7590 -0.9945
  175SOPE   H5Y19925   4.303   5.330   9.773 -0.2829 -0.4607 -0.4463
  175SOPE   C3619926   4.126   5.220   9.714  0.2954 -0.1447 -0.3399
  175SOPE   H6X19927   4.091   5.291   9.636 -0.5299 -0.5258 -0.3228
  175SOPE   H6Y19928   4.032   5.194   9.767  0.7308  0.9436  1.0255
  175SOPE   C3719929   4.191   5.100   9.652 -0.0696  0.5805 -0.5414
  175SOPE   H7X19930   4.182   5.006   9.711  0.4260  0.0952 -1.2151
  175SOPE   H7Y19931   4.300   5.120   9.648 -0.2449  1.9047  0.6413
  175SOPE   C3819932   4.139   5.077   9.505 -0.3692 -0.4278 -0.3711
  175SOPE   H8X19933   4.157   5.167   9.443  0.7749  0.1245  0.7064
  175SOPE   H8Y19934   4.030   5.055   9.513 -0.8250  2.1880  2.2720
  175SOPE   C3919935   4.214   4.966   9.425  0.3627 -0.3569 -0.4065
  175SOPE   H9X19936   4.187   4.863   9.457  2.2146  0.0098  2.7423
  175SOPE   H9Y19937   4.323   4.984   9.438  0.6558 -1.1036 -1.6901
  175SOPE  C31019938   4.196   4.977   9.274 -0.3943 -0.2356 -0.1636
  175SOPE  H10X19939   4.238   5.067   9.225  2.0920 -1.6891 -0.9422
  175SOPE  H10Y19940   4.092   4.954   9.243  0.0463 -2.8731  0.0260
  175SOPE  C31119941   4.271   4.858   9.200 -0.4370  0.3367  0.0317
  175SOPE  H11X19942   4.253   4.760   9.250  4.5588 -1.3440 -0.8801
  175SOPE  H11Y19943   4.380   4.871   9.215 -0.3699  0.9229 -0.8780
  175SOPE  C31219944   4.246   4.853   9.050 -0.4439  0.4091  0.1941
  175SOPE  H12X19945   4.142   4.842   9.013 -0.7836 -0.9013  1.4644
  175SOPE  H12Y19946   4.298   4.760   9.020 -0.1298  1.0144 -1.2355
  175SOPE  C31319947   4.319   4.964   8.966 -0.6511 -0.0181 -0.3383
  175SOPE  H13X19948   4.417   4.982   9.014  0.1549 -0.2966 -1.8166
  175SOPE  H13Y19949   4.263   5.059   8.977 -2.3800 -1.2752  3.2276
  175SOPE  C31419950   4.336   4.928   8.819 -0.0046  0.2089  0.7315
  175SOPE  H14X19951   4.382   4.827   8.808 -2.4715 -0.7652 -1.9810
  175SOPE  H14Y19952   4.394   5.007   8.766  0.3797 -0.6791 -0.2144
  175SOPE  C31519953   4.203   4.928   8.743  1.0954 -0.3619 -0.2311
  175SOPE  H15X19954   4.167   5.033   8.742  1.2527 -0.3063 -1.1842
  175SOPE  H15Y19955   4.117   4.877   8.792 -0.9388  0.5234 -2.6427
  175SOPE  C31619956   4.218   4.900   8.588  0.0438 -0.1383 -0.0879
  175SOPE  H16X19957   4.259   4.800   8.565 -0.8378  0.0823 -2.9505
  175SOPE  H16Y19958   4.281   4.975   8.535 -1.3052  1.7983  0.9417
  175SOPE  C31719959   4.075   4.894   8.526 -0.1963 -0.0329 -0.0955
  175SOPE  H17X19960   4.044   5.001   8.534  1.1794  0.3201  0.8865
  175SOPE  H17Y19961   4.016   4.838   8.602 -1.0529  0.9688  0.0013
  175SOPE  C31819962   4.071   4.843   8.384  0.7800 -0.6841 -0.4276
  175SOPE  H18X19963   4.068   4.732   8.380  1.7468 -0.7086 -0.5710
  175SOPE  H18Y19964   4.153   4.889   8.326 -1.0189  1.6934 -1.2519
  175SOPE  H18Z19965   3.980   4.894   8.344  0.0696 -1.4664  0.1462
  176SOPE     N19966   3.776   6.673  11.228  1.0723 -0.5487 -0.6080
  176SOPE   HN119967   3.802   6.764  11.185 -0.3659  1.3281  2.1865
  176SOPE   HN219968   3.697   6.690  11.293  0.8201  0.2529 -1.1091
  176SOPE   HN319969   3.850   6.631  11.289 -0.1244 -0.6544  0.8221
  176SOPE   C1219970   3.725   6.584  11.124 -0.2895  0.1943 -0.7593
  176SOPE  H12A19971   3.679   6.494  11.171  1.5613  0.3894  1.5808
  176SOPE  H12B19972   3.812   6.539  11.071 -0.9281 -1.8257 -0.2095
  176SOPE   C1119973   3.631   6.664  11.030 -0.4294 -0.7258 -0.4070
  176SOPE  H11A19974   3.547   6.695  11.096  0.1489 -0.9606  0.4497
  176SOPE  H11B19975   3.591   6.599  10.949  1.1932 -2.2269 -0.0692
  176SOPE     P19976   3.613   6.866  10.856  0.0159  0.1371  0.2708
  176SOPE   O1319977   3.711   6.960  10.801 -0.0756  0.3073 -0.2642
  176SOPE   O1419978   3.483   6.922  10.907  0.5468 -0.4427 -0.5761
  176SOPE   O1219979   3.694   6.780  10.969 -0.6073 -0.7293  0.0416
  176SOPE   O1119980   3.575   6.764  10.737 -0.0634  1.1290 -0.4734
  176SOPE    C119981   3.677   6.696  10.662  0.1340  0.1269  0.4475
  176SOPE    HA19982   3.657   6.587  10.655  0.3773  0.1270 -0.3144
  176SOPE    HB19983   3.780   6.699  10.704  1.8307 -4.4332 -2.6729
  176SOPE    C219984   3.679   6.757  10.517  0.6933  0.4034  0.3108
  176SOPE    HS19985   3.661   6.864  10.543 -0.3536  0.1503  0.6823
  176SOPE   O2119986   3.570   6.702  10.444  0.1247  0.1283 -0.1446
  176SOPE   C2119987   3.522   6.777  10.349  0.3499 -0.1108  1.2215
  176SOPE   O2219988   3.562   6.889  10.332 -0.2754 -0.2335  0.1935
  176SOPE   C2219989   3.415   6.700  10.265 -0.4089 -0.3944  0.2113
  176SOPE   H2R19990   3.385   6.625  10.342  1.9507 -1.5344  0.1215
  176SOPE   H2S19991   3.467   6.638  10.188  3.2343  1.1795  1.2222
  176SOPE    C319992   3.813   6.727  10.451  0.2110 -0.2463  0.1866
  176SOPE    HX19993   3.826   6.617  10.441  0.2900 -0.2100 -0.1166
  176SOPE    HY19994   3.895   6.751  10.522  1.0130 -1.0100 -0.4440
  176SOPE   O3119995   3.831   6.796  10.329  0.3887 -0.2811  0.5949
  176SOPE   C3119996   3.806   6.727  10.216 -0.1471  0.2989 -0.6193
  176SOPE   O3219997   3.781   6.609  10.215  0.6333  0.1661  0.1161
  176SOPE   C3219998   3.814   6.806  10.089 -1.1155  0.0537 -0.5049
  176SOPE   H2X19999   3.898   6.879  10.095 -0.2739 -0.9470  0.1427
  176SOPE   H2Y20000   3.716   6.857  10.079 -1.6065 -0.5279  1.1232
  176SOPE   C2320001   3.288   6.778  10.213 -0.2949  0.2418 -0.2873
  176SOPE   H3R20002   3.226   6.819  10.296 -0.7796 -0.9240 -0.0519
  176SOPE   H3S20003   3.237   6.702  10.150 -0.0029  0.0792 -0.3297
  176SOPE   C2420004   3.321   6.908  10.137  0.1935  0.0204 -0.5373
  176SOPE   H4R20005   3.232   6.958  10.092 -1.0075 -1.4741  0.1129
  176SOPE   H4S20006   3.374   6.982  10.200  1.8269 -1.7088  0.2112
  176SOPE   C2520007   3.410   6.893  10.016  0.2291  0.1763 -0.4293
  176SOPE   H5R20008   3.471   6.980   9.984 -1.8212  0.8470 -2.8405
  176SOPE   H5S20009   3.484   6.810  10.022  0.9859  0.7610 -1.3883
  176SOPE   C2620010   3.327   6.848   9.889 -0.0187  0.1549  0.2296
  176SOPE   H6R20011   3.258   6.766   9.918 -1.8769  0.3866 -3.0827
  176SOPE   H6S20012   3.257   6.925   9.848  0.1154 -0.0492 -0.3878
  176SOPE   C2720013   3.427   6.808   9.783 -0.5112 -0.3504  0.4059
  176SOPE   H7R20014   3.494   6.896   9.769 -1.3285  0.2713  0.3107
  176SOPE   H7S20015   3.484   6.718   9.812  2.3562  1.4110  0.6788
  176SOPE   C2820016   3.361   6.792   9.641 -0.1674 -0.4217  0.3853
  176SOPE   H8R20017   3.296   6.874   9.603  0.1748 -0.0879  0.5108
  176SOPE   H8S20018   3.444   6.803   9.567 -1.5474  0.0815 -1.1688
  176SOPE   C2920019   3.299   6.660   9.630  0.4077  0.3260 -0.3336
  176SOPE   H9120020   3.254   6.621   9.722  1.3325  0.1656  0.0637
  176SOPE  C21020021   3.299   6.585   9.516 -1.0322 -0.5086 -0.4514
  176SOPE  H10120022   3.253   6.486   9.522  0.1454 -1.1192 -1.0052
  176SOPE  C21120023   3.357   6.627   9.385 -0.2793 -0.0544  0.5787
  176SOPE  H11R20024   3.452   6.574   9.365 -0.8328 -0.5439 -0.8995
  176SOPE  H11S20025   3.381   6.736   9.385 -0.3789 -0.0310  0.8150
  176SOPE  C21220026   3.258   6.618   9.263  0.2156  0.3177  0.4691
  176SOPE  H12R20027   3.158   6.653   9.297  0.4633  0.1901  1.3530
  176SOPE  H12S20028   3.238   6.510   9.248  1.2836  0.2107 -0.2985
  176SOPE  C21320029   3.299   6.694   9.139  0.5561  0.0517  0.0673
  176SOPE  H13R20030   3.296   6.803   9.155 -0.5122  0.2513 -1.2987
  176SOPE  H13S20031   3.219   6.669   9.066  1.3749 -2.8454  0.0413
  176SOPE  C21420032   3.427   6.648   9.087  0.0891  0.3601  0.2666
  176SOPE  H14R20033   3.438   6.539   9.102 -2.7883  0.0063  0.4683
  176SOPE  H14S20034   3.509   6.702   9.138  0.0905  0.0534  0.5895
  176SOPE  C21520035   3.446   6.679   8.935  0.8388  0.3322 -0.2403
  176SOPE  H15R20036   3.376   6.608   8.886  0.0848  0.2692  0.8992
  176SOPE  H15S20037   3.552   6.653   8.915  0.9096 -0.6745  1.3016
  176SOPE  C21620038   3.413   6.824   8.892 -0.6497  0.9423 -0.1200
  176SOPE  H16R20039   3.486   6.891   8.942 -1.0856  2.3129 -1.2513
  176SOPE  H16S20040   3.316   6.868   8.922  0.2798  2.2005  1.1413
  176SOPE  C21720041   3.435   6.850   8.739  0.2022  0.2569 -0.7524
  176SOPE  H17R20042   3.352   6.798   8.688  0.2559 -0.6428  0.0381
  176SOPE  H17S20043   3.529   6.799   8.708  0.0360 -2.4816  2.5653
  176SOPE  C21820044   3.439   6.998   8.708  0.1368  0.2952  0.1779
  176SOPE  H18R20045   3.462   7.010   8.600  2.4799  2.2100  0.8074
  176SOPE  H18S20046   3.526   7.049   8.754 -0.6990  2.1676 -0.2052
  176SOPE  H18T20047   3.343   7.044   8.739 -0.4669 -1.6945  1.4301
  176SOPE   C3320048   3.841   6.722   9.964  0.4843 -0.5344 -0.4532
  176SOPE   H3X20049   3.758   6.650   9.951 -1.3768  1.3683  0.2760
  176SOPE   H3Y20050   3.942   6.676   9.965  1.2057  0.9708  0.7606
  176SOPE   C3420051   3.840   6.817   9.838  0.0869  0.0833  0.2946
  176SOPE   H4X20052   3.927   6.885   9.849 -0.6980  1.2058 -0.2238
  176SOPE   H4Y20053   3.750   6.882   9.837 -0.1462 -0.2275  0.7915
  176SOPE   C3520054   3.856   6.742   9.707  0.2450 -0.5135  0.7116
  176SOPE   H5X20055   3.780   6.661   9.706 -0.6475  0.3045 -0.6294
  176SOPE   H5Y20056   3.957   6.695   9.702 -0.3181 -1.6870 -0.2257
  176SOPE   C3620057   3.837   6.830   9.578  0.1945 -0.6109  0.0833
  176SOPE   H6X20058   3.902   6.920   9.584  0.7972 -1.0893  0.9852
  176SOPE   H6Y20059   3.731   6.864   9.575  0.4515  0.2161  0.0966
  176SOPE   C3720060   3.861   6.753   9.442  0.2475 -0.3638  0.1708
  176SOPE   H7X20061   3.948   6.684   9.446 -0.3085 -1.2126 -1.3983
  176SOPE   H7Y20062   3.892   6.826   9.364 -1.0988  1.2028  1.0365
  176SOPE   C3820063   3.735   6.685   9.396  0.3089 -0.5011 -0.9615
  176SOPE   H8X20064   3.672   6.762   9.347  0.9422 -1.5457 -3.6385
  176SOPE   H8Y20065   3.685   6.634   9.481 -0.6352 -1.1607 -1.8869
  176SOPE   C3920066   3.763   6.566   9.294  0.2435 -0.1541  0.7390
  176SOPE   H9X20067   3.662   6.528   9.268  0.5310 -0.8417  0.6170
  176SOPE   H9Y20068   3.824   6.493   9.352  0.8107  1.0315  1.6990
  176SOPE  C31020069   3.837   6.601   9.167 -0.3382 -0.2591  0.1126
  176SOPE  H10X20070   3.921   6.672   9.180  0.1614 -1.1645  2.2439
  176SOPE  H10Y20071   3.759   6.641   9.098  0.0832  0.9834  0.3301
  176SOPE  C31120072   3.900   6.479   9.095 -0.0474 -0.3834  0.4183
  176SOPE  H11X20073   3.816   6.411   9.070  0.6684 -1.2115  0.2249
  176SOPE  H11Y20074   3.969   6.429   9.166 -0.8241 -2.9160 -0.5067
  176SOPE  C31220075   3.979   6.516   8.970  0.8016  0.5859 -0.5030
  176SOPE  H12X20076   4.041   6.426   8.951  0.5816  0.1319  0.8112
  176SOPE  H12Y20077   4.050   6.601   8.977  0.8196  0.5852 -0.6913
  176SOPE  C31320078   3.895   6.547   8.850  0.5715 -0.8405  0.4013
  176SOPE  H13X20079   3.840   6.641   8.871  0.6336 -0.6498 -0.2799
  176SOPE  H13Y20080   3.813   6.473   8.837  0.2537 -0.2331 -1.2934
  176SOPE  C31420081   3.970   6.550   8.718  0.3179 -0.1228 -0.2007
  176SOPE  H14X20082   4.005   6.446   8.703  1.4859  0.3248 -0.7030
  176SOPE  H14Y20083   4.065   6.605   8.731  0.1499  0.3217 -0.7904
  176SOPE  C31520084   3.900   6.598   8.589 -0.1392 -0.7006  0.3125
  176SOPE  H15X20085   3.816   6.527   8.577  0.4468 -1.3553  0.0062
  176SOPE  H15Y20086   3.978   6.584   8.511  1.9037 -0.1936  2.1397
  176SOPE  C31620087   3.847   6.746   8.594 -0.4363 -1.0619  0.7722
  176SOPE  H16X20088   3.928   6.822   8.598 -2.1833  1.1287 -2.1846
  176SOPE  H16Y20089   3.800   6.760   8.694  2.4847 -0.1628  2.1459
  176SOPE  C31720090   3.762   6.785   8.473  0.6431 -0.5075  0.1121
  176SOPE  H17X20091   3.704   6.875   8.502 -0.2176 -1.1571  0.4306
  176SOPE  H17Y20092   3.677   6.716   8.460  0.2915 -0.0044 -0.2843
  176SOPE  C31820093   3.834   6.803   8.335  0.1747 -0.4865 -0.1268
  176SOPE  H18X20094   3.885   6.706   8.318 -1.0367 -1.8687  3.2511
  176SOPE  H18Y20095   3.922   6.870   8.351 -0.3681 -0.2214  2.2307
  176SOPE  H18Z20096   3.772   6.842   8.252 -0.0719  0.4014  0.4553
  177SOPE     N20097   2.162   3.367  11.277 -0.0146  0.1272  0.2285
  177SOPE   HN120098   2.197   3.345  11.372 -0.7407 -2.4151 -0.0085
  177SOPE   HN220099   2.212   3.322  11.197 -0.2000  0.1225  0.1129
  177SOPE   HN320100   2.161   3.468  11.255  0.9640 -0.1471 -1.2992
  177SOPE   C1220101   2.025   3.305  11.284 -0.3472  0.2166  0.0036
  177SOPE  H12A20102   1.971   3.344  11.373  0.0718  0.3815  0.1861
  177SOPE  H12B20103   2.042   3.196  11.299  1.3968  0.2272 -1.5194
  177SOPE   C1120104   1.930   3.324  11.156  0.3906  0.3092  0.2469
  177SOPE  H11A20105   1.839   3.267  11.184 -1.2143  2.0054 -1.2258
  177SOPE  H11B20106   1.973   3.267  11.072 -1.3871 -3.1120  1.4757
  177SOPE     P20107   1.976   3.567  11.054  0.4618  0.1926 -0.1098
  177SOPE   O1320108   2.112   3.564  11.109 -0.2192  0.2353  0.0515
  177SOPE   O1420109   1.904   3.696  11.060  0.2050 -0.2603  0.1121
  177SOPE   O1220110   1.892   3.459  11.125  0.1349 -0.3184  0.8675
  177SOPE   O1120111   1.983   3.507  10.908 -0.3253  0.3506 -0.0820
  177SOPE    C120112   1.868   3.499  10.822  0.2466 -0.0351  0.2166
  177SOPE    HA20113   1.776   3.546  10.863 -1.0181 -1.4019 -0.9482
  177SOPE    HB20114   1.854   3.389  10.814  0.1519 -0.0175  0.1490
  177SOPE    C220115   1.890   3.561  10.684 -0.5327 -0.0542  0.4719
  177SOPE    HS20116   1.796   3.562  10.624 -0.4910  1.1195  0.4041
  177SOPE   O2120117   1.998   3.499  10.615 -0.4857  0.2329  0.2222
  177SOPE   C2120118   1.974   3.378  10.564 -0.9004 -0.0142 -0.1548
  177SOPE   O2220119   1.872   3.315  10.569 -0.2557 -0.8584 -0.4525
  177SOPE   C2220120   2.109   3.343  10.494  0.6150  0.2228 -0.4199
  177SOPE   H2R20121   2.166   3.267  10.552 -0.3021 -1.5089 -1.6894
  177SOPE   H2S20122   2.176   3.432  10.493  0.1307  0.8622  3.8580
  177SOPE    C320123   1.927   3.713  10.708  0.2680 -0.2341  0.6932
  177SOPE    HX20124   1.999   3.724  10.791 -1.3897  2.2794  1.9114
  177SOPE    HY20125   1.835   3.759  10.752 -0.2640 -0.5955 -0.0151
  177SOPE   O3120126   1.959   3.793  10.593  0.3781 -1.3491  0.2685
  177SOPE   C3120127   2.016   3.908  10.613 -0.1356 -0.5498  0.0591
  177SOPE   O3220128   2.043   3.955  10.721 -0.0904 -0.1242 -0.5635
  177SOPE   C3220129   2.070   3.971  10.476  0.4603 -0.0961 -0.2566
  177SOPE   H2X20130   2.148   4.042  10.510  1.1145 -1.0339  0.2501
  177SOPE   H2Y20131   1.983   4.020  10.428  0.3530 -0.3076 -0.2797
  177SOPE   C2320132   2.092   3.292  10.355 -0.4900  0.0289 -0.4392
  177SOPE   H3R20133   2.004   3.224  10.351 -0.2016 -0.2799 -2.2455
  177SOPE   H3S20134   2.176   3.222  10.336 -0.3088  0.1730 -0.1877
  177SOPE   C2420135   2.093   3.412  10.249  0.3345 -0.7002 -0.2083
  177SOPE   H4R20136   2.018   3.479  10.295  0.9931 -1.9138  2.8790
  177SOPE   H4S20137   2.185   3.473  10.251 -0.1803  0.0664  0.6911
  177SOPE   C2520138   2.050   3.370  10.111 -0.1967  0.2850 -0.6234
  177SOPE   H5R20139   1.962   3.302  10.113 -1.3299  1.4226 -4.1104
  177SOPE   H5S20140   2.013   3.461  10.059 -2.3445 -0.0066  0.2949
  177SOPE   C2620141   2.165   3.310  10.031 -0.2848  0.4054  0.0967
  177SOPE   H6R20142   2.190   3.207  10.065  2.5860  0.0310 -2.6555
  177SOPE   H6S20143   2.128   3.304   9.926  1.5636 -0.5868 -0.5424
  177SOPE   C2720144   2.297   3.391  10.007 -0.1394 -0.5170 -0.7311
  177SOPE   H7R20145   2.248   3.483   9.969 -3.1142 -1.1670  1.1316
  177SOPE   H7S20146   2.346   3.406  10.106 -0.0736 -2.9395 -0.3345
  177SOPE   C2820147   2.389   3.314   9.915  0.3747 -0.2903 -0.4607
  177SOPE   H8R20148   2.393   3.211   9.958  0.9605 -0.8692 -1.8266
  177SOPE   H8S20149   2.346   3.310   9.812 -0.4865  2.8515 -0.3227
  177SOPE   C2920150   2.530   3.368   9.901 -0.5914  0.2973  0.9257
  177SOPE   H9120151   2.590   3.368   9.994 -2.1525 -0.0465  1.9681
  177SOPE  C21020152   2.596   3.400   9.788 -0.1528 -0.1710 -0.1343
  177SOPE  H10120153   2.704   3.423   9.786 -0.4678  1.3664 -0.6866
  177SOPE  C21120154   2.538   3.398   9.650  0.5568  0.6891 -0.2846
  177SOPE  H11R20155   2.442   3.453   9.649  0.2323  0.1828  1.2139
  177SOPE  H11S20156   2.505   3.293   9.633 -0.7361  1.2700 -1.6266
  177SOPE  C21220157   2.625   3.457   9.538  0.1629  0.5563 -0.4112
  177SOPE  H12R20158   2.682   3.544   9.577  2.2066 -0.0800 -1.8201
  177SOPE  H12S20159   2.550   3.486   9.461 -1.5174  2.0208  1.6546
  177SOPE  C21320160   2.703   3.343   9.475  0.1247  0.4599 -0.2622
  177SOPE  H13R20161   2.647   3.247   9.474  1.0510 -0.1177  0.7169
  177SOPE  H13S20162   2.794   3.331   9.537  0.1507  0.8687 -0.2196
  177SOPE  C21420163   2.744   3.365   9.326  0.1344  0.2905  0.5571
  177SOPE  H14R20164   2.804   3.274   9.301 -2.4295 -1.2310 -0.3922
  177SOPE  H14S20165   2.805   3.455   9.305 -0.1492 -0.1501 -2.5764
  177SOPE  C21520166   2.627   3.354   9.224 -0.8432 -0.2508 -0.5105
  177SOPE  H15R20167   2.594   3.458   9.201 -2.6639 -0.8817 -0.9179
  177SOPE  H15S20168   2.549   3.309   9.288 -0.4661  0.4008  0.4265
  177SOPE  C21620169   2.660   3.268   9.100  0.0971  0.1220  0.6594
  177SOPE  H16R20170   2.568   3.268   9.038 -0.4156  1.2869  1.3899
  177SOPE  H16S20171   2.683   3.166   9.137  0.2247  1.2579  4.0579
  177SOPE  C21720172   2.777   3.325   9.021  0.2816  0.2230 -0.5441
  177SOPE  H17R20173   2.856   3.360   9.091 -1.3261 -0.0330  1.5209
  177SOPE  H17S20174   2.747   3.411   8.957  1.0480 -0.6963 -2.2008
  177SOPE  C21820175   2.832   3.213   8.936 -0.1243  0.0709  0.3156
  177SOPE  H18R20176   2.930   3.242   8.894 -0.9443  0.3881 -1.4346
  177SOPE  H18S20177   2.765   3.203   8.849 -0.3373 -0.9950  0.5893
  177SOPE  H18T20178   2.848   3.133   9.012  0.9900  1.1573  1.2757
  177SOPE   C3320179   2.121   3.854  10.397  0.4570  0.1810 -0.1472
  177SOPE   H3X20180   2.031   3.809  10.352  1.1483 -0.6073 -0.7852
  177SOPE   H3Y20181   2.172   3.771  10.451 -0.5657 -0.6915 -0.4946
  177SOPE   C3420182   2.221   3.894  10.292  0.3657  0.6908 -0.3399
  177SOPE   H4X20183   2.303   3.941  10.351  0.6942  0.2991 -0.4787
  177SOPE   H4Y20184   2.183   3.971  10.223  1.7113  2.6211  0.9387
  177SOPE   C3520185   2.271   3.773  10.213  0.2956 -1.2139  0.0539
  177SOPE   H5X20186   2.190   3.721  10.159 -0.4316 -0.8572  0.7832
  177SOPE   H5Y20187   2.317   3.698  10.281  2.1384 -1.3106 -1.2055
  177SOPE   C3620188   2.372   3.829  10.111  0.0658 -0.7967  0.0325
  177SOPE   H6X20189   2.466   3.871  10.153  0.0942 -0.8784  0.0501
  177SOPE   H6Y20190   2.328   3.910  10.049 -0.6411 -1.4890 -0.3692
  177SOPE   C3720191   2.409   3.715  10.014  1.2830 -0.6143  0.0903
  177SOPE   H7X20192   2.309   3.691   9.972  0.9134 -0.0909  0.6463
  177SOPE   H7Y20193   2.438   3.623  10.069  0.9634 -0.6559  0.1943
  177SOPE   C3820194   2.521   3.755   9.914  0.3018 -0.5503  0.2127
  177SOPE   H8X20195   2.553   3.657   9.872  0.2281 -0.2094 -0.6614
  177SOPE   H8Y20196   2.608   3.793   9.971 -0.0311 -1.5823  1.4525
  177SOPE   C3920197   2.472   3.840   9.799  0.4107  0.0346 -0.1512
  177SOPE   H9X20198   2.431   3.937   9.835  1.3068  0.8578 -1.2811
  177SOPE   H9Y20199   2.388   3.794   9.743 -0.2938  0.9468  0.1340
  177SOPE  C31020200   2.582   3.852   9.690  0.3219  0.4097 -0.0029
  177SOPE  H10X20201   2.627   3.753   9.668  0.9006  0.8121 -0.6977
  177SOPE  H10Y20202   2.663   3.908   9.742  0.7709 -0.3657  0.1453
  177SOPE  C31120203   2.524   3.918   9.565  0.1228 -0.0917 -0.0211
  177SOPE  H11X20204   2.491   4.023   9.577  0.5186 -0.2411  3.1321
  177SOPE  H11Y20205   2.435   3.861   9.532 -1.4525  0.0888  3.5087
  177SOPE  C31220206   2.625   3.912   9.446 -0.5252 -0.0086 -0.0598
  177SOPE  H12X20207   2.579   3.942   9.349  1.8657 -0.7397 -1.5068
  177SOPE  H12Y20208   2.658   3.806   9.442 -1.9318 -0.4631  0.0263
  177SOPE  C31320209   2.744   4.001   9.454 -0.6205 -0.2046  0.3683
  177SOPE  H13X20210   2.802   3.974   9.545 -0.5807 -1.8688 -0.1227
  177SOPE  H13Y20211   2.725   4.110   9.455 -1.7143 -0.3173 -1.8982
  177SOPE  C31420212   2.846   3.970   9.336 -0.2220  0.4163 -0.1723
  177SOPE  H14X20213   2.794   3.982   9.238  0.4140 -2.1576 -0.9195
  177SOPE  H14Y20214   2.879   3.866   9.356  1.5005  0.5088 -2.1386
  177SOPE  C31520215   2.965   4.058   9.336 -0.2405 -0.5024  0.2060
  177SOPE  H15X20216   3.031   4.026   9.419  1.6006  1.3755 -0.4615
  177SOPE  H15Y20217   2.954   4.168   9.340  3.1463 -0.0236 -0.7709
  177SOPE  C31620218   3.054   4.058   9.204 -0.5904  0.4972  0.3731
  177SOPE  H16X20219   3.092   3.954   9.193 -2.3210  0.0468 -1.9079
  177SOPE  H16Y20220   3.145   4.119   9.220 -1.1910  1.3252  0.7751
  177SOPE  C31720221   2.989   4.094   9.073 -0.3251  0.2323  0.7301
  177SOPE  H17X20222   2.944   4.196   9.072  2.4687  1.6021 -2.0465
  177SOPE  H17Y20223   2.913   4.016   9.052  0.6095 -0.4337 -0.2692
  177SOPE  C31820224   3.088   4.086   8.956 -0.3348 -0.2297 -0.1715
  177SOPE  H18X20225   3.031   4.093   8.861 -0.8739  1.3024  0.2333
  177SOPE  H18Y20226   3.156   3.998   8.964  1.0337  0.9032  1.9672
  177SOPE  H18Z20227   3.159   4.171   8.971 -1.1901  0.6760 -1.1577
  178SOPE     N20228   6.555   1.061  10.969  0.1830 -0.1350  0.5017
  178SOPE   HN120229   6.533   1.159  10.942  1.4538 -0.0631 -0.3681
  178SOPE   HN220230   6.610   1.016  10.893  1.4145  2.6555 -0.3577
  178SOPE   HN320231   6.458   1.025  10.978  0.0517  0.1350  0.1621
  178SOPE   C1220232   6.619   1.069  11.101  0.4895  0.7795  0.3031
  178SOPE  H12A20233   6.668   0.971  11.117 -0.5193  0.4056  1.1628
  178SOPE  H12B20234   6.546   1.080  11.183  1.0113 -2.5418  1.3459
  178SOPE   C1120235   6.722   1.186  11.112 -0.2050  0.0420 -0.2962
  178SOPE  H11A20236   6.763   1.193  11.215 -1.5800  1.7754  0.1774
  178SOPE  H11B20237   6.668   1.281  11.092 -1.3889 -0.2014  1.5037
  178SOPE     P20238   6.900   1.268  10.945 -0.1061 -0.1949 -0.2139
  178SOPE   O1320239   7.003   1.220  10.852  0.0139  0.1478 -0.6418
  178SOPE   O1420240   6.934   1.372  11.040 -0.0896  0.4828 -0.1602
  178SOPE   O1220241   6.832   1.157  11.026  0.5422 -0.1207  0.5043
  178SOPE   O1120242   6.777   1.320  10.857 -0.1858 -0.0024  0.4177
  178SOPE    C120243   6.731   1.233  10.753 -0.1175  0.2693  0.3956
  178SOPE    HA20244   6.623   1.249  10.735  0.1319 -1.4056 -3.3516
  178SOPE    HB20245   6.751   1.125  10.772  0.3984  0.2273 -0.3345
  178SOPE    C220246   6.791   1.273  10.615  0.2468  0.8857  0.4314
  178SOPE    HS20247   6.902   1.280  10.620  0.5335 -1.5710 -0.6837
  178SOPE   O2120248   6.733   1.401  10.574  0.5018  0.0045  0.5002
  178SOPE   C2120249   6.793   1.453  10.469 -0.3752 -0.4455  0.4282
  178SOPE   O2220250   6.898   1.420  10.420 -0.0623 -0.7527 -0.0412
  178SOPE   C2220251   6.683   1.547  10.406 -0.0298  0.0360  0.3437
  178SOPE   H2R20252   6.659   1.621  10.485 -2.2341 -0.8435  0.5618
  178SOPE   H2S20253   6.588   1.491  10.390 -0.4929  0.7469  0.5920
  178SOPE    C320254   6.757   1.160  10.511 -0.7580 -0.5184 -0.0892
  178SOPE    HX20255   6.827   1.079  10.540  0.7027  1.1952  1.4011
  178SOPE    HY20256   6.786   1.207  10.414 -2.6816  0.4620 -0.2344
  178SOPE   O3120257   6.614   1.120  10.513 -0.3100  0.0352 -0.0371
  178SOPE   C3120258   6.526   1.178  10.433 -0.8585 -0.1325 -0.6226
  178SOPE   O3220259   6.559   1.265  10.355  0.8542  0.2701  0.0516
  178SOPE   C3220260   6.392   1.113  10.449 -0.1447 -0.0332  0.4046
  178SOPE   H2X20261   6.358   1.169  10.538  1.7722  1.7533  0.0740
  178SOPE   H2Y20262   6.391   1.005  10.476  1.4190 -0.2322 -0.2256
  178SOPE   C2320263   6.723   1.629  10.282 -0.2689 -0.3996  1.0473
  178SOPE   H3R20264   6.815   1.691  10.287 -1.3264  1.2872  0.5135
  178SOPE   H3S20265   6.648   1.708  10.261 -0.4414 -1.0624 -1.0632
  178SOPE   C2420266   6.729   1.552  10.144  0.8923 -0.7475 -0.4437
  178SOPE   H4R20267   6.780   1.453  10.149 -0.8182 -1.6620 -0.1609
  178SOPE   H4S20268   6.622   1.532  10.120 -0.0914  0.6589  2.3784
  178SOPE   C2520269   6.775   1.630  10.027 -0.6706 -0.1681 -0.0478
  178SOPE   H5R20270   6.751   1.738  10.035 -0.6201 -0.1914  0.4852
  178SOPE   H5S20271   6.884   1.619  10.007 -0.9245  0.3817 -1.9444
  178SOPE   C2620272   6.710   1.577   9.896  0.4350 -0.3919  0.2463
  178SOPE   H6R20273   6.695   1.467   9.889  0.6759 -0.3447 -1.5242
  178SOPE   H6S20274   6.607   1.618   9.896  0.6397  0.1247  0.3149
  178SOPE   C2720275   6.778   1.635   9.772 -0.6176 -0.5813 -0.1444
  178SOPE   H7R20276   6.794   1.744   9.790  0.3330 -0.7770  0.2699
  178SOPE   H7S20277   6.886   1.610   9.781 -0.7573 -0.5834  2.1100
  178SOPE   C2820278   6.709   1.605   9.640 -0.3798  0.7564  0.7012
  178SOPE   H8R20279   6.602   1.591   9.666 -0.3867  0.5258  0.5509
  178SOPE   H8S20280   6.725   1.689   9.570 -1.4601  0.1636 -0.2835
  178SOPE   C2920281   6.750   1.468   9.586  0.1235  0.3838  0.1006
  178SOPE   H9120282   6.790   1.394   9.657  1.4357  0.5903 -0.4047
  178SOPE  C21020283   6.739   1.431   9.458  0.1533 -0.6199 -0.4269
  178SOPE  H10120284   6.767   1.333   9.418  1.7164  0.1330 -1.2997
  178SOPE  C21120285   6.689   1.526   9.349  0.0150 -0.0345  0.1372
  178SOPE  H11R20286   6.775   1.569   9.294  0.5582  1.2138  1.8645
  178SOPE  H11S20287   6.630   1.608   9.395 -0.0125  0.4976 -0.8169
  178SOPE  C21220288   6.595   1.457   9.250  0.1700  0.4217  0.6832
  178SOPE  H12R20289   6.532   1.539   9.210  1.2012  0.8294 -0.1584
  178SOPE  H12S20290   6.526   1.401   9.316 -1.0424 -0.4471 -1.2484
  178SOPE  C21320291   6.652   1.369   9.147 -0.9533  0.5019  0.4670
  178SOPE  H13R20292   6.705   1.282   9.192 -0.0877  1.1250  0.6890
  178SOPE  H13S20293   6.737   1.414   9.091  1.0051 -0.8033  2.2401
  178SOPE  C21420294   6.549   1.306   9.044 -0.2394 -0.3384  0.3325
  178SOPE  H14R20295   6.459   1.262   9.091 -0.9565  0.3887 -0.3405
  178SOPE  H14S20296   6.600   1.219   8.997  1.5919  0.5207  0.6313
  178SOPE  C21520297   6.501   1.417   8.938  0.0309  0.0372  0.2300
  178SOPE  H15R20298   6.588   1.469   8.893 -0.2931  0.6893  0.3485
  178SOPE  H15S20299   6.439   1.495   8.987  0.8775  0.5454  0.5268
  178SOPE  C21620300   6.409   1.355   8.828 -0.4410  0.0252 -0.4689
  178SOPE  H16R20301   6.313   1.347   8.884 -0.6077 -0.5264 -0.8318
  178SOPE  H16S20302   6.443   1.252   8.805 -3.5853 -1.6984  1.8235
  178SOPE  C21720303   6.393   1.434   8.703  0.9200  0.1298  0.4158
  178SOPE  H17R20304   6.312   1.380   8.650  1.8093 -0.6218 -0.2023
  178SOPE  H17S20305   6.487   1.422   8.644 -0.3990 -0.0197 -1.7939
  178SOPE  C21820306   6.367   1.578   8.737  0.0668  0.0220 -0.6205
  178SOPE  H18R20307   6.288   1.595   8.814  0.4545  0.4250 -0.3050
  178SOPE  H18S20308   6.332   1.645   8.656 -0.3972 -0.1650 -0.5787
  178SOPE  H18T20309   6.450   1.629   8.790  0.9230 -0.7653 -1.1950
  178SOPE   C3320310   6.285   1.143  10.340  0.5933 -0.4224 -0.0823
  178SOPE   H3X20311   6.331   1.127  10.240  0.4157  1.2932 -0.4720
  178SOPE   H3Y20312   6.269   1.253  10.344 -0.6517 -0.6179  0.7141
  178SOPE   C3420313   6.154   1.063  10.354  0.1199  0.4278 -0.7996
  178SOPE   H4X20314   6.116   1.078  10.457 -0.9967  1.2457 -1.3119
  178SOPE   H4Y20315   6.189   0.958  10.355 -1.3236 -0.0658 -0.1062
  178SOPE   C3520316   6.044   1.071  10.248  0.2561  1.1797  0.1374
  178SOPE   H5X20317   6.011   1.177  10.245 -0.4713  0.9642  0.4138
  178SOPE   H5Y20318   5.949   1.020  10.272 -0.6972  2.8403  0.0879
  178SOPE   C3620319   6.086   1.019  10.111 -0.3949 -0.3746 -0.2175
  178SOPE   H6X20320   6.104   0.909  10.119  1.3073 -0.0018  1.9105
  178SOPE   H6Y20321   6.180   1.067  10.077 -1.0410 -0.2484 -1.9460
  178SOPE   C3720322   5.974   1.040  10.012 -0.1337  0.1883  1.4919
  178SOPE   H7X20323   5.907   1.125  10.035 -0.3588  0.3217  0.4233
  178SOPE   H7Y20324   5.900   0.957  10.014 -2.0387  1.7073 -0.6700
  178SOPE   C3820325   6.022   1.031   9.865  0.2750 -0.1733  0.0735
  178SOPE   H8X20326   6.102   0.957   9.844 -0.6259 -1.6340  1.5204
  178SOPE   H8Y20327   6.073   1.127   9.840  3.9623 -1.8937  0.2936
  178SOPE   C3920328   5.904   0.998   9.776  0.2002 -0.6509  1.1474
  178SOPE   H9X20329   5.811   1.049   9.808  0.2712 -0.0273  0.3858
  178SOPE   H9Y20330   5.881   0.890   9.763 -1.9343 -0.2032  0.8416
  178SOPE  C31020331   5.934   1.052   9.630 -0.2857  0.2617 -0.0291
  178SOPE  H10X20332   6.013   0.984   9.590 -1.0609 -1.2263  0.8702
  178SOPE  H10Y20333   5.981   1.152   9.643  0.0617  0.2588 -1.1535
  178SOPE  C31120334   5.818   1.052   9.526 -0.2554 -0.8380 -0.0019
  178SOPE  H11X20335   5.756   1.141   9.550 -0.5823 -0.8665 -0.7084
  178SOPE  H11Y20336   5.766   0.955   9.510 -0.6530 -0.3341 -1.9786
  178SOPE  C31220337   5.871   1.098   9.381 -0.5554 -0.4913 -0.8294
  178SOPE  H12X20338   5.920   1.196   9.396  2.1480 -1.9278  0.5325
  178SOPE  H12Y20339   5.777   1.113   9.325 -1.8070 -0.7189  1.0916
  178SOPE  C31320340   5.957   0.995   9.309 -1.0120  0.2637  0.1598
  178SOPE  H13X20341   5.893   0.912   9.271 -0.2823 -0.3164  0.1824
  178SOPE  H13Y20342   6.035   0.941   9.367 -1.6882 -2.1585 -1.0676
  178SOPE  C31420343   6.043   1.063   9.206  0.0414  0.0932  0.8265
  178SOPE  H14X20344   6.124   1.126   9.251  0.4136 -0.4761  0.9589
  178SOPE  H14Y20345   5.977   1.125   9.142 -0.7871  0.5720  2.0980
  178SOPE  C31520346   6.108   0.956   9.112  0.5320 -0.2938  0.6017
  178SOPE  H15X20347   6.033   0.881   9.079 -0.0333  0.4387  0.2033
  178SOPE  H15Y20348   6.192   0.908   9.167  0.9160 -0.4402 -0.0994
  178SOPE  C31620349   6.164   1.027   8.992 -0.3970 -0.1429 -0.0401
  178SOPE  H16X20350   6.263   0.983   8.966  1.1344  0.6776  3.6665
  178SOPE  H16Y20351   6.184   1.134   9.015 -0.9625  0.5374 -2.4062
  178SOPE  C31720352   6.085   1.031   8.865 -0.2411 -0.0136 -0.1172
  178SOPE  H17X20353   5.984   1.068   8.891  0.0311  0.0077  0.9463
  178SOPE  H17Y20354   6.079   0.929   8.822  2.3952 -1.4304  2.5257
  178SOPE  C31820355   6.152   1.117   8.757 -0.4000  0.5924 -0.4954
  178SOPE  H18X20356   6.165   1.224   8.786 -2.2954  0.7639 -0.1366
  178SOPE  H18Y20357   6.092   1.112   8.663 -0.2319 -0.7797 -0.5505
  178SOPE  H18Z20358   6.251   1.072   8.739 -0.0342  1.4017 -0.5576
  179SOPE     N20359   0.436   3.002   6.262  0.0776 -0.0022  0.0760
  179SOPE   HN120360   0.376   2.976   6.342  0.2157 -1.2664 -0.2152
  179SOPE   HN220361   0.516   3.061   6.293 -1.5514  0.7167  3.2826
  179SOPE   HN320362   0.390   3.064   6.192  0.2379 -0.8956 -0.8423
  179SOPE   C1220363   0.479   2.883   6.187 -0.2760 -0.1250  0.2949
  179SOPE  H12A20364   0.550   2.926   6.113  0.3773 -1.3443  0.1858
  179SOPE  H12B20365   0.396   2.824   6.143  0.5645  0.2656 -1.9541
  179SOPE   C1120366   0.570   2.794   6.276 -0.1688  0.6068  0.5523
  179SOPE  H11A20367   0.661   2.855   6.292  0.7037 -0.7332  0.9070
  179SOPE  H11B20368   0.603   2.697   6.232  1.0555  0.2312  2.1660
  179SOPE     P20369   0.383   2.714   6.436 -0.0953 -0.2687 -0.3268
  179SOPE   O1320370   0.380   2.579   6.383 -0.1936  0.0218  0.4167
  179SOPE   O1420371   0.283   2.817   6.389 -0.7489  0.5297  0.2769
  179SOPE   O1220372   0.516   2.772   6.408 -0.3693  0.5526  0.7988
  179SOPE   O1120373   0.389   2.708   6.596 -0.1305 -0.0809 -0.3709
  179SOPE    C120374   0.499   2.634   6.647  0.1442 -0.3297 -0.1595
  179SOPE    HA20375   0.595   2.689   6.642  0.3262 -0.7164 -1.2120
  179SOPE    HB20376   0.507   2.530   6.609 -1.0894 -0.7169  0.5708
  179SOPE    C220377   0.478   2.627   6.805 -0.6010  0.2878 -0.2704
  179SOPE    HS20378   0.573   2.588   6.849 -0.7920 -0.6033 -0.6300
  179SOPE   O2120379   0.369   2.540   6.848 -0.2696 -0.1474 -0.5538
  179SOPE   C2120380   0.396   2.409   6.843 -0.2234 -0.8445  0.0931
  179SOPE   O2220381   0.501   2.354   6.809 -0.3641 -0.0266 -0.6913
  179SOPE   C2220382   0.276   2.336   6.886  0.5011 -0.3768  1.0565
  179SOPE   H2R20383   0.266   2.254   6.812  2.0445 -1.1802  1.6818
  179SOPE   H2S20384   0.187   2.401   6.869 -0.9142 -2.7544 -1.3372
  179SOPE    C320385   0.452   2.771   6.863 -1.3362  0.2538  0.1071
  179SOPE    HX20386   0.352   2.802   6.828 -2.1885 -0.8452  1.4713
  179SOPE    HY20387   0.525   2.843   6.820 -1.7666  2.1840  2.4098
  179SOPE   O3120388   0.457   2.764   7.013 -0.2571 -0.5470 -0.6671
  179SOPE   C3120389   0.529   2.855   7.073  0.7207  0.7274  0.5204
  179SOPE   O3220390   0.594   2.945   7.019 -0.3290  0.5832  0.1184
  179SOPE   C3220391   0.537   2.823   7.219  0.2684 -0.2840 -0.1307
  179SOPE   H2X20392   0.572   2.718   7.222  1.8380  0.2190  0.1267
  179SOPE   H2Y20393   0.439   2.830   7.272  1.8835  1.0658  3.0042
  179SOPE   C2320394   0.291   2.250   7.014  0.1704 -0.2354 -0.0802
  179SOPE   H3R20395   0.374   2.177   7.003  0.9279  0.3872  1.2614
  179SOPE   H3S20396   0.195   2.195   7.024 -0.7293  1.2697  0.0254
  179SOPE   C2420397   0.327   2.333   7.142 -0.3276 -0.0790 -0.1496
  179SOPE   H4R20398   0.430   2.374   7.137 -0.3338 -0.0846 -0.3238
  179SOPE   H4S20399   0.253   2.417   7.149 -1.3414 -0.9330 -0.3319
  179SOPE   C2520400   0.312   2.242   7.273  0.7930  0.3333 -0.4828
  179SOPE   H5R20401   0.217   2.186   7.257 -0.2648  1.8035  0.3328
  179SOPE   H5S20402   0.394   2.167   7.279 -0.4452 -0.9679  1.8452
  179SOPE   C2620403   0.310   2.328   7.399  0.4946 -0.4232  0.1051
  179SOPE   H6R20404   0.395   2.399   7.388  1.8177 -2.0862 -1.2718
  179SOPE   H6S20405   0.212   2.379   7.403  0.1647 -0.8836 -1.3149
  179SOPE   C2720406   0.318   2.249   7.530  0.1493 -0.3947 -0.0979
  179SOPE   H7R20407   0.249   2.165   7.507  2.7834 -2.4027 -1.1975
  179SOPE   H7S20408   0.422   2.212   7.541  0.3954  0.6697  1.5824
  179SOPE   C2820409   0.282   2.330   7.655  0.0648 -0.5231 -0.1971
  179SOPE   H8R20410   0.181   2.376   7.646  0.4381  0.6154  1.0541
  179SOPE   H8S20411   0.256   2.260   7.737  0.3102 -3.4363 -2.4429
  179SOPE   C2920412   0.393   2.431   7.691  0.4975  0.0443  0.7404
  179SOPE   H9120413   0.445   2.471   7.603  1.1929 -2.8117 -0.2577
  179SOPE  C21020414   0.439   2.462   7.809  0.0443 -0.6485 -0.1545
  179SOPE  H10120415   0.515   2.540   7.821  0.0012 -0.7708  1.0661
  179SOPE  C21120416   0.391   2.414   7.944 -0.2348  0.7622 -0.2160
  179SOPE  H11R20417   0.326   2.326   7.930 -1.4257  1.5311  0.3762
  179SOPE  H11S20418   0.337   2.496   7.997  0.2852  0.8170  0.2413
  179SOPE  C21220419   0.495   2.379   8.055  0.3570  0.6277  0.1200
  179SOPE  H12R20420   0.559   2.469   8.068  1.5624  0.0845 -1.6963
  179SOPE  H12S20421   0.552   2.288   8.025 -0.4138 -0.2905  1.3437
  179SOPE  C21320422   0.424   2.348   8.189  0.9464  0.5596  0.0392
  179SOPE  H13R20423   0.378   2.247   8.181  3.1825 -0.5814  0.7027
  179SOPE  H13S20424   0.335   2.414   8.198 -1.3058 -2.5960  3.6359
  179SOPE  C21420425   0.519   2.352   8.313 -0.4087  0.4979  0.5784
  179SOPE  H14R20426   0.553   2.456   8.333  0.5840  0.7686 -2.1028
  179SOPE  H14S20427   0.605   2.287   8.286 -1.2229  0.1565 -1.3269
  179SOPE  C21520428   0.459   2.311   8.450  0.1791 -0.7731  0.2952
  179SOPE  H15R20429   0.530   2.294   8.534 -0.8000  0.9327  1.5381
  179SOPE  H15S20430   0.400   2.217   8.437  0.8545 -1.2267  0.4725
  179SOPE  C21620431   0.362   2.419   8.505  0.3949 -0.2547 -0.1298
  179SOPE  H16R20432   0.281   2.448   8.434  0.0720 -1.5147 -0.3045
  179SOPE  H16S20433   0.407   2.516   8.535 -1.0588 -0.3648  2.7954
  179SOPE  C21720434   0.286   2.375   8.630 -0.4620 -0.2478 -0.8932
  179SOPE  H17R20435   0.364   2.378   8.709 -0.1458  1.7583 -1.2419
  179SOPE  H17S20436   0.238   2.275   8.619  1.3960 -1.4430  1.0691
  179SOPE  C21820437   0.178   2.478   8.675 -0.0699  0.2233  0.2369
  179SOPE  H18R20438   0.237   2.571   8.660  1.0355 -0.7802 -2.1277
  179SOPE  H18S20439   0.158   2.469   8.784  2.4133  0.9304  0.8188
  179SOPE  H18T20440   0.089   2.471   8.609  0.0923 -1.0786  0.1234
  179SOPE   C3320441   0.635   2.907   7.296  0.0937  0.7089 -0.6647
  179SOPE   H3X20442   0.590   3.007   7.316 -0.3593  0.4230 -0.2307
  179SOPE   H3Y20443   0.726   2.915   7.231  1.4776 -3.1074  0.5807
  179SOPE   C3420444   0.681   2.863   7.437 -0.3875 -0.0228  0.4315
  179SOPE   H4X20445   0.777   2.914   7.459  0.2622 -0.6256 -0.8711
  179SOPE   H4Y20446   0.700   2.754   7.425 -0.2097 -0.0107  0.5999
  179SOPE   C3520447   0.584   2.900   7.548  0.2459 -0.4759 -0.2801
  179SOPE   H5X20448   0.493   2.838   7.536  0.8982 -1.1636 -1.8538
  179SOPE   H5Y20449   0.556   3.007   7.547  0.8557 -0.3163 -1.6803
  179SOPE   C3620450   0.637   2.872   7.691  0.6026 -0.5326 -0.1896
  179SOPE   H6X20451   0.725   2.939   7.701 -0.0174  0.2633  0.0433
  179SOPE   H6Y20452   0.661   2.764   7.700  1.9082 -0.3256 -0.9348
  179SOPE   C3720453   0.537   2.913   7.807 -0.2203  0.5235  0.4915
  179SOPE   H7X20454   0.456   2.838   7.792  0.5046  0.0397 -1.0907
  179SOPE   H7Y20455   0.511   3.018   7.784  1.6759  0.7219 -0.9780
  179SOPE   C3820456   0.608   2.903   7.945 -0.1904  0.2115  0.3533
  179SOPE   H8X20457   0.690   2.978   7.941 -0.3669  0.3745 -0.2159
  179SOPE   H8Y20458   0.657   2.805   7.964  1.7163  0.9443 -0.5630
  179SOPE   C3920459   0.502   2.928   8.060  0.3958 -0.2205  0.9483
  179SOPE   H9X20460   0.441   3.016   8.032  0.2819  0.2217  2.5069
  179SOPE   H9Y20461   0.552   2.962   8.153  0.6829  0.6205  0.4983
  179SOPE  C31020462   0.412   2.804   8.102 -0.0799 -0.1573 -0.3731
  179SOPE  H10X20463   0.480   2.721   8.132  1.1183  1.2238  0.8826
  179SOPE  H10Y20464   0.353   2.772   8.013  4.1546 -0.8261 -3.2485
  179SOPE  C31120465   0.332   2.836   8.232  0.3580 -1.0378 -0.5809
  179SOPE  H11X20466   0.255   2.910   8.200 -1.0490 -1.9959  0.4749
  179SOPE  H11Y20467   0.400   2.883   8.306  0.0495 -1.8146  0.2069
  179SOPE  C31220468   0.258   2.720   8.301 -0.0393 -0.4361 -0.3880
  179SOPE  H12X20469   0.344   2.659   8.337  0.1686  0.7425  1.2093
  179SOPE  H12Y20470   0.207   2.648   8.233 -1.4932  1.3375 -1.2388
  179SOPE  C31320471   0.169   2.750   8.427 -0.1571  0.8184 -0.0984
  179SOPE  H13X20472   0.222   2.815   8.499  0.5316 -1.1915  1.3086
  179SOPE  H13Y20473   0.152   2.650   8.474 -1.7504  0.0625 -2.1469
  179SOPE  C31420474   0.028   2.809   8.400 -0.0580 -0.4822  0.3865
  179SOPE  H14X20475  -0.027   2.738   8.334 -0.5008  1.0877 -0.9910
  179SOPE  H14Y20476   0.036   2.910   8.354 -0.2040  0.6363  2.6508
  179SOPE  C31520477  -0.067   2.838   8.522  0.4797  0.2335  0.4632
  179SOPE  H15X20478  -0.029   2.917   8.589  0.5707 -2.0120  3.2405
  179SOPE  H15Y20479  -0.080   2.744   8.580  1.2922  0.8754  1.7381
  179SOPE  C31620480  -0.210   2.869   8.475  0.1421 -0.0446 -0.1458
  179SOPE  H16X20481  -0.249   2.795   8.402 -0.2714 -0.2141  0.2429
  179SOPE  H16Y20482  -0.222   2.961   8.414  0.5073  0.0889 -0.0236
  179SOPE  C31720483  -0.315   2.880   8.591 -1.7060 -0.0392 -0.5503
  179SOPE  H17X20484  -0.301   2.975   8.646  2.0333 -1.6172  1.5937
  179SOPE  H17Y20485  -0.267   2.814   8.666 -2.0281  2.9967  2.5800
  179SOPE  C31820486  -0.457   2.844   8.555 -0.4175  0.2930 -0.0092
  179SOPE  H18X20487  -0.464   2.753   8.491  1.5034  1.3782 -1.9212
  179SOPE  H18Y20488  -0.508   2.925   8.499  1.0464  1.0894 -0.2287
  179SOPE  H18Z20489  -0.516   2.828   8.647  0.4882 -0.5537  0.4545
  180SOPE     N20490   5.236   4.366   6.345 -0.7539  0.3608 -0.1392
  180SOPE   HN120491   5.156   4.433   6.343 -1.7598 -0.7514  0.8874
  180SOPE   HN220492   5.326   4.417   6.344 -0.7091  0.3078 -2.0060
  180SOPE   HN320493   5.224   4.303   6.264 -1.4003  1.1095 -0.6528
  180SOPE   C1220494   5.219   4.283   6.468  0.4660 -0.5103 -0.0912
  180SOPE  H12A20495   5.129   4.218   6.454  0.1393 -0.2549  0.7770
  180SOPE  H12B20496   5.201   4.351   6.554 -2.7716  0.8941 -1.7025
  180SOPE   C1120497   5.339   4.197   6.478  0.4807  0.6085  0.0668
  180SOPE  H11A20498   5.321   4.129   6.565  3.7234 -1.9079 -1.0115
  180SOPE  H11B20499   5.421   4.260   6.517 -0.1979  0.8069  1.2179
  180SOPE     P20500   5.335   3.983   6.330  0.3528  0.1322 -0.2798
  180SOPE   O1320501   5.391   3.937   6.206  0.1003 -0.7555  0.1272
  180SOPE   O1420502   5.190   3.952   6.356 -0.0756 -0.3685 -0.2404
  180SOPE   O1220503   5.374   4.132   6.356  0.2392 -0.1140  0.3401
  180SOPE   O1120504   5.413   3.912   6.450 -0.1184  0.2397  0.2774
  180SOPE    C120505   5.554   3.889   6.439  0.2188  0.2040  0.9053
  180SOPE    HA20506   5.604   3.982   6.404  0.5297 -0.1810  0.3048
  180SOPE    HB20507   5.589   3.812   6.367  2.5873  1.6234  0.4289
  180SOPE    C220508   5.614   3.872   6.583 -0.0348  0.9988  0.5125
  180SOPE    HS20509   5.722   3.854   6.566  0.3224  0.9840  2.5823
  180SOPE   O2120510   5.552   3.755   6.637  0.0825 -0.4100  0.0068
  180SOPE   C2120511   5.618   3.669   6.708 -0.7494  0.1893  0.1671
  180SOPE   O2220512   5.735   3.681   6.742 -0.2250 -0.3407 -0.2124
  180SOPE   C2220513   5.521   3.553   6.743 -0.7727  0.1063  0.4182
  180SOPE   H2R20514   5.583   3.467   6.776  1.7316  1.5951 -0.2275
  180SOPE   H2S20515   5.473   3.533   6.645  1.3142  1.8529 -1.0291
  180SOPE    C320516   5.591   3.989   6.676  0.4898  0.1569  0.4112
  180SOPE    HX20517   5.484   3.991   6.705 -0.5035 -1.8186 -2.6953
  180SOPE    HY20518   5.605   4.089   6.630 -1.0648 -0.3761 -1.3331
  180SOPE   O3120519   5.663   3.967   6.797 -0.3223 -0.0999 -0.1999
  180SOPE   C3120520   5.786   4.013   6.787 -0.5069  0.4019  0.7427
  180SOPE   O3220521   5.832   4.070   6.694  0.1223  0.0752  1.0118
  180SOPE   C3220522   5.876   3.957   6.903 -0.4341  0.1905  0.3464
  180SOPE   H2X20523   5.929   3.868   6.863 -1.0023  0.1383 -0.3026
  180SOPE   H2Y20524   5.808   3.921   6.983  0.3567 -0.9546  0.5363
  180SOPE   C2320525   5.437   3.601   6.857  0.7817 -0.4065 -1.0038
  180SOPE   H3R20526   5.364   3.523   6.889  0.6931  0.6599  1.6471
  180SOPE   H3S20527   5.380   3.692   6.827  2.5216  0.8118 -0.7249
  180SOPE   C2420528   5.522   3.633   6.983  0.7778  0.8122 -0.0116
  180SOPE   H4R20529   5.620   3.580   6.991  0.1942 -0.0319  2.0578
  180SOPE   H4S20530   5.547   3.741   6.986  0.4071  0.9518 -1.3067
  180SOPE   C2520531   5.455   3.601   7.115  0.3872 -0.1314 -0.3309
  180SOPE   H5R20532   5.362   3.662   7.126  1.2241  0.7266  2.8637
  180SOPE   H5S20533   5.421   3.497   7.094  1.2061 -0.6399  0.7802
  180SOPE   C2620534   5.535   3.600   7.240  0.0308 -0.1030 -0.0506
  180SOPE   H6R20535   5.601   3.514   7.266 -2.2693 -1.7752  0.5758
  180SOPE   H6S20536   5.605   3.686   7.239  0.0433  0.0399  3.0727
  180SOPE   C2720537   5.442   3.628   7.362  0.3745 -0.1060 -0.5009
  180SOPE   H7R20538   5.413   3.736   7.367  0.6211 -0.0924  2.7099
  180SOPE   H7S20539   5.352   3.563   7.364  0.0491  0.3449  0.6228
  180SOPE   C2820540   5.512   3.602   7.501  0.1110 -0.0170  0.0668
  180SOPE   H8R20541   5.540   3.494   7.502  4.2063  0.8853 -0.4770
  180SOPE   H8S20542   5.618   3.635   7.502  0.2997 -0.5246 -1.2496
  180SOPE   C2920543   5.432   3.646   7.618 -0.8123 -0.0214 -0.5712
  180SOPE   H9120544   5.421   3.755   7.622  2.0257  0.3392 -0.2533
  180SOPE  C21020545   5.377   3.578   7.720  0.0608  0.6367  0.4205
  180SOPE  H10120546   5.332   3.638   7.800 -1.6266 -2.2593  1.8053
  180SOPE  C21120547   5.373   3.427   7.737  0.3472 -0.0714  0.7231
  180SOPE  H11R20548   5.429   3.368   7.661  1.9197 -2.2720  3.4245
  180SOPE  H11S20549   5.266   3.402   7.724  0.6989 -1.5607  0.5494
  180SOPE  C21220550   5.411   3.380   7.879 -0.3896  0.0500 -0.1139
  180SOPE  H12R20551   5.380   3.460   7.950 -0.8098  2.1973 -2.5413
  180SOPE  H12S20552   5.521   3.370   7.893 -0.6294  0.6000  2.8882
  180SOPE  C21320553   5.337   3.251   7.929 -0.4003  0.1649 -0.3481
  180SOPE  H13R20554   5.350   3.174   7.850 -0.5718 -0.5472  0.3011
  180SOPE  H13S20555   5.226   3.259   7.933 -0.8502 -3.0432 -2.3614
  180SOPE  C21420556   5.409   3.185   8.059  0.6060 -0.9178  0.2575
  180SOPE  H14R20557   5.384   3.258   8.139 -0.1675 -1.5125  0.5743
  180SOPE  H14S20558   5.520   3.187   8.049  0.4604 -0.2562 -1.4573
  180SOPE  C21520559   5.365   3.041   8.086  0.9257 -0.0559 -0.2096
  180SOPE  H15R20560   5.372   2.993   7.986  0.4304 -2.9838  1.0527
  180SOPE  H15S20561   5.259   3.036   8.121  1.5198  0.3345  1.7702
  180SOPE  C21620562   5.444   2.960   8.192 -0.0166  0.3255 -0.3120
  180SOPE  H16R20563   5.444   3.006   8.293 -1.2992 -0.2762 -0.0227
  180SOPE  H16S20564   5.550   2.942   8.163 -0.4522 -0.9534 -1.1995
  180SOPE  C21720565   5.377   2.821   8.222 -0.1301  0.4619  0.0204
  180SOPE  H17R20566   5.267   2.822   8.209 -0.1350 -2.2863 -0.5786
  180SOPE  H17S20567   5.410   2.780   8.320 -0.1535 -1.3474 -0.7059
  180SOPE  C21820568   5.426   2.707   8.129  0.1804  0.5978 -0.4751
  180SOPE  H18R20569   5.532   2.689   8.156  0.2805  1.3649 -0.3490
  180SOPE  H18S20570   5.419   2.737   8.022 -0.6382 -3.0766 -1.6175
  180SOPE  H18T20571   5.358   2.620   8.147 -0.0785  0.5714 -1.5045
  180SOPE   C3320572   5.983   4.063   6.957  0.5319 -0.4213 -0.1580
  180SOPE   H3X20573   5.922   4.152   6.984  2.6330  1.0196  0.0699
  180SOPE   H3Y20574   6.040   4.075   6.862  0.5997 -2.9312 -0.5155
  180SOPE   C3420575   6.060   4.019   7.080  0.2140  0.6174  0.7763
  180SOPE   H4X20576   6.144   4.092   7.091 -0.8995  2.1752 -0.4819
  180SOPE   H4Y20577   6.104   3.922   7.049 -2.4466 -1.1336  2.1082
  180SOPE   C3520578   5.974   4.003   7.205 -0.2418  0.0484  0.8683
  180SOPE   H5X20579   5.905   3.917   7.187  0.5329 -0.4160  0.0039
  180SOPE   H5Y20580   5.916   4.098   7.201  1.4342  1.0784 -1.3385
  180SOPE   C3620581   6.052   3.997   7.333  0.8443  0.1921  0.2343
  180SOPE   H6X20582   6.122   4.083   7.340  0.5611  0.5531 -1.0853
  180SOPE   H6Y20583   6.119   3.908   7.332 -0.9106 -1.2401 -2.1594
  180SOPE   C3720584   5.959   4.007   7.458  0.1848 -0.1351  0.0346
  180SOPE   H7X20585   5.873   3.939   7.439 -1.2683  1.0234  1.9757
  180SOPE   H7Y20586   5.910   4.106   7.445 -0.9954 -0.8192 -0.9967
  180SOPE   C3820587   6.021   3.975   7.593 -0.0887 -0.7467 -0.2856
  180SOPE   H8X20588   6.103   4.040   7.631 -0.6472  0.1466 -0.5477
  180SOPE   H8Y20589   6.075   3.879   7.591  1.1000 -0.1759  1.9650
  180SOPE   C3920590   5.914   3.980   7.704  0.1697  0.2824 -0.1097
  180SOPE   H9X20591   5.823   3.919   7.685 -0.1519 -0.0540  2.1606
  180SOPE   H9Y20592   5.873   4.082   7.715  1.2316  0.6073  1.1461
  180SOPE  C31020593   5.962   3.934   7.837  0.0842  0.4046 -0.0437
  180SOPE  H10X20594   6.041   4.006   7.867  0.9479 -0.1085 -1.0107
  180SOPE  H10Y20595   6.007   3.833   7.833 -1.3655 -0.3159  1.0668
  180SOPE  C31120596   5.849   3.933   7.939  0.3535  0.4210 -0.6156
  180SOPE  H11X20597   5.775   3.862   7.897 -0.2722  0.2235  0.7524
  180SOPE  H11Y20598   5.807   4.035   7.956 -0.6558  0.2599 -1.9836
  180SOPE  C31220599   5.889   3.878   8.073  1.0238  0.3802 -0.3701
  180SOPE  H12X20600   5.972   3.931   8.126  0.7472  0.2502  0.2066
  180SOPE  H12Y20601   5.922   3.773   8.064  0.6914  0.2793 -0.4143
  180SOPE  C31320602   5.778   3.875   8.184 -0.5107 -1.1429 -0.5462
  180SOPE  H13X20603   5.676   3.846   8.149 -1.6925  3.9214 -2.0346
  180SOPE  H13Y20604   5.759   3.982   8.207  2.1897 -0.4111 -1.3234
  180SOPE  C31420605   5.826   3.807   8.318  0.5623 -0.1160 -0.0164
  180SOPE  H14X20606   5.936   3.803   8.308  0.4000 -1.1550 -1.6962
  180SOPE  H14Y20607   5.788   3.703   8.320  1.2765 -0.3768 -0.1219
  180SOPE  C31520608   5.782   3.881   8.446  0.1391 -0.1508 -0.7811
  180SOPE  H15X20609   5.845   3.972   8.443  2.2153 -1.4650  0.5284
  180SOPE  H15Y20610   5.817   3.830   8.538 -0.9354  0.9645  0.2631
  180SOPE  C31620611   5.630   3.897   8.461  0.3607  0.2457  0.2666
  180SOPE  H16X20612   5.575   3.801   8.447  0.0433  0.3495  0.7611
  180SOPE  H16Y20613   5.600   3.958   8.373 -2.0999  1.3301  1.7247
  180SOPE  C31720614   5.586   3.958   8.593 -0.2373  0.3364  0.2653
  180SOPE  H17X20615   5.644   4.043   8.633  1.5341 -1.7379  2.4184
  180SOPE  H17Y20616   5.595   3.887   8.678 -0.7119  0.4332  0.4000
  180SOPE  C31820617   5.432   3.974   8.594 -0.5517 -0.0616 -0.3576
  180SOPE  H18X20618   5.372   3.888   8.557 -2.0278  0.4449  0.7650
  180SOPE  H18Y20619   5.409   4.065   8.536  4.4381  1.8637  0.1858
  180SOPE  H18Z20620   5.407   3.996   8.700  1.2672  0.0052  0.0867
  181SOPE     N20621   6.714   5.967   5.921 -0.3528  0.1619  0.0985
  181SOPE   HN120622   6.766   5.883   5.954 -0.2114  0.6620  1.2026
  181SOPE   HN220623   6.612   5.962   5.945 -0.3019 -1.6882  0.1076
  181SOPE   HN320624   6.732   5.963   5.819  0.5755 -1.9254  0.2826
  181SOPE   C1220625   6.787   6.088   5.971  0.4667 -1.2871 -0.4101
  181SOPE  H12A20626   6.757   6.178   5.913  2.1735  0.4052  1.1899
  181SOPE  H12B20627   6.896   6.070   5.960  0.8923 -1.1033  2.6277
  181SOPE   C1120628   6.760   6.117   6.120 -1.0096  0.2003  0.5900
  181SOPE  H11A20629   6.651   6.133   6.128 -1.2847 -1.3616  0.2965
  181SOPE  H11B20630   6.810   6.215   6.139 -1.9014  1.2439 -1.9447
  181SOPE     P20631   6.952   6.028   6.288 -0.2004 -0.4410  0.9546
  181SOPE   O1320632   7.043   6.115   6.204 -0.0339  0.0888 -0.2213
  181SOPE   O1420633   7.002   5.897   6.334 -0.0450  0.3894  0.0081
  181SOPE   O1220634   6.820   6.013   6.203  0.1000  0.4536  0.8530
  181SOPE   O1120635   6.892   6.109   6.411  0.1633  0.3914  0.1486
  181SOPE    C120636   6.937   6.232   6.461  0.2346 -0.7132 -0.0023
  181SOPE    HA20637   6.863   6.274   6.532  1.3525  1.6844 -0.1759
  181SOPE    HB20638   6.949   6.310   6.383  0.0688 -1.5202 -0.8582
  181SOPE    C220639   7.068   6.221   6.552  0.4844  0.6826 -0.1518
  181SOPE    HS20640   7.142   6.171   6.486  0.9703  1.0461  0.1099
  181SOPE   O2120641   7.041   6.143   6.669  0.2027 -0.3137  0.3357
  181SOPE   C2120642   7.148   6.092   6.731  0.0667 -0.3071 -0.8801
  181SOPE   O2220643   7.268   6.121   6.716 -0.0089  0.1078 -0.1532
  181SOPE   C2220644   7.111   5.981   6.834 -0.0925 -0.1689 -0.5948
  181SOPE   H2R20645   7.107   5.881   6.788  2.1199 -0.3314 -0.5145
  181SOPE   H2S20646   7.013   6.009   6.879  0.1482  1.8675 -1.2132
  181SOPE    C320647   7.125   6.359   6.587  0.2961 -0.3776 -0.0892
  181SOPE    HX20648   7.168   6.403   6.494  1.7170 -1.5060  0.0127
  181SOPE    HY20649   7.213   6.342   6.652  1.1407  0.2990 -1.0234
  181SOPE   O3120650   7.023   6.444   6.642  0.0022 -0.4763 -0.0541
  181SOPE   C3120651   7.020   6.463   6.771  0.5003 -1.5190 -0.4031
  181SOPE   O3220652   7.099   6.411   6.853 -0.0520 -0.4058  0.1150
  181SOPE   C3220653   6.908   6.566   6.799  0.2511 -0.7827 -0.6133
  181SOPE   H2X20654   6.812   6.522   6.763 -0.5761 -0.5467  1.1519
  181SOPE   H2Y20655   6.943   6.663   6.758 -3.0099  0.3854 -0.9356
  181SOPE   C2320656   7.214   5.978   6.949 -0.0216 -0.5698  0.8326
  181SOPE   H3R20657   7.310   5.987   6.894 -0.8219  2.2072 -0.3173
  181SOPE   H3S20658   7.194   5.887   7.009 -1.6142 -1.6521 -1.2411
  181SOPE   C2420659   7.208   6.096   7.046 -0.2396  0.3695  0.0820
  181SOPE   H4R20660   7.233   6.192   6.997  1.3386  0.0149  0.1502
  181SOPE   H4S20661   7.106   6.105   7.090  0.2546  3.3526  0.8632
  181SOPE   C2520662   7.303   6.073   7.168  0.0939  0.8416 -0.4407
  181SOPE   H5R20663   7.270   5.980   7.218  0.6612  1.6784  1.5554
  181SOPE   H5S20664   7.407   6.055   7.134  0.0172  0.7156 -0.6096
  181SOPE   C2620665   7.300   6.194   7.259 -0.1478 -0.4680  0.2789
  181SOPE   H6R20666   7.338   6.279   7.198  1.8140  0.5926  2.8025
  181SOPE   H6S20667   7.198   6.232   7.279 -0.3454 -0.1724 -1.2113
  181SOPE   C2720668   7.397   6.180   7.379  0.2251  0.3116 -0.6309
  181SOPE   H7R20669   7.481   6.113   7.353 -0.9216 -1.1726 -0.6247
  181SOPE   H7S20670   7.434   6.280   7.413 -1.5032  0.5734  0.6111
  181SOPE   C2820671   7.330   6.111   7.495 -0.4519 -0.1301  0.1564
  181SOPE   H8R20672   7.231   6.161   7.488 -1.4197 -1.4493  2.8813
  181SOPE   H8S20673   7.313   6.002   7.479 -1.6924 -0.0582  0.8433
  181SOPE   C2920674   7.385   6.123   7.633  0.0131  1.0016  0.1959
  181SOPE   H9120675   7.479   6.069   7.650 -0.5540 -0.8363 -2.0480
  181SOPE  C21020676   7.339   6.193   7.738  0.0243 -0.4236 -0.5083
  181SOPE  H10120677   7.396   6.190   7.832  1.9430 -0.7991 -1.6140
  181SOPE  C21120678   7.220   6.288   7.742 -0.8277  0.7575  0.7753
  181SOPE  H11R20679   7.167   6.267   7.837 -0.3507  1.6182  1.2347
  181SOPE  H11S20680   7.145   6.261   7.664 -1.3499  0.3564  1.4034
  181SOPE  C21220681   7.242   6.432   7.750 -0.5401  0.3843  0.4857
  181SOPE  H12R20682   7.154   6.500   7.749 -1.7309 -1.0847 -0.8638
  181SOPE  H12S20683   7.293   6.464   7.658 -2.5159 -0.1245 -0.8608
  181SOPE  C21320684   7.326   6.476   7.875  0.1699  0.2335  0.1985
  181SOPE  H13R20685   7.341   6.585   7.858  3.2350 -0.4354 -2.1883
  181SOPE  H13S20686   7.421   6.419   7.878  1.2764  1.9284 -0.7216
  181SOPE  C21420687   7.266   6.439   8.013  0.2394 -0.6173  0.3180
  181SOPE  H14R20688   7.246   6.329   8.014 -0.3626 -0.6012 -2.4194
  181SOPE  H14S20689   7.167   6.484   8.033 -0.5497 -1.9617 -0.3796
  181SOPE  C21520690   7.360   6.487   8.132 -0.3107 -0.0239 -0.1453
  181SOPE  H15R20691   7.382   6.593   8.107 -0.2992 -0.2893 -1.2955
  181SOPE  H15S20692   7.454   6.429   8.125 -0.5374 -0.3823 -0.2660
  181SOPE  C21620693   7.296   6.470   8.267 -0.3428 -0.6151 -0.2793
  181SOPE  H16R20694   7.285   6.362   8.290 -0.6751 -0.4609  0.3167
  181SOPE  H16S20695   7.194   6.514   8.265 -0.6237 -1.2814 -0.6209
  181SOPE  C21720696   7.374   6.538   8.383 -0.5929 -0.3133  0.5978
  181SOPE  H17R20697   7.468   6.480   8.400  2.0342  3.4363 -0.0524
  181SOPE  H17S20698   7.295   6.556   8.459 -1.4526  3.3111 -0.9862
  181SOPE  C21820699   7.421   6.684   8.360 -0.0046 -0.8051 -0.4093
  181SOPE  H18R20700   7.513   6.682   8.299 -1.6349 -1.2667 -3.0204
  181SOPE  H18S20701   7.459   6.727   8.455 -1.8017  1.1062 -0.4700
  181SOPE  H18T20702   7.341   6.750   8.319  0.8790  0.2892 -0.4068
  181SOPE   C3320703   6.877   6.578   6.955 -0.3603  0.2251 -0.6732
  181SOPE   H3X20704   6.969   6.577   7.018 -1.4439  0.2711  0.9625
  181SOPE   H3Y20705   6.834   6.477   6.974 -0.7750  0.4288 -0.5083
  181SOPE   C3420706   6.779   6.691   7.008 -0.2030 -0.1247  0.8416
  181SOPE   H4X20707   6.763   6.684   7.117  1.3896  0.3318  1.1273
  181SOPE   H4Y20708   6.681   6.674   6.958  1.3763 -3.5269 -1.4970
  181SOPE   C3520709   6.834   6.837   6.972  0.5638  0.1864 -0.0782
  181SOPE   H5X20710   6.843   6.840   6.861  0.6484 -0.9416 -0.1081
  181SOPE   H5Y20711   6.935   6.866   7.008  0.7249  1.2768 -1.3162
  181SOPE   C3620712   6.739   6.948   7.026 -0.1464  0.2140  0.4208
  181SOPE   H6X20713   6.640   6.932   6.979 -0.8039  2.8949  0.7824
  181SOPE   H6Y20714   6.780   7.049   7.004 -2.2021  0.6481 -1.8789
  181SOPE   C3720715   6.721   6.929   7.175 -0.0762 -0.2307 -0.4429
  181SOPE   H7X20716   6.815   6.913   7.232 -0.4722  1.1189  0.6288
  181SOPE   H7Y20717   6.648   6.847   7.192 -1.2526  0.9724  0.5042
  181SOPE   C3820718   6.658   7.055   7.236 -0.2355  0.2216  0.3578
  181SOPE   H8X20719   6.565   7.090   7.185 -0.0202 -1.4660 -1.2998
  181SOPE   H8Y20720   6.731   7.139   7.230 -1.7136  1.5117 -0.5127
  181SOPE   C3920721   6.632   7.045   7.389  0.5993  0.3333 -0.1869
  181SOPE   H9X20722   6.561   6.963   7.413 -0.1132  0.6634 -1.1244
  181SOPE   H9Y20723   6.591   7.147   7.409  0.4756 -0.1222  2.1907
  181SOPE  C31020724   6.768   7.022   7.462 -0.0091 -0.2005 -0.5514
  181SOPE  H10X20725   6.842   7.100   7.436  0.6468  0.4531  2.8541
  181SOPE  H10Y20726   6.804   6.922   7.431 -1.6823 -0.9888 -0.0782
  181SOPE  C31120727   6.749   7.014   7.614  0.2676  0.8775 -0.4572
  181SOPE  H11X20728   6.847   6.993   7.664 -0.4372 -1.5442  0.0455
  181SOPE  H11Y20729   6.680   6.935   7.649  0.7898 -0.6836 -2.7788
  181SOPE  C31220730   6.708   7.152   7.670 -0.5003  0.7874  0.6012
  181SOPE  H12X20731   6.600   7.160   7.649 -0.0321  0.7091 -2.2113
  181SOPE  H12Y20732   6.761   7.228   7.608 -1.0875 -1.0731 -2.3910
  181SOPE  C31320733   6.728   7.166   7.818 -0.0205  0.1612  0.8548
  181SOPE  H13X20734   6.754   7.273   7.834  0.6992  0.3656 -1.2978
  181SOPE  H13Y20735   6.807   7.097   7.855 -0.0703  0.0365  0.7302
  181SOPE  C31420736   6.596   7.128   7.883 -0.2241  0.4929  0.4466
  181SOPE  H14X20737   6.537   7.046   7.837  0.1916 -1.2269  2.8004
  181SOPE  H14Y20738   6.521   7.210   7.870 -0.7215 -0.1891 -1.2773
  181SOPE  C31520739   6.621   7.104   8.034  0.0544 -0.0918  0.2781
  181SOPE  H15X20740   6.684   7.013   8.048  0.6796  0.0805 -1.1686
  181SOPE  H15Y20741   6.522   7.091   8.083  0.0244 -0.4612  0.1268
  181SOPE  C31620742   6.691   7.217   8.116 -0.0652 -0.2142  0.5967
  181SOPE  H16X20743   6.675   7.314   8.064  1.3369  1.1806  2.6021
  181SOPE  H16Y20744   6.800   7.198   8.106  0.0611  1.4320 -2.2286
  181SOPE  C31720745   6.641   7.232   8.258 -0.1856  0.3678 -0.5176
  181SOPE  H17X20746   6.533   7.259   8.264 -0.2690 -0.2094  0.9058
  181SOPE  H17Y20747   6.697   7.314   8.308 -0.5307 -0.6611  1.6980
  181SOPE  C31820748   6.656   7.102   8.352 -0.3994 -0.6728 -0.0630
  181SOPE  H18X20749   6.635   7.145   8.453 -3.8841  3.7706 -2.2975
  181SOPE  H18Y20750   6.754   7.050   8.354  0.1978  0.3537 -1.1066
  181SOPE  H18Z20751   6.583   7.030   8.311  0.6572 -0.4002 -2.6194
  182SOPE     N20752   6.501   0.836   6.033  0.5725  0.3168 -0.1745
  182SOPE   HN120753   6.504   0.903   6.113  0.0893 -0.1140  0.2122
  182SOPE   HN220754   6.461   0.902   5.964 -0.1637 -0.8325 -0.8851
  182SOPE   HN320755   6.429   0.763   6.050  0.7636 -0.3925 -2.1326
  182SOPE   C1220756   6.632   0.775   5.995  0.0718 -0.4080 -0.0084
  182SOPE  H12A20757   6.614   0.743   5.890 -1.2954 -0.1507  0.1261
  182SOPE  H12B20758   6.646   0.688   6.062  0.1870  0.9486  1.7995
  182SOPE   C1120759   6.738   0.886   6.004 -0.0490 -0.0846 -0.7552
  182SOPE  H11A20760   6.712   0.978   5.948  1.7178  0.5711 -0.5708
  182SOPE  H11B20761   6.832   0.855   5.954  0.8196  2.5895 -0.9400
  182SOPE     P20762   6.863   0.839   6.221 -0.4824 -0.2613 -0.4047
  182SOPE   O1320763   6.899   0.918   6.341  0.2024 -0.2049  0.6790
  182SOPE   O1420764   6.977   0.788   6.147  0.2253 -0.0863  0.1564
  182SOPE   O1220765   6.758   0.927   6.143 -0.4928  0.6171  0.4241
  182SOPE   O1120766   6.772   0.716   6.255  0.7328 -0.1350  0.0154
  182SOPE    C120767   6.673   0.709   6.355  0.2860  0.0824  0.5222
  182SOPE    HA20768   6.626   0.609   6.347 -1.2237  0.7375  0.7433
  182SOPE    HB20769   6.580   0.764   6.330  1.0814  1.6925  0.9551
  182SOPE    C220770   6.737   0.720   6.492  0.4314  0.2267  0.2962
  182SOPE    HS20771   6.846   0.738   6.483  0.6522 -0.2570  1.7886
  182SOPE   O2120772   6.722   0.594   6.570  0.2430  0.4114  0.2909
  182SOPE   C2120773   6.825   0.511   6.589 -0.3329 -0.7954 -0.1915
  182SOPE   O2220774   6.915   0.511   6.508  0.4847 -0.6132  0.0128
  182SOPE   C2220775   6.814   0.411   6.704  0.2124 -0.3968 -0.2978
  182SOPE   H2R20776   6.795   0.309   6.666 -0.4420 -0.9837  1.4796
  182SOPE   H2S20777   6.729   0.434   6.773  1.1381 -1.0440  1.1043
  182SOPE    C320778   6.678   0.836   6.572 -0.6180 -0.4516  0.4712
  182SOPE    HX20779   6.580   0.811   6.618 -1.9636  2.9828 -0.2226
  182SOPE    HY20780   6.643   0.910   6.498 -1.0204 -0.2392  0.8659
  182SOPE   O3120781   6.781   0.875   6.672  0.3828  0.1091  0.2497
  182SOPE   C3120782   6.751   0.990   6.725 -1.0427  0.1321 -0.3065
  182SOPE   O3220783   6.651   1.059   6.705 -0.3680 -0.0870 -0.0640
  182SOPE   C3220784   6.878   1.039   6.799  0.3069  0.5563 -0.0509
  182SOPE   H2X20785   6.864   1.140   6.843  1.3596  1.2828 -1.2922
  182SOPE   H2Y20786   6.958   1.052   6.722 -0.2885  2.0057 -0.4682
  182SOPE   C2320787   6.943   0.397   6.785  0.1474 -0.0916  0.0072
  182SOPE   H3R20788   7.033   0.407   6.721 -0.2987  0.2488 -0.5890
  182SOPE   H3S20789   6.943   0.291   6.817  0.1532 -0.1654 -0.2378
  182SOPE   C2420790   6.959   0.485   6.911  0.8976  0.1717 -0.5682
  182SOPE   H4R20791   6.991   0.585   6.872 -1.3637  1.1480 -0.0956
  182SOPE   H4S20792   6.863   0.490   6.967  1.3574 -1.0896  0.3697
  182SOPE   C2520793   7.054   0.440   7.018  0.1201  0.3075  0.0039
  182SOPE   H5R20794   7.022   0.337   7.046 -0.8293  0.9964  1.5917
  182SOPE   H5S20795   7.152   0.456   6.969 -0.2727  1.9987 -0.2796
  182SOPE   C2620796   7.049   0.513   7.153 -0.1452  0.3239 -0.1227
  182SOPE   H6R20797   7.081   0.618   7.138 -3.7019  1.7197  1.0262
  182SOPE   H6S20798   6.945   0.511   7.193  0.2720  1.4844  1.0812
  182SOPE   C2720799   7.138   0.442   7.258  0.6747  0.1307  0.5393
  182SOPE   H7R20800   7.118   0.334   7.245  3.7942 -0.7660  2.1400
  182SOPE   H7S20801   7.244   0.445   7.227  0.8067 -2.0073  0.6551
  182SOPE   C2820802   7.118   0.486   7.408 -0.4893  0.4684 -0.3031
  182SOPE   H8R20803   7.157   0.588   7.426  0.4097 -0.0252  0.5805
  182SOPE   H8S20804   7.010   0.483   7.434 -0.4776  0.6113 -0.2404
  182SOPE   C2920805   7.190   0.371   7.484 -0.0646 -0.1772  0.1668
  182SOPE   H9120806   7.220   0.283   7.425  0.2256 -0.1595  0.2864
  182SOPE  C21020807   7.234   0.391   7.610 -0.5614 -0.2581 -0.6579
  182SOPE  H10120808   7.292   0.315   7.665 -0.5900  0.5693  0.5544
  182SOPE  C21120809   7.234   0.531   7.677  0.1106  0.2903 -0.7627
  182SOPE  H11R20810   7.128   0.560   7.692 -0.4745 -2.6902  1.8715
  182SOPE  H11S20811   7.296   0.606   7.623  2.7537 -1.1078  0.1471
  182SOPE  C21220812   7.298   0.530   7.818  0.3313  0.2250 -0.2123
  182SOPE  H12R20813   7.316   0.635   7.848  2.9246  0.0218 -0.7731
  182SOPE  H12S20814   7.403   0.493   7.816  0.5998  0.6342  2.5806
  182SOPE  C21320815   7.197   0.462   7.909  0.0225 -0.3986  0.0077
  182SOPE  H13R20816   7.199   0.355   7.881  1.7325 -0.1861 -0.7849
  182SOPE  H13S20817   7.094   0.503   7.898 -1.0222 -1.8554  3.1312
  182SOPE  C21420818   7.225   0.470   8.057  0.3394  0.3036  0.4057
  182SOPE  H14R20819   7.336   0.470   8.062  0.3441  0.6372  0.3292
  182SOPE  H14S20820   7.199   0.378   8.114 -1.9260  1.0489  0.6752
  182SOPE  C21520821   7.161   0.592   8.123 -0.4660 -0.2798 -0.9590
  182SOPE  H15R20822   7.056   0.567   8.151 -0.6262  1.2963 -0.0433
  182SOPE  H15S20823   7.152   0.687   8.068  0.8211  0.2175 -0.3466
  182SOPE  C21620824   7.219   0.615   8.274  0.4220  0.1363 -0.3018
  182SOPE  H16R20825   7.173   0.712   8.302 -0.5595 -0.4785  0.2646
  182SOPE  H16S20826   7.329   0.629   8.278  0.4345  0.0047  2.8027
  182SOPE  C21720827   7.179   0.504   8.370 -0.2344 -0.3049  0.1298
  182SOPE  H17R20828   7.230   0.533   8.464 -1.5897 -1.4538  1.2614
  182SOPE  H17S20829   7.214   0.402   8.343  1.0582  0.1693 -0.0549
  182SOPE  C21820830   7.029   0.502   8.399 -0.1993  0.2987 -0.1971
  182SOPE  H18R20831   7.018   0.435   8.487  0.8424 -0.3449 -0.5452
  182SOPE  H18S20832   6.966   0.466   8.314 -2.4469  0.4085  1.3166
  182SOPE  H18T20833   6.994   0.603   8.430 -1.4341  0.6592 -2.5535
  182SOPE   C3320834   6.931   0.942   6.910 -0.2947 -0.3746  0.7489
  182SOPE   H3X20835   7.034   0.969   6.944  0.1655 -1.1559 -0.0024
  182SOPE   H3Y20836   6.935   0.838   6.873 -1.9580  0.8748 -3.5354
  182SOPE   C3420837   6.835   0.927   7.026  0.3207  0.3052  0.0610
  182SOPE   H4X20838   6.738   0.879   7.000  0.5487 -0.4600  0.5729
  182SOPE   H4Y20839   6.808   1.024   7.072 -0.3290 -0.6567  1.8261
  182SOPE   C3520840   6.891   0.830   7.132 -0.3541 -0.2182  0.7013
  182SOPE   H5X20841   6.995   0.863   7.152  0.1455 -1.7368  0.6673
  182SOPE   H5Y20842   6.888   0.727   7.092 -0.9390  0.4158 -0.9655
  182SOPE   C3620843   6.814   0.833   7.264  0.0240  0.0498 -0.8915
  182SOPE   H6X20844   6.727   0.766   7.249  1.0591 -1.2858 -1.1321
  182SOPE   H6Y20845   6.779   0.938   7.279  0.7502  0.1100  0.5261
  182SOPE   C3720846   6.894   0.805   7.395  0.0950  0.2756  0.4276
  182SOPE   H7X20847   6.985   0.869   7.400  0.3389  0.0354 -0.6940
  182SOPE   H7Y20848   6.937   0.703   7.382  1.0319  0.8777 -1.6653
  182SOPE   C3820849   6.809   0.805   7.520 -0.0996  0.0884  0.1985
  182SOPE   H8X20850   6.722   0.737   7.504 -1.2387  1.2628  1.0670
  182SOPE   H8Y20851   6.777   0.911   7.531  2.8155  1.3415 -2.0559
  182SOPE   C3920852   6.881   0.751   7.642  0.0844 -0.8588  1.1721
  182SOPE   H9X20853   6.984   0.791   7.637 -0.2690  0.0002 -2.0334
  182SOPE   H9Y20854   6.883   0.640   7.630 -2.4307 -0.7991 -0.7002
  182SOPE  C31020855   6.807   0.812   7.760 -0.2603  0.7367 -0.4007
  182SOPE  H10X20856   6.700   0.786   7.757 -0.6373  1.9601  0.8691
  182SOPE  H10Y20857   6.814   0.923   7.756 -2.8582  0.9720  0.2746
  182SOPE  C31120858   6.872   0.766   7.894 -0.1797  1.0436  1.2955
  182SOPE  H11X20859   6.972   0.814   7.884 -0.6766  1.7814 -0.4324
  182SOPE  H11Y20860   6.878   0.655   7.903  1.0123  1.1949  2.8064
  182SOPE  C31220861   6.805   0.829   8.010 -0.3457  0.4042 -0.0796
  182SOPE  H12X20862   6.702   0.789   8.014 -0.5673  1.0582  1.2466
  182SOPE  H12Y20863   6.812   0.932   7.970  0.4161 -0.2043 -1.6106
  182SOPE  C31320864   6.879   0.835   8.151  0.3590 -0.2167 -0.6013
  182SOPE  H13X20865   6.985   0.861   8.134 -0.0419  0.8079 -1.6764
  182SOPE  H13Y20866   6.879   0.737   8.203  2.3779 -0.2633 -0.6433
  182SOPE  C31420867   6.803   0.927   8.249 -0.2979 -0.2607  0.0869
  182SOPE  H14X20868   6.812   1.032   8.216 -1.8579  0.0746  0.6351
  182SOPE  H14Y20869   6.852   0.919   8.349  0.0318  1.8713  0.1368
  182SOPE  C31520870   6.655   0.894   8.267  0.4344  0.9269  0.5549
  182SOPE  H15X20871   6.639   0.785   8.284  0.0870  1.2927  3.0218
  182SOPE  H15Y20872   6.590   0.936   8.188  1.0971 -1.4518 -1.4088
  182SOPE  C31620873   6.592   0.952   8.392 -0.2638  0.0961 -0.2153
  182SOPE  H16X20874   6.645   0.915   8.483  0.3699  2.6978  0.5953
  182SOPE  H16Y20875   6.486   0.922   8.384 -0.2528  0.5436 -2.7718
  182SOPE  C31720876   6.587   1.112   8.380  0.7789  0.0987 -0.0417
  182SOPE  H17X20877   6.503   1.131   8.310 -0.6241 -1.3154  1.1737
  182SOPE  H17Y20878   6.680   1.146   8.330  2.8456 -3.6228  0.9056
  182SOPE  C31820879   6.556   1.187   8.501 -0.9569 -0.3107  0.0002
  182SOPE  H18X20880   6.474   1.141   8.560 -1.5781  0.5364 -0.1765
  182SOPE  H18Y20881   6.536   1.290   8.465  0.6719 -0.4036 -1.2464
  182SOPE  H18Z20882   6.644   1.195   8.568 -0.8787 -0.4586 -0.0866
  183SOPE     N20883   1.621   1.360   6.369  0.0018 -0.2512  0.0694
  183SOPE   HN120884   1.681   1.372   6.453 -1.0206  1.3435  0.6178
  183SOPE   HN220885   1.518   1.364   6.384 -0.1201  0.7396 -0.9372
  183SOPE   HN320886   1.641   1.269   6.323  0.5608  0.4491 -1.1327
  183SOPE   C1220887   1.669   1.462   6.266 -0.4465  0.6556 -0.0535
  183SOPE  H12A20888   1.606   1.465   6.175 -1.2312  2.2166  0.5039
  183SOPE  H12B20889   1.773   1.437   6.240 -1.1363 -0.7886 -1.5550
  183SOPE   C1120890   1.660   1.592   6.328  0.3121 -0.3912 -0.2381
  183SOPE  H11A20891   1.709   1.661   6.255 -2.5415  0.3849 -1.5866
  183SOPE  H11B20892   1.718   1.612   6.420  0.2443  1.0005 -0.4715
  183SOPE     P20893   1.496   1.770   6.410  0.1645 -0.1000 -0.2448
  183SOPE   O1320894   1.350   1.797   6.389 -0.1195 -0.2438 -0.2037
  183SOPE   O1420895   1.586   1.866   6.341 -1.0295 -0.0981 -0.8763
  183SOPE   O1220896   1.524   1.624   6.348  0.2276 -0.5836 -0.5819
  183SOPE   O1120897   1.528   1.747   6.557 -0.3238  0.8319 -0.6509
  183SOPE    C120898   1.484   1.630   6.632 -0.3319 -0.4413  0.2764
  183SOPE    HA20899   1.576   1.598   6.685  0.6641  0.2455 -0.9789
  183SOPE    HB20900   1.436   1.546   6.578 -1.9620  0.7040 -0.1285
  183SOPE    C220901   1.375   1.667   6.738  0.0775 -0.0310  0.0346
  183SOPE    HS20902   1.295   1.699   6.669  0.3735  0.1898 -0.2064
  183SOPE   O2120903   1.430   1.779   6.815 -0.0668  0.0092  0.3855
  183SOPE   C2120904   1.354   1.884   6.804  0.1653 -0.2527  0.1215
  183SOPE   O2220905   1.250   1.901   6.743 -0.3098  0.0362 -0.2594
  183SOPE   C2220906   1.419   1.996   6.885  0.2560 -0.0387 -0.2993
  183SOPE   H2R20907   1.376   2.091   6.847 -0.2853 -0.1959 -0.0890
  183SOPE   H2S20908   1.528   1.984   6.872  0.1525 -0.2369 -0.9903
  183SOPE    C320909   1.326   1.548   6.821 -0.3071 -0.7792  0.6132
  183SOPE    HX20910   1.414   1.499   6.868  0.3157 -2.2139 -1.8704
  183SOPE    HY20911   1.275   1.477   6.753  0.6960  0.2603 -1.2788
  183SOPE   O3120912   1.240   1.605   6.918  0.3806 -0.6532 -0.3094
  183SOPE   C3120913   1.137   1.524   6.953  0.7768 -0.8095 -0.2898
  183SOPE   O3220914   1.117   1.411   6.913  0.2517 -0.3676  0.2081
  183SOPE   C3220915   1.053   1.605   7.045  0.4060  0.4747  0.1276
  183SOPE   H2X20916   0.987   1.534   7.100 -1.7610  2.1055 -0.2247
  183SOPE   H2Y20917   0.995   1.679   6.987  0.3910 -0.0072 -0.4848
  183SOPE   C2320918   1.384   1.993   7.042 -0.2908 -0.9748  0.0203
  183SOPE   H3R20919   1.403   1.890   7.079  0.2308 -1.9418 -2.6769
  183SOPE   H3S20920   1.277   2.018   7.058 -0.9473 -1.6868 -2.6147
  183SOPE   C2420921   1.468   2.087   7.133  0.3420  0.0607 -0.3839
  183SOPE   H4R20922   1.576   2.060   7.126 -0.1369 -2.1341 -0.1093
  183SOPE   H4S20923   1.456   2.191   7.096  1.2052  0.2604 -0.1170
  183SOPE   C2520924   1.421   2.075   7.278  0.4475  0.7400 -0.6071
  183SOPE   H5R20925   1.310   2.072   7.288  0.5992 -0.3412  1.1812
  183SOPE   H5S20926   1.460   1.974   7.304 -0.2474  0.5556 -0.2642
  183SOPE   C2620927   1.468   2.183   7.377 -0.5198  0.0856  0.3040
  183SOPE   H6R20928   1.578   2.197   7.364 -0.5584 -0.6665 -0.9942
  183SOPE   H6S20929   1.426   2.283   7.352  1.0043  0.7229  0.1537
  183SOPE   C2720930   1.438   2.143   7.524 -0.1315 -0.5009 -0.0650
  183SOPE   H7R20931   1.332   2.108   7.529 -0.0920 -0.4478  3.3413
  183SOPE   H7S20932   1.497   2.052   7.548 -1.0163 -0.8962  0.6716
  183SOPE   C2820933   1.452   2.254   7.625  0.1731 -0.3530  0.5191
  183SOPE   H8R20934   1.551   2.298   7.603  0.9659 -2.5678 -0.6387
  183SOPE   H8S20935   1.374   2.329   7.597  3.3209  2.4455 -1.5307
  183SOPE   C2920936   1.430   2.209   7.765 -0.2923 -0.0453 -0.0929
  183SOPE   H9120937   1.441   2.100   7.781  1.2561  0.2723  1.2235
  183SOPE  C21020938   1.398   2.285   7.866  0.2847 -0.8778 -0.2158
  183SOPE  H10120939   1.401   2.247   7.970  0.1633 -0.7267 -0.1572
  183SOPE  C21120940   1.378   2.435   7.867 -0.1539  0.1861 -0.4195
  183SOPE  H11R20941   1.271   2.458   7.887 -0.0706 -0.9169  1.6039
  183SOPE  H11S20942   1.391   2.472   7.763 -1.6158 -1.9962 -1.4408
  183SOPE  C21220943   1.447   2.512   7.981 -0.1220  0.0201  0.4810
  183SOPE  H12R20944   1.437   2.621   7.964 -2.7066 -0.5205 -2.0166
  183SOPE  H12S20945   1.555   2.489   7.999  0.1075  1.5325  1.2806
  183SOPE  C21320946   1.385   2.483   8.121 -0.2184 -0.4612 -0.2703
  183SOPE  H13R20947   1.430   2.385   8.148  0.0930 -0.2857 -0.1439
  183SOPE  H13S20948   1.276   2.463   8.111 -0.3650 -2.1067  3.2254
  183SOPE  C21420949   1.414   2.607   8.209 -0.5296  0.6636  0.0626
  183SOPE  H14R20950   1.379   2.700   8.159  0.1791  0.3026 -1.1760
  183SOPE  H14S20951   1.521   2.629   8.229 -0.3246  0.5977 -0.8975
  183SOPE  C21520952   1.346   2.598   8.354 -0.1204  0.5901  0.3890
  183SOPE  H15R20953   1.236   2.600   8.343 -0.2361  1.0154  1.4622
  183SOPE  H15S20954   1.374   2.698   8.395  0.3144  2.0051 -3.0592
  183SOPE  C21620955   1.396   2.468   8.427 -0.2624  0.7814  0.7814
  183SOPE  H16R20956   1.506   2.474   8.439 -0.3378  0.2571  1.7853
  183SOPE  H16S20957   1.377   2.375   8.368  4.2180 -0.3188  0.7349
  183SOPE  C21720958   1.343   2.459   8.571  0.1225  0.2894 -0.6261
  183SOPE  H17R20959   1.233   2.445   8.570  0.2766 -1.0543 -0.4470
  183SOPE  H17S20960   1.371   2.544   8.636 -1.6162  0.5732 -0.1825
  183SOPE  C21820961   1.409   2.345   8.641 -0.1536  0.2519  0.0266
  183SOPE  H18R20962   1.384   2.350   8.749 -0.8907  0.2504 -0.1400
  183SOPE  H18S20963   1.518   2.361   8.628  0.2153  0.3700  2.8135
  183SOPE  H18T20964   1.378   2.244   8.607  0.0090  0.4845 -0.8602
  183SOPE   C3320965   1.121   1.687   7.157 -0.7660  0.3742  0.3750
  183SOPE   H3X20966   1.041   1.729   7.221  0.1785  1.9605  0.5844
  183SOPE   H3Y20967   1.169   1.776   7.111 -1.4723  1.1464  1.0943
  183SOPE   C3420968   1.232   1.614   7.234 -0.0631  0.2611 -0.1606
  183SOPE   H4X20969   1.315   1.581   7.168 -0.8063 -0.0475 -0.9567
  183SOPE   H4Y20970   1.191   1.519   7.274 -0.5613 -0.7972 -2.9512
  183SOPE   C3520971   1.285   1.695   7.351  0.4538 -0.0748 -0.1726
  183SOPE   H5X20972   1.296   1.800   7.317  2.5258  0.8284  2.8998
  183SOPE   H5Y20973   1.390   1.667   7.373  0.8067  0.3635 -1.2246
  183SOPE   C3620974   1.191   1.704   7.480  0.2726 -0.3487 -0.4750
  183SOPE   H6X20975   1.167   1.602   7.515 -0.8711 -0.9958 -2.9223
  183SOPE   H6Y20976   1.101   1.753   7.436 -0.2242  0.0742  0.9672
  183SOPE   C3720977   1.246   1.786   7.604  0.6963  0.0573  0.4982
  183SOPE   H7X20978   1.262   1.893   7.577 -0.5437  0.6617  1.9781
  183SOPE   H7Y20979   1.337   1.749   7.655  0.3766 -0.5853  0.6057
  183SOPE   C3820980   1.136   1.803   7.718  0.3252 -0.1626  0.9497
  183SOPE   H8X20981   1.108   1.698   7.738  2.2964 -1.3322 -1.8438
  183SOPE   H8Y20982   1.044   1.852   7.680  0.6056 -1.8933 -2.3496
  183SOPE   C3920983   1.174   1.876   7.842  0.9081 -0.1682 -0.3990
  183SOPE   H9X20984   1.085   1.894   7.906  1.8794  1.0221  0.6452
  183SOPE   H9Y20985   1.211   1.980   7.831 -1.5322  0.7206 -1.0253
  183SOPE  C31020986   1.267   1.798   7.930  0.0436 -0.0197  0.1441
  183SOPE  H10X20987   1.371   1.818   7.898  0.3743 -0.2654  1.0481
  183SOPE  H10Y20988   1.249   1.688   7.929 -1.8115  0.2527 -0.9298
  183SOPE  C31120989   1.261   1.847   8.074  0.8591 -0.0244 -0.3185
  183SOPE  H11X20990   1.315   1.772   8.135 -1.2380 -0.3550  1.2361
  183SOPE  H11Y20991   1.153   1.828   8.094  0.9100 -1.4808 -1.2851
  183SOPE  C31220992   1.328   1.983   8.098  0.4603 -0.0316  0.3163
  183SOPE  H12X20993   1.267   2.059   8.045 -0.6476  0.2052  1.8585
  183SOPE  H12Y20994   1.428   1.972   8.052  0.8024  0.8727  0.8170
  183SOPE  C31320995   1.333   2.021   8.243 -0.1336  0.2358 -0.1593
  183SOPE  H13X20996   1.235   1.980   8.276 -0.2654 -0.1323 -0.9711
  183SOPE  H13Y20997   1.333   2.132   8.244 -1.3836  0.2510  1.0782
  183SOPE  C31420998   1.460   1.970   8.311 -0.5343 -0.0261  0.2164
  183SOPE  H14X20999   1.546   2.027   8.268 -0.9301  1.3783  1.2093
  183SOPE  H14Y21000   1.466   1.860   8.304 -0.3191 -0.0464  0.7037
  183SOPE  C31521001   1.460   2.010   8.461 -0.1214 -0.3043  0.0120
  183SOPE  H15X21002   1.380   1.953   8.513 -0.5269  1.6236  1.6690
  183SOPE  H15Y21003   1.432   2.118   8.458 -0.7373 -0.3225  2.4468
  183SOPE  C31621004   1.596   1.974   8.534 -0.3852 -0.7720  0.5827
  183SOPE  H16X21005   1.649   2.065   8.571  0.9568 -1.2667 -0.0744
  183SOPE  H16Y21006   1.675   1.919   8.479  0.4022  0.6539  0.2095
  183SOPE  C31721007   1.580   1.882   8.662 -0.4129 -0.3857  0.2822
  183SOPE  H17X21008   1.683   1.871   8.701 -0.0042  1.5697 -0.1442
  183SOPE  H17Y21009   1.538   1.781   8.643 -0.2787 -0.5138  0.6568
  183SOPE  C31821010   1.501   1.952   8.769 -0.4915  0.3705 -0.0209
  183SOPE  H18X21011   1.512   1.894   8.863 -2.0418  0.4184  0.2101
  183SOPE  H18Y21012   1.393   1.962   8.746 -0.4624  1.9099  0.4036
  183SOPE  H18Z21013   1.540   2.054   8.790  0.7187  0.2354 -1.4391
  184SOPE     N21014   0.262   0.376   6.250 -0.4501  0.1509  0.4490
  184SOPE   HN121015   0.192   0.412   6.183  1.8781  0.9312 -1.7354
  184SOPE   HN221016   0.320   0.300   6.207 -0.5594 -0.4423  1.3157
  184SOPE   HN321017   0.218   0.337   6.335  1.9881 -2.6341  0.6033
  184SOPE   C1221018   0.361   0.483   6.278 -0.6672 -0.1009 -0.1388
  184SOPE  H12A21019   0.431   0.457   6.360 -0.6069  0.5371  0.0232
  184SOPE  H12B21020   0.303   0.574   6.307 -1.3467 -0.3667 -0.6474
  184SOPE   C1121021   0.447   0.512   6.146  0.3846 -0.8872 -0.0792
  184SOPE  H11A21022   0.500   0.608   6.162 -1.5863  0.3611 -0.5532
  184SOPE  H11B21023   0.367   0.533   6.071 -0.1604 -0.9477  0.4810
  184SOPE     P21024   0.670   0.384   6.143 -0.0643 -0.4413 -0.3369
  184SOPE   O1321025   0.746   0.445   6.031  0.2601 -0.0603  0.4434
  184SOPE   O1421026   0.699   0.244   6.186  0.1534 -0.0369 -0.3378
  184SOPE   O1221027   0.520   0.401   6.104  0.5980  0.2520 -0.3330
  184SOPE   O1121028   0.682   0.479   6.264  0.0866 -0.1914  0.2930
  184SOPE    C121029   0.800   0.513   6.335  0.4585  0.0059  0.1898
  184SOPE    HA21030   0.784   0.609   6.389  2.0188  0.8143 -0.7067
  184SOPE    HB21031   0.883   0.520   6.262  1.4056 -0.7835  1.1659
  184SOPE    C221032   0.826   0.397   6.442 -0.2815 -0.1622  0.5262
  184SOPE    HS21033   0.825   0.306   6.378  1.9207  0.2705 -0.1973
  184SOPE   O2121034   0.717   0.397   6.546 -0.6126 -0.2277  0.6494
  184SOPE   C2121035   0.714   0.276   6.606  0.5019 -0.1393 -0.6040
  184SOPE   O2221036   0.803   0.193   6.593 -0.1251  0.0149 -1.3554
  184SOPE   C2221037   0.589   0.268   6.701  0.0846  0.0398  0.3495
  184SOPE   H2R21038   0.554   0.169   6.666 -1.0456 -0.2023  2.0393
  184SOPE   H2S21039   0.514   0.345   6.674  1.2674  0.7046 -1.2219
  184SOPE    C321040   0.973   0.409   6.492  0.1234  0.7747  0.0879
  184SOPE    HX21041   1.032   0.414   6.398 -0.6019 -1.4855 -0.5553
  184SOPE    HY21042   1.010   0.320   6.547 -0.0456 -1.1717 -2.7743
  184SOPE   O3121043   0.998   0.532   6.554  0.5781 -0.7122 -0.0862
  184SOPE   C3121044   0.985   0.535   6.688 -0.4783 -1.4956  0.4780
  184SOPE   O3221045   0.973   0.442   6.760 -0.5116  0.2128 -0.9628
  184SOPE   C3221046   1.022   0.681   6.725  0.6234 -0.1001  0.0729
  184SOPE   H2X21047   0.935   0.739   6.688  1.2123  0.7545 -0.0103
  184SOPE   H2Y21048   1.109   0.727   6.672  0.9311 -1.0451 -0.2547
  184SOPE   C2321049   0.619   0.235   6.845 -0.5120  1.1108 -0.0527
  184SOPE   H3R21050   0.641   0.336   6.885 -3.9323  2.1692 -0.4423
  184SOPE   H3S21051   0.707   0.169   6.857 -2.2467 -1.6062 -1.3165
  184SOPE   C2421052   0.496   0.176   6.920 -0.2456  0.3975  0.4609
  184SOPE   H4R21053   0.415   0.251   6.904 -0.4889 -0.4286 -2.9197
  184SOPE   H4S21054   0.460   0.083   6.872 -1.2204  1.1694 -0.3642
  184SOPE   C2521055   0.521   0.159   7.065  0.0096 -0.2296  0.1259
  184SOPE   H5R21056   0.631   0.145   7.074  0.0747 -0.3626 -0.7890
  184SOPE   H5S21057   0.504   0.249   7.128  1.5115 -0.6121  1.1409
  184SOPE   C2621058   0.451   0.040   7.129 -0.0177 -0.0581  0.2259
  184SOPE   H6R21059   0.341   0.048   7.116 -0.0220 -1.4550 -0.8012
  184SOPE   H6S21060   0.470  -0.053   7.072 -0.0601 -0.8413  1.4621
  184SOPE   C2721061   0.476   0.016   7.273  0.1941  0.9000 -0.2429
  184SOPE   H7R21062   0.585   0.010   7.290  0.1797  2.1782  0.3622
  184SOPE   H7S21063   0.439   0.095   7.342  2.4869 -0.5678  2.8915
  184SOPE   C2821064   0.429  -0.132   7.321  1.2406  0.2545  0.2296
  184SOPE   H8R21065   0.460  -0.194   7.235  0.5697  0.1052  0.0880
  184SOPE   H8S21066   0.496  -0.174   7.399  3.2053 -1.0796 -2.0632
  184SOPE   C2921067   0.279  -0.144   7.348  0.3203 -0.5369 -0.4219
  184SOPE   H9121068   0.209  -0.193   7.279 -1.4695  1.7064 -0.3297
  184SOPE  C21021069   0.221  -0.098   7.461 -0.3434  0.3428  0.5654
  184SOPE  H10121070   0.112  -0.104   7.469 -0.3466  0.5796  0.6867
  184SOPE  C21121071   0.288  -0.027   7.577  0.9382 -0.6218  0.8337
  184SOPE  H11R21072   0.307   0.081   7.560  2.6361 -0.4554  3.1944
  184SOPE  H11S21073   0.381  -0.082   7.604 -0.9104 -4.9883 -0.6839
  184SOPE  C21221074   0.197  -0.061   7.697  0.0786 -0.0432  0.7478
  184SOPE  H12R21075   0.214  -0.168   7.722  0.3903  0.1901  1.5939
  184SOPE  H12S21076   0.089  -0.038   7.683  0.5089  4.2084  2.7138
  184SOPE  C21321077   0.241   0.006   7.830  0.1720 -0.1026 -0.7876
  184SOPE  H13R21078   0.261   0.115   7.819  2.2684 -0.1898  1.3849
  184SOPE  H13S21079   0.344  -0.030   7.852  0.7480  1.3386 -1.0328
  184SOPE  C21421080   0.142  -0.026   7.940  1.1066  0.0669 -0.4740
  184SOPE  H14R21081   0.142  -0.135   7.960 -0.2275  0.2723  0.8978
  184SOPE  H14S21082   0.036  -0.002   7.916 -0.1423 -1.8415  2.5356
  184SOPE  C21521083   0.188   0.053   8.073 -0.5331 -0.3127  0.1057
  184SOPE  H15R21084   0.165   0.159   8.049 -0.3057 -0.3395 -0.2382
  184SOPE  H15S21085   0.298   0.049   8.083 -0.5948 -2.1031  0.3509
  184SOPE  C21621086   0.119   0.011   8.204 -0.4436 -0.5767  0.3954
  184SOPE  H16R21087   0.012   0.029   8.179 -0.8685 -1.9418  1.1216
  184SOPE  H16S21088   0.146   0.084   8.284  1.0936  0.1340 -0.7276
  184SOPE  C21721089   0.141  -0.130   8.249 -0.4561  0.2770  0.3266
  184SOPE  H17R21090   0.246  -0.125   8.284 -0.4580  1.4430  0.1938
  184SOPE  H17S21091   0.143  -0.205   8.167  1.5313  1.8305 -1.1407
  184SOPE  C21821092   0.056  -0.161   8.362  0.9794 -0.0042  0.2458
  184SOPE  H18R21093  -0.046  -0.187   8.325  0.4331 -0.0906  1.7570
  184SOPE  H18S21094   0.067  -0.078   8.434  2.8101 -1.4945  1.7792
  184SOPE  H18T21095   0.087  -0.255   8.412  2.5447 -0.5611 -1.6248
  184SOPE   C3321096   1.033   0.705   6.879  0.3700 -0.4844  1.1640
  184SOPE   H3X21097   1.099   0.624   6.919  1.1598  1.0587  3.2281
  184SOPE   H3Y21098   0.933   0.702   6.926 -0.6076 -0.0573 -0.8048
  184SOPE   C3421099   1.102   0.845   6.902 -0.5453 -0.6385  0.0864
  184SOPE   H4X21100   1.037   0.923   6.858  0.5170 -0.8491 -1.9466
  184SOPE   H4Y21101   1.197   0.857   6.846 -0.4469 -0.5028  0.2801
  184SOPE   C3521102   1.151   0.869   7.045  0.4653  0.6495 -0.1326
  184SOPE   H5X21103   1.197   0.970   7.049 -0.8613  1.2371  2.2341
  184SOPE   H5Y21104   1.225   0.791   7.070 -0.0470  0.2503  0.1519
  184SOPE   C3621105   1.042   0.843   7.148  0.5209  0.0114  0.2017
  184SOPE   H6X21106   1.017   0.736   7.136  2.1565 -0.5131  1.1050
  184SOPE   H6Y21107   0.950   0.900   7.125  0.4225 -0.3538 -0.3093
  184SOPE   C3721108   1.087   0.866   7.295 -0.3203  0.8734  0.3673
  184SOPE   H7X21109   1.173   0.802   7.322 -0.4989  0.9389  1.1004
  184SOPE   H7Y21110   0.992   0.850   7.350 -1.6421 -0.6569 -2.1531
  184SOPE   C3821111   1.140   1.010   7.318  0.8993 -0.1839 -0.8227
  184SOPE   H8X21112   1.070   1.081   7.270 -0.4385 -1.4478 -0.7970
  184SOPE   H8Y21113   1.240   1.018   7.270  0.9406  0.0946 -0.6879
  184SOPE   C3921114   1.152   1.051   7.469  0.4190 -0.3999  0.2304
  184SOPE   H9X21115   1.261   1.065   7.489  0.2581  0.5718  0.4417
  184SOPE   H9Y21116   1.128   0.960   7.527 -0.5732 -0.9348 -0.9586
  184SOPE  C31021117   1.046   1.147   7.525 -0.4591  0.0654  0.2730
  184SOPE  H10X21118   0.948   1.121   7.479 -0.9780  2.7873 -0.3286
  184SOPE  H10Y21119   1.068   1.252   7.496 -1.4552  0.0850 -0.4614
  184SOPE  C31121120   1.032   1.146   7.679 -0.4687  0.2650  0.3673
  184SOPE  H11X21121   1.121   1.173   7.739 -0.5709 -0.2302  0.7492
  184SOPE  H11Y21122   1.003   1.041   7.702 -2.2349  0.2749 -1.4699
  184SOPE  C31221123   0.912   1.239   7.711  0.6977 -0.8037 -0.0025
  184SOPE  H12X21124   0.813   1.207   7.672 -0.4502  1.8531  0.5212
  184SOPE  H12Y21125   0.939   1.334   7.661  1.2969 -0.5708  0.7476
  184SOPE  C31321126   0.897   1.283   7.857 -0.5659  0.6792 -0.4092
  184SOPE  H13X21127   0.921   1.189   7.912  0.1770 -0.2441 -2.2114
  184SOPE  H13Y21128   0.789   1.293   7.879 -0.6495  0.0303 -0.5067
  184SOPE  C31421129   0.993   1.401   7.890  0.4419 -0.2520 -0.3296
  184SOPE  H14X21130   0.981   1.480   7.813  2.0835 -0.0899 -0.4612
  184SOPE  H14Y21131   1.094   1.357   7.878 -0.2468 -1.9436 -0.2716
  184SOPE  C31521132   0.980   1.477   8.027 -0.5882 -0.0844  0.1812
  184SOPE  H15X21133   0.889   1.541   8.019  0.5928  1.5462 -1.0361
  184SOPE  H15Y21134   1.055   1.560   8.028  0.3034 -0.8546 -0.3872
  184SOPE  C31621135   0.971   1.379   8.150  0.3391 -0.7208 -0.3734
  184SOPE  H16X21136   1.063   1.318   8.150  1.6080  1.1182 -0.5662
  184SOPE  H16Y21137   0.889   1.305   8.159 -1.4741  1.3859  2.4794
  184SOPE  C31721138   0.984   1.453   8.282 -0.4196 -0.6125 -0.8503
  184SOPE  H17X21139   0.912   1.535   8.303 -0.2420 -0.3583 -1.2162
  184SOPE  H17Y21140   1.083   1.503   8.289 -1.0748  0.8626 -1.6565
  184SOPE  C31821141   0.968   1.362   8.405  0.1586  0.4833 -0.4867
  184SOPE  H18X21142   0.975   1.422   8.499 -0.6347 -0.6238  0.3045
  184SOPE  H18Y21143   1.058   1.298   8.418 -0.4677 -0.6330 -1.4745
  184SOPE  H18Z21144   0.876   1.299   8.406  0.0187  0.6450 -1.6293
  185SAPI   C1221145   2.918   2.315  10.928 -0.6963 -0.0550 -0.2285
  185SAPI    H221146   2.955   2.289  10.827 -1.1504 -1.5743 -0.0291
  185SAPI    O221147   2.988   2.435  10.968  0.2833 -0.1461 -0.4119
  185SAPI   HO221148   3.053   2.453  10.900 -0.8971 -2.4532 -2.2781
  185SAPI   C1321149   2.761   2.338  10.918 -0.0347 -0.3571 -0.5654
  185SAPI    H321150   2.713   2.244  10.884 -0.9321  0.6502 -2.2090
  185SAPI    O321151   2.727   2.439  10.824 -0.1336  0.2363 -0.4509
  185SAPI   HO321152   2.748   2.524  10.862 -0.2925 -0.8653  2.3518
  185SAPI   C1421153   2.705   2.356  11.055  0.5295 -0.0107 -0.0218
  185SAPI    H421154   2.758   2.448  11.086  1.3661 -0.3745 -0.3355
  185SAPI    O421155   2.565   2.390  11.045 -0.4247  0.0143  0.6471
  185SAPI   HO421156   2.518   2.312  11.076 -1.1759  0.7447  1.3982
  185SAPI   C1521157   2.736   2.241  11.148  0.2644 -0.2000 -0.8268
  185SAPI    H521158   2.682   2.161  11.094  1.1542 -0.4568 -1.3662
  185SAPI    O521159   2.678   2.254  11.283  0.0792  0.0160 -0.0793
  185SAPI   HO521160   2.710   2.334  11.325  0.1940 -0.3258  0.4998
  185SAPI   C1621161   2.884   2.216  11.159 -0.0657  0.3661  0.0606
  185SAPI    H621162   2.934   2.302  11.208  0.8803 -0.5871  0.8224
  185SAPI    O621163   2.905   2.091  11.225 -0.0031 -0.0841 -0.1519
  185SAPI   HO621164   2.847   2.025  11.186 -0.0053 -0.0705 -0.1707
  185SAPI   C1121165   2.950   2.197  11.022  0.0367 -0.7952  0.2757
  185SAPI    H121166   2.894   2.112  10.977  0.0387  0.3680 -2.0379
  185SAPI     P21167   3.159   2.053  10.919  0.1222  0.5407  0.1969
  185SAPI   O1321168   3.079   1.930  10.932 -0.4749  0.0705  0.0161
  185SAPI   O1421169   3.300   2.039  10.960  0.1917 -0.1938  0.2523
  185SAPI   O1221170   3.087   2.170  11.010  0.3369 -0.0037 -0.3306
  185SAPI   O1121171   3.137   2.106  10.768 -0.1919  0.2764 -0.3477
  185SAPI    C121172   3.218   2.218  10.726  0.2816 -0.1414  0.9618
  185SAPI    HA21173   3.144   2.274  10.666  0.8657 -0.7218 -0.3259
  185SAPI    HB21174   3.249   2.290  10.805 -0.5595  1.1442  0.1615
  185SAPI    C221175   3.329   2.181  10.620  0.0706  0.1977 -0.4308
  185SAPI    HS21176   3.373   2.275  10.579 -0.8058  0.2221 -1.3509
  185SAPI   O2121177   3.272   2.102  10.509 -0.1079  0.2171  0.2478
  185SAPI   C2121178   3.238   2.173  10.407  0.2918  0.2569  0.0085
  185SAPI   O2221179   3.234   2.294  10.403  0.0076  0.5652 -0.2036
  185SAPI   C2221180   3.218   2.087  10.283  0.6863  0.3749 -0.4024
  185SAPI   H2R21181   3.302   2.014  10.278 -0.1386 -0.8698  2.0548
  185SAPI   H2S21182   3.121   2.034  10.295  1.0593 -0.4318 -0.8466
  185SAPI    C321183   3.450   2.102  10.679  0.0463  0.0459 -0.1410
  185SAPI    HX21184   3.410   2.012  10.730 -0.2406  0.7569  0.9333
  185SAPI    HY21185   3.492   2.156  10.768  0.0911  1.2766 -0.8879
  185SAPI   O3121186   3.552   2.077  10.583 -0.2615  0.0879 -0.0440
  185SAPI   C3121187   3.615   1.966  10.585  0.6111 -0.3628 -0.4035
  185SAPI   O3221188   3.610   1.880  10.670  0.5325  0.3843  0.0711
  185SAPI   C3221189   3.708   1.945  10.473 -0.3071  0.6709 -0.6485
  185SAPI   H2X21190   3.661   1.859  10.422  1.7605 -0.5655 -0.5818
  185SAPI   H2Y21191   3.810   1.913  10.503 -0.9578  0.9886  2.2617
  185SAPI   C2321192   3.224   2.169  10.151  0.4568  0.4891 -0.5248
  185SAPI   H3R21193   3.327   2.203  10.127  1.5787 -0.4537  2.4758
  185SAPI   H3S21194   3.161   2.261  10.156 -0.9186 -0.4358 -0.2687
  185SAPI   C2421195   3.182   2.071  10.033  0.6703 -0.3164  1.0872
  185SAPI   H4R21196   3.149   2.138   9.951 -2.9575  0.9101  3.3027
  185SAPI   H4S21197   3.083   2.021  10.043 -0.6777  0.9245 -3.4334
  185SAPI   C2521198   3.275   1.961   9.994 -0.8014 -0.4099 -0.1594
  185SAPI   H5R21199   3.310   1.890  10.071  0.2340 -2.1077 -2.0970
  185SAPI   C2621200   3.316   1.925   9.876 -0.6737  0.2439 -0.5107
  185SAPI   H6R21201   3.398   1.853   9.862 -0.1567  1.1023 -2.1202
  185SAPI   C2721202   3.275   1.992   9.749 -0.5162  0.4940  0.0055
  185SAPI   H7R21203   3.252   2.100   9.762 -0.4323  0.6589 -1.1246
  185SAPI   H7S21204   3.179   1.949   9.713 -1.1392 -0.3689  2.5244
  185SAPI   C2821205   3.386   1.980   9.645  0.3461 -0.1850 -0.1317
  185SAPI   H8R21206   3.487   1.994   9.686 -0.3337  0.4382  1.4432
  185SAPI   C2921207   3.379   1.958   9.511  0.9105  0.1129 -0.1512
  185SAPI   H9R21208   3.479   1.958   9.465  1.5778  1.3491  1.1839
  185SAPI  C21021209   3.255   1.938   9.427  0.0485 -0.6826 -0.2092
  185SAPI  H10R21210   3.161   1.914   9.480 -0.8152  2.7289  0.0032
  185SAPI  H10S21211   3.271   1.848   9.364 -0.6619 -2.4250  1.9652
  185SAPI  C21121212   3.217   2.054   9.339 -0.8299 -0.0516  0.2694
  185SAPI  H11R21213   3.158   2.130   9.392  0.8723 -0.0502  2.3062
  185SAPI  C21221214   3.268   2.074   9.214  0.3215  0.0152 -0.5802
  185SAPI  H12R21215   3.255   2.169   9.159 -0.7087  0.2212 -0.0144
  185SAPI  C21321216   3.351   1.979   9.134  0.1131  0.1005  0.0874
  185SAPI  H13R21217   3.388   1.900   9.203 -2.2706 -1.8397 -0.6973
  185SAPI  H13S21218   3.430   2.041   9.084 -2.6855  1.7478 -2.6344
  185SAPI  C21421219   3.264   1.908   9.033 -0.6098  0.7342 -0.1868
  185SAPI  H14R21220   3.175   1.862   9.078  0.9150 -1.2166  0.9734
  185SAPI  C21521221   3.281   1.891   8.900 -0.7776  0.4711 -0.0305
  185SAPI  H15R21222   3.209   1.834   8.839  1.5100 -0.1660 -2.3236
  185SAPI  C21621223   3.396   1.945   8.820  0.7180  0.0361  0.6213
  185SAPI  H16R21224   3.457   1.865   8.774 -1.7691 -0.9426 -1.1845
  185SAPI  H16S21225   3.460   2.015   8.878  0.4339 -0.1982  1.2216
  185SAPI  C21721226   3.331   2.023   8.700 -0.6271 -0.8477 -0.4543
  185SAPI  H17R21227   3.256   1.959   8.651 -0.0543 -1.6968 -0.2369
  185SAPI  H17S21228   3.410   2.036   8.623 -0.1658  2.3287  0.3764
  185SAPI  C21821229   3.268   2.153   8.749 -0.0193  0.2863  0.7046
  185SAPI  H18R21230   3.338   2.211   8.813  2.5126 -0.9302 -0.7979
  185SAPI  H18S21231   3.172   2.149   8.804  0.0229  1.8072  0.9242
  185SAPI  C21921232   3.229   2.250   8.638  0.0916  0.5042  0.8604
  185SAPI  H19R21233   3.204   2.347   8.687  1.0547  1.3055 -0.1632
  185SAPI  H19S21234   3.141   2.204   8.588  0.0947 -0.1900  1.4866
  185SAPI  C22021235   3.321   2.281   8.535 -0.0946 -0.5050  0.7702
  185SAPI  H20R21236   3.285   2.356   8.461  2.9232  1.2472  0.9067
  185SAPI  H20S21237   3.350   2.193   8.472  0.8918  0.1873  0.2333
  185SAPI  H20T21238   3.416   2.324   8.572 -0.4900 -0.1718  1.4019
  185SAPI   C3321239   3.713   2.059  10.364  0.3360  0.0656  0.4276
  185SAPI   H3X21240   3.798   2.129  10.379  1.2579 -0.5657 -1.4936
  185SAPI   H3Y21241   3.616   2.112  10.356  0.3781  0.4766  2.2395
  185SAPI   C3421242   3.742   1.993  10.224  0.1385 -0.1276  0.1371
  185SAPI   H4X21243   3.679   1.902  10.206 -1.1818  1.2169 -2.8042
  185SAPI   H4Y21244   3.842   1.946  10.229 -0.0905 -0.9304 -1.7279
  185SAPI   C3521245   3.735   2.084  10.103  0.2616  0.5207  0.3382
  185SAPI   H5X21246   3.801   2.171  10.123 -0.8837  1.7746 -1.0621
  185SAPI   H5Y21247   3.629   2.116  10.094  0.3207  0.6521  0.0779
  185SAPI   C3621248   3.765   2.011   9.969 -0.4956  0.1029  0.1006
  185SAPI   H6X21249   3.706   1.918   9.977  0.7722 -0.7062  0.3733
  185SAPI   H6Y21250   3.875   1.994   9.963 -0.3449  0.9928  0.1682
  185SAPI   C3721251   3.713   2.077   9.844 -0.3494 -0.1905  0.4056
  185SAPI   H7X21252   3.770   2.172   9.833 -2.6666  1.4291  1.5728
  185SAPI   H7Y21253   3.604   2.096   9.843 -0.2821  0.2474 -0.5362
  185SAPI   C3821254   3.752   1.994   9.720 -0.2101  0.5609  0.0798
  185SAPI   H8X21255   3.683   1.907   9.711 -0.1378  0.3428  1.4158
  185SAPI   H8Y21256   3.851   1.947   9.735  0.1387  1.5843  1.2105
  185SAPI   C3921257   3.763   2.084   9.596  0.2417  0.0544  1.2833
  185SAPI   H9X21258   3.850   2.152   9.604  0.2710  0.5075 -1.6783
  185SAPI   H9Y21259   3.672   2.148   9.601  0.5298  0.7819 -1.2680
  185SAPI  C31021260   3.764   2.002   9.469  0.7617  0.1991  0.1130
  185SAPI  H10X21261   3.686   1.923   9.471  0.9650  0.0058  0.6854
  185SAPI  H10Y21262   3.856   1.941   9.456  0.4829 -0.0180 -0.9523
  185SAPI  C31121263   3.747   2.087   9.347 -0.0193 -0.2753 -0.4172
  185SAPI  H11X21264   3.825   2.167   9.355 -1.2004  0.7914  0.9216
  185SAPI  H11Y21265   3.650   2.141   9.338  0.8079  1.1109 -1.4280
  185SAPI  C31221266   3.763   1.999   9.219 -0.1252 -0.3752  0.2143
  185SAPI  H12X21267   3.683   1.923   9.208  1.6170 -2.4441  0.8969
  185SAPI  H12Y21268   3.857   1.942   9.238 -0.3791 -0.9877 -0.3223
  185SAPI  C31321269   3.780   2.083   9.091 -0.2838  0.3062  0.1614
  185SAPI  H13X21270   3.854   2.162   9.113 -0.3196  0.7818 -1.3304
  185SAPI  H13Y21271   3.687   2.141   9.072 -0.0369  1.1640  1.4116
  185SAPI  C31421272   3.793   1.988   8.968 -0.0803 -0.1796 -0.1305
  185SAPI  H14X21273   3.704   1.922   8.960  0.1326 -0.2821 -2.5111
  185SAPI  H14Y21274   3.884   1.925   8.982 -1.0488 -1.3289  1.3112
  185SAPI  C31521275   3.807   2.059   8.829  0.7152 -0.3512 -0.4868
  185SAPI  H15X21276   3.702   2.092   8.811  0.8633  0.3268 -0.1221
  185SAPI  H15Y21277   3.831   1.993   8.743  1.7932  0.6600 -0.9776
  185SAPI  C31621278   3.901   2.179   8.842  0.7518  1.2054 -0.0047
  185SAPI  H16X21279   4.002   2.150   8.878  0.2237  0.8282  1.2351
  185SAPI  H16Y21280   3.869   2.253   8.919 -0.5445 -0.5999  1.2603
  185SAPI  C31721281   3.913   2.259   8.708  0.3661 -0.6741  0.0330
  185SAPI  H17X21282   3.951   2.191   8.628 -1.6727 -0.9018 -0.8339
  185SAPI  H17Y21283   3.979   2.347   8.720  0.6252 -1.1965  3.4885
  185SAPI  C31821284   3.776   2.303   8.648 -0.2664  0.1633  0.5671
  185SAPI  H18X21285   3.737   2.215   8.593 -1.7767  1.5304 -0.6690
  185SAPI  H18Y21286   3.789   2.395   8.587 -0.8877  0.9629  1.6163
  185SAPI  H18Z21287   3.712   2.332   8.734  0.7548 -0.9663  1.7404
  186SAPI   C1221288   4.753   2.236  11.109  0.0080 -0.5393  0.4365
  186SAPI    H221289   4.719   2.284  11.015 -0.5301 -3.3778 -0.9387
  186SAPI    O221290   4.779   2.336  11.210  0.2672 -0.9038  1.0346
  186SAPI   HO221291   4.836   2.395  11.161 -1.7242  0.3299  0.1101
  186SAPI   C1321292   4.643   2.144  11.157 -0.4229  0.1594 -0.0149
  186SAPI    H321293   4.638   2.072  11.072  2.5826  1.0685 -1.1014
  186SAPI    O321294   4.519   2.218  11.172  0.0561 -0.3102  0.1693
  186SAPI   HO321295   4.534   2.279  11.245 -0.1917  0.0933 -0.1133
  186SAPI   C1421296   4.680   2.058  11.275 -0.2300 -0.6939 -0.3377
  186SAPI    H421297   4.707   2.127  11.357  1.8223  0.3299 -1.7738
  186SAPI    O421298   4.573   1.978  11.320  0.3671 -0.3783  0.2491
  186SAPI   HO421299   4.586   1.953  11.411 -0.6132  0.5035  0.6506
  186SAPI   C1521300   4.809   1.982  11.245  0.3264  0.6434 -0.0114
  186SAPI    H521301   4.786   1.910  11.164 -1.4617  0.6727  0.4133
  186SAPI    O521302   4.840   1.896  11.359 -0.3192 -0.2608  0.1939
  186SAPI   HO521303   4.887   1.825  11.315 -0.6708  0.1666 -0.9071
  186SAPI   C1621304   4.917   2.079  11.202  0.0298 -0.9635 -0.3369
  186SAPI    H621305   4.942   2.151  11.283 -3.3598 -1.0507  0.9276
  186SAPI    O621306   5.043   2.008  11.184 -0.4363  0.1904 -0.1286
  186SAPI   HO621307   5.063   2.012  11.090 -1.6226  0.7890 -0.3710
  186SAPI   C1121308   4.871   2.151  11.072  0.0783  0.1191 -0.5396
  186SAPI    H121309   4.841   2.071  11.001 -0.6093  0.3854 -0.5597
  186SAPI     P21310   5.075   2.194  10.913  0.0154 -0.2631 -0.4186
  186SAPI   O1321311   5.137   2.061  10.936 -0.0359  0.3039 -0.5237
  186SAPI   O1421312   5.164   2.305  10.895  0.4721 -0.6680  0.2486
  186SAPI   O1221313   4.974   2.245  11.025  0.5142 -0.1301 -0.1664
  186SAPI   O1121314   4.985   2.177  10.781 -0.0690 -0.2391 -0.3084
  186SAPI    C121315   4.931   2.294  10.722  0.1447 -0.7641 -0.0027
  186SAPI    HA21316   4.833   2.310  10.773 -0.5401 -0.9530 -1.2244
  186SAPI    HB21317   4.985   2.389  10.742  0.0274 -0.9748  1.4651
  186SAPI    C221318   4.915   2.272  10.574 -0.1740 -0.4963  0.3528
  186SAPI    HS21319   4.869   2.175  10.548  1.6902 -1.4639  0.4879
  186SAPI   O2121320   5.039   2.284  10.507  0.1742 -0.7702 -0.0052
  186SAPI   C2121321   5.107   2.177  10.508  0.1553 -0.4144 -0.1100
  186SAPI   O2221322   5.073   2.065  10.537  0.1153 -0.2278  0.2854
  186SAPI   C2221323   5.241   2.203  10.445  0.4234  0.6905 -0.0791
  186SAPI   H2R21324   5.252   2.308  10.412  2.2271  0.1832 -1.2490
  186SAPI   H2S21325   5.315   2.195  10.527  0.5847 -0.4764 -0.3280
  186SAPI    C321326   4.818   2.376  10.515  0.6345  0.2773  0.4280
  186SAPI    HX21327   4.850   2.482  10.518 -2.7607  1.4327 -0.1459
  186SAPI    HY21328   4.727   2.368  10.579  0.1792  2.5500  0.1498
  186SAPI   O3121329   4.794   2.339  10.380  0.0253  0.1500  0.5515
  186SAPI   C3121330   4.725   2.410  10.300  0.6256  0.7465 -0.9179
  186SAPI   O3221331   4.677   2.523  10.321 -0.3120  0.1472  0.0449
  186SAPI   C3221332   4.719   2.326  10.174 -0.2434  0.4335  0.0362
  186SAPI   H2X21333   4.679   2.228  10.208  3.1501 -0.6918  1.2680
  186SAPI   H2Y21334   4.825   2.309  10.144 -0.1842  0.0560  0.4471
  186SAPI   C2321335   5.302   2.104  10.336 -0.1982  0.2256 -1.0660
  186SAPI   H3R21336   5.268   2.001  10.361 -2.8793  1.5423  1.4009
  186SAPI   H3S21337   5.412   2.115  10.345 -0.3302  1.5185 -0.8993
  186SAPI   C2421338   5.260   2.138  10.193 -1.0076 -0.6296 -0.6250
  186SAPI   H4R21339   5.293   2.244  10.181  0.0212 -0.6794  1.3825
  186SAPI   H4S21340   5.149   2.144  10.193 -1.1162 -2.2598 -1.8568
  186SAPI   C2521341   5.306   2.031  10.100 -0.7548  0.4251  0.1115
  186SAPI   H5R21342   5.331   1.941  10.159 -1.0613  1.2381  1.5126
  186SAPI   C2621343   5.332   2.031   9.967 -0.0615  0.0678 -0.1575
  186SAPI   H6R21344   5.344   1.934   9.916 -1.9034  0.5903 -1.7082
  186SAPI   C2721345   5.332   2.149   9.873  0.9238  0.4429  0.0403
  186SAPI   H7R21346   5.328   2.245   9.927  1.8353  0.3158  0.3457
  186SAPI   H7S21347   5.231   2.147   9.826 -0.6894  2.2470  3.1436
  186SAPI   C2821348   5.446   2.148   9.778  0.4536 -0.3415 -0.3188
  186SAPI   H8R21349   5.541   2.174   9.827 -0.4683  1.0242  0.8373
  186SAPI   C2921350   5.444   2.096   9.651 -0.5155 -0.9757 -0.6836
  186SAPI   H9R21351   5.540   2.100   9.599 -0.0773  1.0801  0.1681
  186SAPI  C21021352   5.330   2.045   9.572 -0.1957 -0.2617  0.2380
  186SAPI  H10R21353   5.296   2.128   9.506 -0.3245  0.5680  1.3247
  186SAPI  H10S21354   5.248   2.026   9.644  1.1604  0.8034  2.1718
  186SAPI  C21121355   5.361   1.921   9.492 -0.5883 -0.5955  0.6869
  186SAPI  H11R21356   5.417   1.846   9.551 -0.9554 -0.5711  1.0641
  186SAPI  C21221357   5.338   1.889   9.366 -0.1298 -0.0751 -1.2872
  186SAPI  H12R21358   5.353   1.788   9.324 -3.0352 -1.3924  0.5877
  186SAPI  C21321359   5.273   1.986   9.271  0.1802 -0.1272  0.5190
  186SAPI  H13R21360   5.307   2.091   9.282  2.5724 -0.6771 -1.0505
  186SAPI  H13S21361   5.165   1.996   9.297  0.5667  2.6714  1.3291
  186SAPI  C21421362   5.283   1.941   9.123 -0.0907  0.0600  0.1937
  186SAPI  H14R21363   5.210   1.864   9.093 -0.6028  0.7205 -0.2765
  186SAPI  C21521364   5.366   1.991   9.033  0.1264  0.5908 -0.0997
  186SAPI  H15R21365   5.355   1.950   8.932 -4.1738 -0.3933  0.5787
  186SAPI  C21621366   5.470   2.096   9.065  0.4647 -0.7642  0.4361
  186SAPI  H16R21367   5.477   2.106   9.175  0.1245 -0.6685  0.4516
  186SAPI  H16S21368   5.445   2.191   9.012 -0.6356  0.0929  2.4072
  186SAPI  C21721369   5.608   2.050   9.027 -0.6384  0.1857  0.0133
  186SAPI  H17R21370   5.605   1.985   8.937  1.0615 -2.3811  1.6636
  186SAPI  H17S21371   5.652   1.984   9.105 -2.9900 -1.2964  0.1810
  186SAPI  C21821372   5.695   2.174   9.002 -0.4681  0.2387 -0.6248
  186SAPI  H18R21373   5.678   2.233   9.095  1.7160  0.3593 -0.2609
  186SAPI  H18S21374   5.658   2.236   8.918  0.1859 -1.4932 -2.2501
  186SAPI  C21921375   5.848   2.146   8.998 -0.4325 -1.0266  0.5594
  186SAPI  H19R21376   5.861   2.036   9.008  1.9264 -0.7692  1.0045
  186SAPI  H19S21377   5.902   2.194   9.083  0.0502  1.3449 -0.9965
  186SAPI  C22021378   5.922   2.197   8.869  0.2466  0.2073  0.1992
  186SAPI  H20R21379   5.881   2.133   8.788  0.4636  0.6839 -0.2910
  186SAPI  H20S21380   6.031   2.185   8.880  0.4254 -0.8911 -2.1588
  186SAPI  H20T21381   5.906   2.307   8.860  1.1940  0.3291 -0.1159
  186SAPI   C3321382   4.638   2.385  10.057 -0.1634 -0.7248  0.0717
  186SAPI   H3X21383   4.660   2.494  10.054  0.9739 -0.9635 -1.0583
  186SAPI   H3Y21384   4.530   2.384  10.084  0.5143 -1.8733  3.0671
  186SAPI   C3421385   4.657   2.309   9.922  0.0060  0.5860  0.0165
  186SAPI   H4X21386   4.631   2.201   9.932  1.4648  0.1159 -0.8996
  186SAPI   H4Y21387   4.765   2.320   9.896 -0.1597  0.9856 -0.5257
  186SAPI   C3521388   4.581   2.371   9.801 -0.0578  0.9590 -0.7119
  186SAPI   H5X21389   4.617   2.472   9.772 -1.8561  1.3982 -1.5432
  186SAPI   H5Y21390   4.472   2.373   9.823  0.0284 -0.3101 -0.0579
  186SAPI   C3621391   4.595   2.280   9.677  0.5697 -0.0493 -0.4196
  186SAPI   H6X21392   4.554   2.177   9.690  0.2223 -0.2762 -2.9474
  186SAPI   H6Y21393   4.703   2.279   9.653  0.4556  0.0871 -0.9390
  186SAPI   C3721394   4.517   2.332   9.554  0.4886 -0.8475  0.1152
  186SAPI   H7X21395   4.413   2.355   9.585  0.4865  1.4651 -1.3376
  186SAPI   H7Y21396   4.513   2.249   9.480 -1.0887 -2.2239  1.6600
  186SAPI   C3821397   4.578   2.452   9.491 -0.0741  0.4624  0.7188
  186SAPI   H8X21398   4.683   2.429   9.463 -0.4309 -0.8702  0.3810
  186SAPI   H8Y21399   4.566   2.535   9.563 -2.8996  2.1545 -1.5123
  186SAPI   C3921400   4.510   2.487   9.356 -0.2295 -0.2476 -0.7735
  186SAPI   H9X21401   4.417   2.546   9.367  0.5034  1.1428 -1.6550
  186SAPI   H9Y21402   4.493   2.391   9.302 -0.0333 -0.2556 -0.8231
  186SAPI  C31021403   4.608   2.560   9.253 -0.5688  0.4361 -0.8068
  186SAPI  H10X21404   4.693   2.494   9.224  0.8088  1.3066  1.0573
  186SAPI  H10Y21405   4.632   2.657   9.302  0.2035 -0.2869  0.3009
  186SAPI  C31121406   4.523   2.594   9.133 -0.1464 -0.2438 -0.6854
  186SAPI  H11X21407   4.434   2.651   9.169  1.4168  0.6113  2.0846
  186SAPI  H11Y21408   4.493   2.500   9.082 -0.2973  0.0201 -1.0904
  186SAPI  C31221409   4.578   2.692   9.018 -1.4484  0.0484 -0.0069
  186SAPI  H12X21410   4.655   2.647   8.953 -1.4357  0.8011 -0.5293
  186SAPI  H12Y21411   4.625   2.785   9.058  2.5757 -1.2752 -1.1733
  186SAPI  C31321412   4.468   2.742   8.922 -0.3974 -0.0673 -0.0774
  186SAPI  H13X21413   4.387   2.796   8.975  0.8026 -0.1454  1.9185
  186SAPI  H13Y21414   4.427   2.645   8.887  1.8601 -0.4686 -1.8661
  186SAPI  C31421415   4.513   2.835   8.804  0.0823 -1.0555  0.1046
  186SAPI  H14X21416   4.592   2.769   8.763 -0.1993  0.5459 -3.4391
  186SAPI  H14Y21417   4.550   2.927   8.853 -2.0241 -0.7192  1.1953
  186SAPI  C31521418   4.402   2.865   8.694  0.0993  0.8979 -0.1609
  186SAPI  H15X21419   4.454   2.926   8.617  1.6887 -0.7890 -0.5114
  186SAPI  H15Y21420   4.320   2.925   8.739  1.5148  2.9510 -0.1816
  186SAPI  C31621421   4.340   2.734   8.632 -0.2826  0.4026  0.1438
  186SAPI  H16X21422   4.280   2.679   8.707 -2.0128  0.9851 -0.7579
  186SAPI  H16Y21423   4.420   2.672   8.587 -0.2158  2.7832 -3.4648
  186SAPI  C31721424   4.222   2.763   8.532 -0.3915  0.5559  0.1051
  186SAPI  H17X21425   4.157   2.833   8.589  0.6388  2.3392 -0.8563
  186SAPI  H17Y21426   4.180   2.662   8.511  1.4447 -0.1059 -0.6053
  186SAPI  C31821427   4.266   2.840   8.406 -0.0639 -0.1627  0.7496
  186SAPI  H18X21428   4.348   2.912   8.428  0.0203  0.3111 -0.9943
  186SAPI  H18Y21429   4.179   2.895   8.363  0.0040  1.0684  2.0941
  186SAPI  H18Z21430   4.306   2.767   8.333 -1.2811 -1.6040  1.4507
  187SAPI   C1221431   6.734   3.246   6.389 -0.7482  0.3581 -0.1877
  187SAPI    H221432   6.764   3.349   6.363 -2.0518  0.7030 -0.3866
  187SAPI    O221433   6.707   3.173   6.268 -0.0291 -0.2607  0.0017
  187SAPI   HO221434   6.613   3.191   6.255 -0.0545  1.4955  2.1023
  187SAPI   C1321435   6.841   3.174   6.471  0.7695 -0.2857  0.0179
  187SAPI    H321436   6.852   3.233   6.565 -0.2005  0.6569 -0.4310
  187SAPI    O321437   6.966   3.182   6.407  0.1880 -0.0539  0.7664
  187SAPI   HO321438   7.033   3.202   6.472  0.3565  0.2108  0.5186
  187SAPI   C1421439   6.789   3.029   6.497  0.2409 -0.4248  0.2451
  187SAPI    H421440   6.781   2.972   6.402  0.1008 -1.5688  0.9117
  187SAPI    O421441   6.890   2.952   6.566 -0.3395  0.1133  0.3279
  187SAPI   HO421442   6.952   2.909   6.506 -0.3491  1.0191 -0.3483
  187SAPI   C1521443   6.653   3.027   6.572  0.1595  0.5627  0.3362
  187SAPI    H521444   6.681   3.073   6.669  0.1283 -1.3269  1.2772
  187SAPI    O521445   6.605   2.893   6.594 -0.3994  0.1552 -0.1999
  187SAPI   HO521446   6.647   2.860   6.674 -0.6875 -0.5985 -0.3582
  187SAPI   C1621447   6.548   3.114   6.506  0.5538  0.2574 -0.3659
  187SAPI    H621448   6.505   3.061   6.419  1.1327  0.9294 -1.0817
  187SAPI    O621449   6.441   3.141   6.598 -0.0849 -0.0581 -0.3091
  187SAPI   HO621450   6.431   3.073   6.666  1.3540  0.2000  0.2035
  187SAPI   C1121451   6.606   3.250   6.470  0.1244  0.2128  0.1493
  187SAPI    H121452   6.626   3.294   6.570 -1.3799  0.1187  0.5108
  187SAPI     P21453   6.514   3.491   6.434  0.1018  0.2194 -0.1991
  187SAPI   O1321454   6.413   3.553   6.349  0.7987  0.0365  0.4557
  187SAPI   O1421455   6.653   3.548   6.423  0.4149 -0.0463 -0.5491
  187SAPI   O1221456   6.510   3.328   6.400 -0.3543  0.8450  0.2638
  187SAPI   O1121457   6.469   3.503   6.589  0.3508  0.1768  0.1280
  187SAPI    C121458   6.428   3.629   6.642 -1.0886  0.7027  0.1200
  187SAPI    HA21459   6.472   3.723   6.601 -1.0823  1.5369  1.9485
  187SAPI    HB21460   6.318   3.637   6.630 -1.1863  1.2952  1.2505
  187SAPI    C221461   6.448   3.635   6.801  0.3157 -0.1018  0.1217
  187SAPI    HS21462   6.554   3.660   6.825  0.7625 -0.3546 -1.4770
  187SAPI   O2121463   6.413   3.508   6.860  0.2524  0.1820 -0.3581
  187SAPI   C2121464   6.505   3.418   6.868 -0.1312 -0.1310  0.2030
  187SAPI   O2221465   6.624   3.428   6.826  0.0601  0.1996 -0.2871
  187SAPI   C2221466   6.442   3.291   6.924 -0.2048 -0.4727 -0.3599
  187SAPI   H2R21467   6.355   3.317   6.988 -0.1395  1.1437 -0.8853
  187SAPI   H2S21468   6.405   3.233   6.837  2.1537  1.0133 -2.5006
  187SAPI    C321469   6.339   3.744   6.857 -0.2305  0.5044  1.2265
  187SAPI    HX21470   6.252   3.717   6.793 -0.1361  0.9814  0.8941
  187SAPI    HY21471   6.371   3.845   6.823  0.1550 -0.7580 -2.6828
  187SAPI   O3121472   6.290   3.724   6.991  0.0726 -0.7837 -0.1903
  187SAPI   C3121473   6.383   3.743   7.082 -0.0103 -0.2011 -0.0863
  187SAPI   O3221474   6.488   3.794   7.058 -0.2025 -0.4754 -0.5522
  187SAPI   C3221475   6.326   3.687   7.212 -0.4525 -0.7602 -0.6140
  187SAPI   H2X21476   6.304   3.579   7.201  0.2009 -1.2251  1.9176
  187SAPI   H2Y21477   6.232   3.743   7.234 -1.0044 -1.1015 -2.0036
  187SAPI   C2321478   6.538   3.197   6.996 -0.2823 -0.0465 -0.4594
  187SAPI   H3R21479   6.637   3.170   6.955 -0.2844 -0.0474 -0.4640
  187SAPI   H3S21480   6.492   3.098   7.019  1.7751 -0.8196  0.6274
  187SAPI   C2421481   6.579   3.260   7.134  0.2143  1.0637 -0.2322
  187SAPI   H4R21482   6.631   3.355   7.111 -1.0492  2.2825  1.6866
  187SAPI   H4S21483   6.653   3.199   7.189 -0.8767 -0.6689 -0.6000
  187SAPI   C2521484   6.460   3.292   7.222  0.3142  0.1549 -0.8031
  187SAPI   H5R21485   6.402   3.380   7.191 -0.2309 -1.2221 -4.1218
  187SAPI   C2621486   6.419   3.212   7.324  0.6073  0.3131 -0.2542
  187SAPI   H6R21487   6.339   3.245   7.391  0.1459 -0.5845 -0.3516
  187SAPI   C2721488   6.489   3.089   7.373 -0.3039  0.3049 -0.0614
  187SAPI   H7R21489   6.548   3.040   7.293 -1.2894  1.0498 -1.2656
  187SAPI   H7S21490   6.414   3.014   7.406  0.0288 -1.3152 -2.6890
  187SAPI   C2821491   6.582   3.111   7.497 -0.9914  0.2805  0.4409
  187SAPI   H8R21492   6.682   3.068   7.481 -1.0034  0.5967 -0.5148
  187SAPI   C2921493   6.544   3.151   7.617  0.5737 -0.3875  0.2165
  187SAPI   H9R21494   6.619   3.148   7.698  0.2687  3.0478  0.7798
  187SAPI  C21021495   6.406   3.197   7.659  0.0580  0.1325 -0.6903
  187SAPI  H10R21496   6.332   3.135   7.604  0.3153 -1.8079  1.0529
  187SAPI  H10S21497   6.387   3.299   7.618 -3.9628 -0.9492 -2.0475
  187SAPI  C21121498   6.387   3.193   7.810  0.0994 -0.1244 -0.1720
  187SAPI  H11R21499   6.471   3.235   7.865  0.2812 -0.1064 -0.4590
  187SAPI  C21221500   6.288   3.134   7.878  0.2494  0.4617 -0.9692
  187SAPI  H12R21501   6.287   3.130   7.988  0.2821  1.5186 -0.9241
  187SAPI  C21321502   6.170   3.070   7.818  0.0353  0.7439 -0.0991
  187SAPI  H13R21503   6.171   3.068   7.707  2.8226  2.0151 -0.1987
  187SAPI  H13S21504   6.080   3.120   7.860 -2.0303 -2.2214 -0.6891
  187SAPI  C21421505   6.169   2.925   7.854 -1.3195  0.0591 -0.2286
  187SAPI  H14R21506   6.223   2.891   7.944 -0.3141  0.4952 -0.6455
  187SAPI  C21521507   6.120   2.820   7.777  0.3210 -0.4511 -0.6890
  187SAPI  H15R21508   6.124   2.720   7.821 -1.5665  1.0647  3.4857
  187SAPI  C21621509   6.048   2.828   7.641  0.1515  0.6995  1.0961
  187SAPI  H16R21510   5.984   2.917   7.628 -0.7722 -0.1131 -0.1479
  187SAPI  H16S21511   5.980   2.742   7.623  0.4288  0.8902 -1.1080
  187SAPI  C21721512   6.146   2.837   7.523  0.4434  0.0806  0.0632
  187SAPI  H17R21513   6.214   2.750   7.523  0.6774  0.2607  0.8154
  187SAPI  H17S21514   6.204   2.929   7.543 -2.1272  2.0664 -1.0785
  187SAPI  C21821515   6.073   2.861   7.390  0.3327 -0.2786 -0.0985
  187SAPI  H18R21516   6.003   2.947   7.385 -0.1573 -0.5507  1.4201
  187SAPI  H18S21517   6.013   2.770   7.370 -2.4160  1.4129 -0.0704
  187SAPI  C21921518   6.170   2.883   7.273 -0.4503 -0.5387  0.9606
  187SAPI  H19R21519   6.247   2.804   7.260 -0.4803 -0.6364  1.3897
  187SAPI  H19S21520   6.214   2.980   7.306  0.1211  0.1425 -1.5525
  187SAPI  C22021521   6.115   2.900   7.133 -0.5925  0.1162  0.0499
  187SAPI  H20R21522   6.065   2.803   7.110  0.4468 -0.7799  1.3798
  187SAPI  H20S21523   6.203   2.922   7.069 -0.2283 -2.9859 -0.6551
  187SAPI  H20T21524   6.047   2.987   7.121  0.8143  1.1953 -0.5044
  187SAPI   C3321525   6.413   3.708   7.338  0.4887  0.1512 -0.3839
  187SAPI   H3X21526   6.427   3.816   7.358 -2.3541  0.2712  1.4878
  187SAPI   H3Y21527   6.515   3.669   7.316  0.0782 -0.2230 -1.7234
  187SAPI   C3421528   6.346   3.657   7.460 -0.4970 -0.4878 -0.0464
  187SAPI   H4X21529   6.339   3.547   7.450  1.4070 -0.5282 -1.5979
  187SAPI   H4Y21530   6.246   3.706   7.461 -1.4433 -2.2991 -1.6913
  187SAPI   C3521531   6.408   3.695   7.598 -0.4083  0.0884 -0.0486
  187SAPI   H5X21532   6.439   3.801   7.606 -1.5005  0.4214 -0.1666
  187SAPI   H5Y21533   6.501   3.634   7.597 -1.3583 -1.4326  0.5366
  187SAPI   C3621534   6.314   3.654   7.720  0.3002 -0.0746 -0.5446
  187SAPI   H6X21535   6.248   3.576   7.675  2.4869 -0.9577 -2.4984
  187SAPI   H6Y21536   6.244   3.739   7.736  1.4387  0.9677 -0.9448
  187SAPI   C3721537   6.395   3.621   7.847  0.2611  0.7570  0.3539
  187SAPI   H7X21538   6.460   3.706   7.875  0.3919  1.8279 -2.8210
  187SAPI   H7Y21539   6.450   3.526   7.829 -0.5823  0.0658  1.2617
  187SAPI   C3821540   6.298   3.589   7.966 -0.1505  0.0511  0.1309
  187SAPI   H8X21541   6.217   3.520   7.935 -0.3285  0.2760  0.0983
  187SAPI   H8Y21542   6.255   3.685   8.001  2.5418  0.8085  1.6935
  187SAPI   C3921543   6.365   3.528   8.085  0.0451 -0.2636  0.4584
  187SAPI   H9X21544   6.425   3.604   8.139  0.1310  0.3382 -0.4712
  187SAPI   H9Y21545   6.435   3.459   8.033  1.4373  2.1336 -1.0168
  187SAPI  C31021546   6.275   3.455   8.187  0.7558 -0.5242 -0.1901
  187SAPI  H10X21547   6.173   3.499   8.182  0.4409 -1.0267  1.3208
  187SAPI  H10Y21548   6.297   3.481   8.293 -1.4289  1.2246 -0.0620
  187SAPI  C31121549   6.255   3.307   8.167  0.3091 -0.0662  0.2043
  187SAPI  H11X21550   6.356   3.268   8.145  0.7142  1.0128  0.0940
  187SAPI  H11Y21551   6.183   3.295   8.082  1.6662 -0.7762 -0.8882
  187SAPI  C31221552   6.199   3.251   8.298 -0.0563 -0.3059 -0.0890
  187SAPI  H12X21553   6.101   3.300   8.316  0.6829  0.8416  1.0704
  187SAPI  H12Y21554   6.268   3.278   8.381  0.2819  0.4540 -0.6143
  187SAPI  C31321555   6.186   3.099   8.303  0.3024 -0.1908  0.9612
  187SAPI  H13X21556   6.166   3.080   8.411 -1.4300 -0.0063  0.7143
  187SAPI  H13Y21557   6.283   3.054   8.275 -0.2398 -0.3586 -0.8228
  187SAPI  C31421558   6.068   3.037   8.226 -1.2561 -0.0283 -0.5444
  187SAPI  H14X21559   6.065   3.072   8.121  1.2030 -0.3866 -0.7862
  187SAPI  H14Y21560   5.974   3.064   8.279 -1.3333 -1.0489 -0.1247
  187SAPI  C31521561   6.070   2.883   8.228  0.3505  0.5261 -0.0255
  187SAPI  H15X21562   6.056   2.854   8.335 -0.3140  1.3722  0.1290
  187SAPI  H15Y21563   6.168   2.843   8.194 -0.5445 -0.9750 -0.9917
  187SAPI  C31621564   5.958   2.827   8.137 -0.2561  0.4593 -0.5759
  187SAPI  H16X21565   5.977   2.844   8.029  0.4612  0.3768 -0.4665
  187SAPI  H16Y21566   5.862   2.874   8.168 -0.5687 -0.0343 -0.7788
  187SAPI  C31721567   5.946   2.674   8.162 -0.5847 -0.3112 -0.8504
  187SAPI  H17X21568   5.935   2.657   8.271 -1.1995 -4.6116 -1.4424
  187SAPI  H17Y21569   6.042   2.627   8.133  0.9613  2.3476 -0.4100
  187SAPI  C31821570   5.831   2.606   8.081  0.2327 -0.3310 -0.7685
  187SAPI  H18X21571   5.744   2.674   8.091  0.9683  0.5981 -0.5269
  187SAPI  H18Y21572   5.813   2.498   8.102  0.0578 -0.2939 -0.7258
  187SAPI  H18Z21573   5.862   2.604   7.974 -0.4189  0.5095 -0.9849
  188SAPI   C1221574   3.530   5.853   6.338  0.1708 -0.4437  0.5835
  188SAPI    H221575   3.492   5.916   6.421 -1.1686  1.2143 -1.1856
  188SAPI    O221576   3.413   5.791   6.279  0.7711 -0.0365  0.1732
  188SAPI   HO221577   3.363   5.743   6.345 -0.1227 -2.1103 -1.8580
  188SAPI   C1321578   3.589   5.955   6.244 -0.9000  0.1373 -0.1003
  188SAPI    H321579   3.677   6.011   6.283 -1.1055  2.5276 -2.7162
  188SAPI    O321580   3.493   6.049   6.206 -0.0334 -0.5456 -0.1411
  188SAPI   HO321581   3.422   5.995   6.170  0.6630 -0.9599 -0.9290
  188SAPI   C1421582   3.649   5.874   6.127 -0.0770 -0.2140 -0.4699
  188SAPI    H421583   3.561   5.827   6.077 -1.0381  0.7104  0.3143
  188SAPI    O421584   3.717   5.963   6.034  0.3288 -0.3840 -0.3850
  188SAPI   HO421585   3.668   5.953   5.952  0.5023  2.6405 -0.9674
  188SAPI   C1521586   3.745   5.764   6.169 -0.1307 -0.4215 -0.0201
  188SAPI    H521587   3.832   5.808   6.222  0.9243 -1.2250 -1.0159
  188SAPI    O521588   3.793   5.694   6.057  0.7095  0.1860 -0.4320
  188SAPI   HO521589   3.843   5.619   6.091  0.2497 -0.1239 -0.4399
  188SAPI   C1621590   3.677   5.672   6.266  0.6588 -0.0933  0.4813
  188SAPI    H621591   3.590   5.619   6.223  1.2196 -1.2974  0.7950
  188SAPI    O621592   3.772   5.575   6.315  0.3488 -0.7019  0.2972
  188SAPI   HO621593   3.774   5.594   6.409  0.1864  2.0857 -0.1710
  188SAPI   C1121594   3.628   5.750   6.388 -0.4501 -0.1809 -0.8609
  188SAPI    H121595   3.722   5.800   6.421 -0.8943 -0.1816  0.4509
  188SAPI     P21596   3.459   5.675   6.589 -0.1726  0.2340  0.3426
  188SAPI   O1321597   3.460   5.576   6.696 -0.2776 -0.1522  0.1136
  188SAPI   O1421598   3.333   5.686   6.508 -0.5606  0.0029  0.0030
  188SAPI   O1221599   3.587   5.657   6.489 -0.3340  0.5912 -0.3327
  188SAPI   O1121600   3.491   5.811   6.648  0.1830 -0.6275 -0.2310
  188SAPI    C121601   3.570   5.825   6.766  0.1295 -0.1828 -0.1796
  188SAPI    HA21602   3.543   5.752   6.846  0.6213  0.6933  0.8072
  188SAPI    HB21603   3.676   5.803   6.743 -0.0907 -1.0351 -0.4179
  188SAPI    C221604   3.567   5.973   6.813  0.4174  0.2543 -0.3157
  188SAPI    HS21605   3.669   6.016   6.820  0.3290  0.2066  1.5518
  188SAPI   O2121606   3.485   5.991   6.936 -0.0401  0.2213  0.2255
  188SAPI   C2121607   3.571   5.989   7.038  0.8790  1.1381 -0.4739
  188SAPI   O2221608   3.688   5.956   7.034  0.8274  0.2020  0.1646
  188SAPI   C2221609   3.501   6.043   7.161  0.0322 -0.4238  0.3604
  188SAPI   H2R21610   3.471   6.148   7.141  1.4342  0.2973  1.8359
  188SAPI   H2S21611   3.407   5.985   7.180  0.2305 -0.6121  0.8033
  188SAPI    C321612   3.494   6.064   6.711 -0.3857 -0.1769 -0.6804
  188SAPI    HX21613   3.394   6.016   6.700 -0.7733  0.4725 -0.0057
  188SAPI    HY21614   3.536   6.053   6.608 -1.6238  2.6077 -1.5868
  188SAPI   O3121615   3.471   6.201   6.762  0.0966  0.0551  0.2655
  188SAPI   C3121616   3.552   6.290   6.714 -0.4333  0.5733 -0.1020
  188SAPI   O3221617   3.652   6.262   6.640  0.4956  0.6946 -0.5786
  188SAPI   C3221618   3.524   6.426   6.778 -0.3195 -0.2543 -0.3511
  188SAPI   H2X21619   3.420   6.455   6.752  0.2021  3.9721  1.3885
  188SAPI   H2Y21620   3.597   6.497   6.733  0.0734  1.0730  2.1793
  188SAPI   C2321621   3.594   6.043   7.288  0.1061  0.2156  0.1279
  188SAPI   H3R21622   3.688   6.084   7.246  1.2521 -0.7882  1.5818
  188SAPI   H3S21623   3.619   5.947   7.338  2.4997  0.9900  0.5293
  188SAPI   C2421624   3.533   6.134   7.396 -0.5714 -0.1494 -0.2827
  188SAPI   H4R21625   3.509   6.236   7.358  0.2699  0.8061  1.5996
  188SAPI   H4S21626   3.616   6.152   7.468 -0.5746  0.8582 -0.5108
  188SAPI   C2521627   3.420   6.070   7.477 -0.2705  0.8304  0.2964
  188SAPI   H5R21628   3.356   6.003   7.418  1.2556  0.5689 -1.0992
  188SAPI   C2621629   3.406   6.084   7.611  0.6224 -0.6195  0.0761
  188SAPI   H6R21630   3.324   6.022   7.649 -0.0882 -0.6971 -1.4876
  188SAPI   C2721631   3.492   6.175   7.698  0.2321  1.3837 -0.3407
  188SAPI   H7R21632   3.587   6.200   7.647  0.1664  1.9418 -0.1996
  188SAPI   H7S21633   3.518   6.119   7.790 -3.8547 -0.6151 -0.1634
  188SAPI   C2821634   3.412   6.298   7.744  0.5909  0.4172 -0.4022
  188SAPI   H8R21635   3.437   6.393   7.695  0.7379  0.6672  0.1519
  188SAPI   C2921636   3.325   6.299   7.850 -1.2025 -0.4612  0.1543
  188SAPI   H9R21637   3.287   6.399   7.874  1.7661  0.8774 -0.3204
  188SAPI  C21021638   3.298   6.182   7.937  0.3041  0.2183  0.3217
  188SAPI  H10R21639   3.370   6.099   7.923  0.7793  0.4164  1.4663
  188SAPI  H10S21640   3.203   6.135   7.904  1.1653 -0.8886 -0.6712
  188SAPI  C21121641   3.293   6.199   8.088 -0.4849  0.4067 -1.4265
  188SAPI  H11R21642   3.374   6.259   8.132 -0.0295  0.1987 -1.9768
  188SAPI  C21221643   3.214   6.131   8.178 -0.3788 -1.1328  0.7500
  188SAPI  H12R21644   3.207   6.170   8.281 -0.4264  1.9374 -0.3146
  188SAPI  C21321645   3.118   6.021   8.139 -0.0153 -0.2904  0.6902
  188SAPI  H13R21646   3.131   5.926   8.195  1.8189 -1.0501 -0.9003
  188SAPI  H13S21647   3.130   5.996   8.031 -2.0080  0.4752  0.2314
  188SAPI  C21421648   2.983   6.064   8.160 -0.1806  0.7769  0.7563
  188SAPI  H14R21649   2.939   6.074   8.060  1.2882  1.6484  0.1688
  188SAPI  C21521650   2.914   6.095   8.266  1.5185  0.0328  0.7180
  188SAPI  H15R21651   2.815   6.133   8.238  1.4377 -1.7685 -1.8347
  188SAPI  C21621652   2.940   6.092   8.407 -0.5424 -0.1411  0.0078
  188SAPI  H16R21653   2.945   6.195   8.447  0.3927 -0.7678  1.6374
  188SAPI  H16S21654   3.042   6.049   8.421  0.2131  1.0550 -1.6096
  188SAPI  C21721655   2.840   6.001   8.479 -0.8660  0.3982  0.3794
  188SAPI  H17R21656   2.818   5.921   8.404  1.7922  1.3896 -1.6348
  188SAPI  H17S21657   2.751   6.063   8.501 -0.9413  0.0957  0.9308
  188SAPI  C21821658   2.892   5.928   8.604  0.2897  0.2184 -0.2053
  188SAPI  H18R21659   3.003   5.923   8.607  0.3473  1.5814  1.2102
  188SAPI  H18S21660   2.849   5.826   8.611 -0.2446  0.4981  0.7397
  188SAPI  C21921661   2.851   6.007   8.731 -0.9053 -0.3876 -0.2318
  188SAPI  H19R21662   2.890   6.111   8.731 -0.7643 -0.3886 -2.5703
  188SAPI  H19S21663   2.904   5.964   8.820 -0.9952 -0.9579 -0.4463
  188SAPI  C22021664   2.700   6.022   8.776  0.1419  0.1284 -0.2286
  188SAPI  H20R21665   2.626   6.038   8.695 -0.1342  1.8458  0.3329
  188SAPI  H20S21666   2.688   6.100   8.854  0.0062 -1.2378  1.1788
  188SAPI  H20T21667   2.664   5.926   8.818  1.6963 -1.8338 -2.9976
  188SAPI   C3321668   3.551   6.437   6.933  0.3684  0.6952  0.2338
  188SAPI   H3X21669   3.522   6.342   6.984 -0.4019  0.8385  0.0763
  188SAPI   H3Y21670   3.494   6.520   6.980 -1.7522 -0.6215  0.1484
  188SAPI   C3421671   3.698   6.448   6.959  0.7395 -0.0097  0.7227
  188SAPI   H4X21672   3.748   6.525   6.896  0.2240 -0.6469 -0.5037
  188SAPI   H4Y21673   3.743   6.348   6.938 -0.6379 -0.8669  1.7078
  188SAPI   C3521674   3.733   6.457   7.105 -0.8730  0.5274  0.1566
  188SAPI   H5X21675   3.836   6.423   7.131 -0.6429 -0.2447 -1.6349
  188SAPI   H5Y21676   3.662   6.396   7.165 -0.5008 -1.2725 -1.1356
  188SAPI   C3621677   3.709   6.596   7.153 -0.0402  0.2125 -0.1359
  188SAPI   H6X21678   3.602   6.616   7.172  0.5622  1.3807  2.4731
  188SAPI   H6Y21679   3.756   6.670   7.084  2.6096 -1.3032 -0.0838
  188SAPI   C3721680   3.779   6.617   7.291  0.2860 -0.4141 -0.0994
  188SAPI   H7X21681   3.889   6.606   7.280  1.2418  3.3024  3.1551
  188SAPI   H7Y21682   3.749   6.531   7.354 -1.0638  1.0161  1.3345
  188SAPI   C3821683   3.729   6.742   7.371 -0.4469 -0.0774 -0.0448
  188SAPI   H8X21684   3.622   6.725   7.397 -0.9032  0.6871 -1.3026
  188SAPI   H8Y21685   3.729   6.829   7.303 -3.9454  0.5832  0.5971
  188SAPI   C3921686   3.808   6.760   7.501 -0.7295  0.7397  0.1634
  188SAPI   H9X21687   3.918   6.757   7.482 -0.7996 -0.5756 -0.1278
  188SAPI   H9Y21688   3.783   6.670   7.560  0.7878  0.2159  0.0452
  188SAPI  C31021689   3.762   6.887   7.576 -0.1825  0.0059 -0.2323
  188SAPI  H10X21690   3.814   6.878   7.674  3.2958 -1.4682 -2.0202
  188SAPI  H10Y21691   3.652   6.894   7.588  0.1081  1.5985  2.2471
  188SAPI  C31121692   3.818   7.019   7.510 -0.8691  0.5648 -0.2351
  188SAPI  H11X21693   3.749   7.037   7.425 -2.5340  0.3698  1.0217
  188SAPI  H11Y21694   3.922   7.006   7.475 -1.3457 -1.2657 -1.1614
  188SAPI  C31221695   3.802   7.130   7.615  0.1544  0.1381 -0.3270
  188SAPI  H12X21696   3.703   7.110   7.661  0.1251  1.8476  0.4149
  188SAPI  H12Y21697   3.784   7.224   7.559 -0.5203  0.6880  0.7849
  188SAPI  C31321698   3.928   7.125   7.702  0.5940  0.0901  0.5284
  188SAPI  H13X21699   4.016   7.167   7.647 -0.6832  2.6047  0.2424
  188SAPI  H13Y21700   3.945   7.018   7.726 -1.5787 -0.4575 -0.1117
  188SAPI  C31421701   3.913   7.197   7.841 -0.3477  0.5360  0.2284
  188SAPI  H14X21702   3.902   7.306   7.823  0.8060  0.5661 -0.4234
  188SAPI  H14Y21703   4.013   7.186   7.888 -1.5604 -1.3459  2.6307
  188SAPI  C31521704   3.808   7.147   7.932  0.4992  0.1303 -0.5114
  188SAPI  H15X21705   3.808   7.037   7.943 -1.0823  0.2781  1.5115
  188SAPI  H15Y21706   3.709   7.164   7.886  0.1530  0.8212  0.4577
  188SAPI  C31621707   3.811   7.189   8.081 -0.3012 -0.2609 -0.6845
  188SAPI  H16X21708   3.809   7.299   8.094  1.7299 -0.0170 -1.9485
  188SAPI  H16Y21709   3.907   7.156   8.126 -0.1628  1.5301  0.4022
  188SAPI  C31721710   3.694   7.132   8.162 -0.3163  0.1819 -0.0412
  188SAPI  H17X21711   3.694   7.022   8.145 -1.5815  0.1955 -0.1973
  188SAPI  H17Y21712   3.608   7.174   8.105  1.6036 -0.5310 -3.7557
  188SAPI  C31821713   3.693   7.168   8.308 -0.0908 -0.6669  0.3436
  188SAPI  H18X21714   3.780   7.126   8.363  1.9525  0.8998 -1.4993
  188SAPI  H18Y21715   3.594   7.144   8.352 -0.8038  0.9447 -0.2979
  188SAPI  H18Z21716   3.699   7.277   8.327  0.6985 -0.6006 -0.2519
  189POPC     N21717   2.283   6.435  10.848  0.5050 -0.4167 -0.1092
  189POPC   C1221718   2.396   6.442  10.944 -0.3677  0.1006 -0.0097
  189POPC  H12A21719   2.402   6.541  10.987  0.4518  1.1120 -2.2884
  189POPC  H12B21720   2.491   6.442  10.892 -0.6178  2.3381 -0.5395
  189POPC   C1321721   2.310   6.545  10.748 -0.5020  0.3157 -0.4836
  189POPC  H13A21722   2.403   6.524  10.697  0.1471 -0.5323  0.9848
  189POPC  H13B21723   2.228   6.554  10.678 -0.8723  0.9568  0.0219
  189POPC  H13C21724   2.322   6.643  10.791 -1.4276 -0.4999  1.7671
  189POPC   C1421725   2.293   6.302  10.782  0.1809  0.1735  0.2620
  189POPC  H14A21726   2.394   6.281  10.748 -0.0805 -1.3220  0.3598
  189POPC  H14B21727   2.258   6.228  10.852 -0.5621 -0.8047 -1.1001
  189POPC  H14C21728   2.234   6.292  10.692  0.2354 -0.5159  0.2963
  189POPC   C1521729   2.145   6.453  10.908 -0.9016 -0.5098 -0.0127
  189POPC  H15A21730   2.112   6.365  10.960  0.5653 -2.4279 -2.1648
  189POPC  H15B21731   2.066   6.475  10.839  0.1406  0.4663 -0.9490
  189POPC  H15C21732   2.142   6.538  10.975  0.2441  0.1741 -0.7927
  189POPC   C1121733   2.415   6.342  11.057 -0.0726  0.9627 -0.4732
  189POPC  H11A21734   2.477   6.384  11.139  0.9183 -3.8197  1.5672
  189POPC  H11B21735   2.459   6.248  11.016 -0.5260 -0.5547  2.2624
  189POPC     P21736   2.261   6.181  11.181  0.1792 -0.0069  0.1153
  189POPC   O1321737   2.129   6.198  11.246  0.5106  0.3424  0.3200
  189POPC   O1421738   2.371   6.134  11.266  0.2023 -0.1216  0.0903
  189POPC   O1221739   2.289   6.316  11.119 -0.0653 -0.4505 -0.0177
  189POPC   O1121740   2.254   6.085  11.054  0.0108  0.7788  0.3144
  189POPC    C121741   2.132   6.067  10.977  0.2366 -0.5601  0.0980
  189POPC    HA21742   2.105   6.169  10.941  1.2204 -0.3527 -0.0804
  189POPC    HB21743   2.045   6.030  11.036  0.1932  0.9943  1.0809
  189POPC    C221744   2.162   5.970  10.853  0.2471 -0.2650 -0.0229
  189POPC    HS21745   2.184   5.871  10.899 -0.8109 -1.2897 -1.6207
  189POPC   O2121746   2.282   6.015  10.785 -0.2861  0.2453 -0.3580
  189POPC   C2121747   2.342   5.921  10.724 -0.0911 -0.0595  0.7580
  189POPC   O2221748   2.344   5.801  10.747 -0.1110 -0.1432  0.4069
  189POPC   C2221749   2.427   5.983  10.611  0.5024 -0.5956 -0.5795
  189POPC   H2R21750   2.531   6.015  10.635 -0.2441  1.3783  0.1883
  189POPC   H2S21751   2.381   6.080  10.581  2.6241  0.1861 -1.5390
  189POPC    C321752   2.040   5.953  10.761 -0.1372 -0.3981  0.1773
  189POPC    HX21753   2.002   6.057  10.751 -2.5475 -0.9561  2.6270
  189POPC    HY21754   1.964   5.897  10.819  0.8620 -1.2313  0.7151
  189POPC   O3121755   2.070   5.884  10.639 -0.4908 -0.3422  0.2323
  189POPC   C3121756   2.006   5.938  10.529  0.2626  1.0042 -0.3695
  189POPC   O3221757   1.953   6.043  10.529  0.0925 -0.2558 -0.4686
  189POPC   C3221758   2.025   5.851  10.402  0.0535  0.1636  0.3169
  189POPC   H2X21759   1.992   5.747  10.423 -3.2838  1.0088 -0.2196
  189POPC   H2Y21760   2.136   5.856  10.394  0.1629 -2.7985 -2.8490
  189POPC   C2321761   2.429   5.900  10.478  0.3475  0.7039 -0.3503
  189POPC   H3R21762   2.354   5.819  10.466  2.0229 -1.0917  0.6427
  189POPC   H3S21763   2.526   5.847  10.471 -0.5146 -0.7433 -2.2473
  189POPC   C2421764   2.422   5.985  10.354  0.8083 -0.3269 -0.2371
  189POPC   H4R21765   2.504   6.060  10.350 -0.9693  1.8962  1.8972
  189POPC   H4S21766   2.330   6.048  10.352  0.9052 -0.1332  0.7449
  189POPC   C2521767   2.419   5.904  10.232 -0.7595  0.2632  0.0095
  189POPC   H5R21768   2.329   5.840  10.225 -0.5329  0.0953 -2.1958
  189POPC   H5S21769   2.508   5.838  10.241  0.0891  1.4137  0.2318
  189POPC   C2621770   2.420   5.996  10.108  0.4388  0.0542 -0.4462
  189POPC   H6R21771   2.509   6.061  10.123 -0.6720  1.1815  1.6421
  189POPC   H6S21772   2.331   6.062  10.110  1.1336  1.1132  3.4496
  189POPC   C2721773   2.417   5.914   9.976 -0.4672 -0.1322  0.4351
  189POPC   H7R21774   2.327   5.849   9.983 -0.0179 -1.0306 -1.4672
  189POPC   H7S21775   2.500   5.841   9.966 -1.9351 -1.7372 -0.6922
  189POPC   C2821776   2.412   5.995   9.845 -0.1600  0.7572 -0.1026
  189POPC   H8R21777   2.317   6.052   9.840  0.0003  0.8975 -1.9951
  189POPC   H8S21778   2.402   5.928   9.758 -0.2919 -0.7038  0.9945
  189POPC   C2921779   2.522   6.095   9.827  0.0532  0.1938 -0.1763
  189POPC   H9121780   2.543   6.161   9.913 -2.0054 -1.5759  1.8118
  189POPC  C21021781   2.583   6.131   9.711  0.6296 -0.3387 -0.0877
  189POPC  H10121782   2.655   6.214   9.720  2.4692 -1.8488 -0.1018
  189POPC  C21121783   2.549   6.084   9.568  0.4695 -0.4182  0.3656
  189POPC  H11R21784   2.537   6.173   9.502  1.2847 -2.3601 -2.5524
  189POPC  H11S21785   2.455   6.027   9.557 -0.0713  0.6373 -0.6804
  189POPC  C21221786   2.673   6.002   9.512 -0.0060  0.3425 -0.2000
  189POPC  H12R21787   2.681   5.909   9.574  0.5145  0.2740 -0.3668
  189POPC  H12S21788   2.769   6.058   9.514  0.9161 -1.1874 -0.0776
  189POPC  C21321789   2.671   5.968   9.361 -0.0940 -0.5407 -0.4489
  189POPC  H13R21790   2.774   5.952   9.321  1.4465  0.8031  2.6199
  189POPC  H13S21791   2.639   6.059   9.307  1.3564  0.0018 -0.4532
  189POPC  C21421792   2.594   5.846   9.324  0.2491  0.0860 -0.2385
  189POPC  H14R21793   2.495   5.843   9.374 -1.5151 -0.5591 -3.4920
  189POPC  H14S21794   2.646   5.754   9.357 -1.6135 -0.3734  1.6292
  189POPC  C21521795   2.574   5.833   9.175  0.4338 -0.2133 -0.5172
  189POPC  H15R21796   2.679   5.837   9.139  0.2636  1.2419 -0.9336
  189POPC  H15S21797   2.518   5.922   9.139  0.9496  0.7571  0.9574
  189POPC  C21621798   2.515   5.702   9.139  0.2828  0.6973 -0.2691
  189POPC  H16R21799   2.416   5.688   9.187  1.6739 -1.9939  2.1292
  189POPC  H16S21800   2.577   5.623   9.186 -3.2487 -1.3422  1.3683
  189POPC  C21721801   2.512   5.663   8.997  0.1119 -0.0169  0.0360
  189POPC  H17R21802   2.479   5.753   8.942  1.0141  0.7936  0.7871
  189POPC  H17S21803   2.435   5.587   8.969  3.4231 -2.8583 -2.1491
  189POPC  C21821804   2.646   5.624   8.935 -1.0589 -0.0962 -0.6306
  189POPC  H18R21805   2.716   5.569   9.002  0.4029  0.2534 -1.8023
  189POPC  H18S21806   2.705   5.713   8.903 -0.7759  0.1735  0.5725
  189POPC  H18T21807   2.634   5.562   8.843  0.9158  0.9249 -1.6417
  189POPC   C3321808   1.945   5.897  10.275  0.0621  0.0460 -1.0300
  189POPC   H3X21809   1.936   6.007  10.265 -1.0872 -0.0750 -1.4765
  189POPC   H3Y21810   1.838   5.867  10.279  0.7256 -2.4791  2.1627
  189POPC   C3421811   2.002   5.840  10.152 -0.0322  0.0269  0.5455
  189POPC   H4X21812   2.043   5.738  10.172  0.3632  0.0503 -0.1069
  189POPC   H4Y21813   2.093   5.897  10.126 -1.1137  1.8164  0.5322
  189POPC   C3521814   1.915   5.847  10.029  0.6128  0.0476  0.3701
  189POPC   H5X21815   1.899   5.951   9.994 -2.7987 -0.4275  0.1598
  189POPC   H5Y21816   1.813   5.806  10.048  0.6903 -1.4275 -1.9751
  189POPC   C3621817   1.969   5.755   9.913 -0.2563 -0.0011  0.1177
  189POPC   H6X21818   1.952   5.651   9.948  1.1951 -0.6778 -1.0597
  189POPC   H6Y21819   2.078   5.771   9.898  0.4504 -0.8538  3.4819
  189POPC   C3721820   1.882   5.760   9.785  0.3692 -0.4112 -0.0384
  189POPC   H7X21821   1.870   5.859   9.735  2.5010 -0.5470 -0.9138
  189POPC   H7Y21822   1.777   5.725   9.801 -0.4395  1.2795 -1.2682
  189POPC   C3821823   1.950   5.675   9.677 -0.8059  0.3255 -0.1131
  189POPC   H8X21824   1.960   5.571   9.715  2.4243 -0.2704 -2.2416
  189POPC   H8Y21825   2.053   5.715   9.664 -0.0099 -1.3082  0.8191
  189POPC   C3921826   1.881   5.659   9.544  0.0026 -0.2307  0.3146
  189POPC   H9X21827   1.864   5.763   9.510  0.3734 -0.2994 -0.0795
  189POPC   H9Y21828   1.780   5.613   9.554 -0.2929 -0.0278 -1.4078
  189POPC  C31021829   1.967   5.583   9.434  0.1764  0.3932 -0.6492
  189POPC  H10X21830   1.998   5.484   9.474  0.4511  0.6484 -0.2199
  189POPC  H10Y21831   2.051   5.656   9.438 -0.6572  1.3963  3.4803
  189POPC  C31121832   1.911   5.568   9.295  0.1871  0.1950  0.3888
  189POPC  H11X21833   1.811   5.521   9.300  0.1543  0.2950  0.7009
  189POPC  H11Y21834   1.984   5.494   9.256 -0.4989  0.3099 -1.1672
  189POPC  C31221835   1.903   5.691   9.203 -0.6567 -0.3474  0.5287
  189POPC  H12X21836   1.844   5.776   9.243 -0.3852 -0.1503  0.5125
  189POPC  H12Y21837   1.856   5.649   9.112 -1.4279 -1.4283  1.4007
  189POPC  C31321838   2.043   5.741   9.162 -0.6362 -0.2173  1.3202
  189POPC  H13X21839   2.119   5.660   9.162  0.4793  0.8089  1.1197
  189POPC  H13Y21840   2.080   5.813   9.238 -0.4799 -0.1252  1.1565
  189POPC  C31421841   2.031   5.811   9.025 -0.1363  0.0773 -0.0409
  189POPC  H14X21842   1.955   5.891   9.039  1.3213  1.5012 -0.0065
  189POPC  H14Y21843   1.984   5.744   8.950 -1.1975  0.5721  0.1615
  189POPC  C31521844   2.163   5.857   8.971 -0.8038  0.6335  0.0839
  189POPC  H15X21845   2.244   5.783   8.952 -1.9079 -1.0918  1.7144
  189POPC  H15Y21846   2.220   5.905   9.053  0.5848  1.1453 -1.1404
  189POPC  C31621847   2.153   5.944   8.843 -0.0958  0.9373  0.5994
  189POPC  H16X21848   2.106   6.041   8.869  0.7265  0.9327  2.2538
  189POPC  H16Y21849   2.086   5.905   8.763  1.7864 -0.3958 -0.4204
  189POPC  H16Z21850   2.257   5.965   8.811  0.3144 -0.1082  1.1937
  190POPC     N21851   3.727   3.211  11.037  0.7677 -0.1185  0.5722
  190POPC   C1221852   3.644   3.081  11.018  0.1197  0.7276  0.2452
  190POPC  H12A21853   3.715   3.017  10.968  0.6538  2.0411 -0.7473
  190POPC  H12B21854   3.556   3.099  10.958 -0.0822 -3.4992 -1.0429
  190POPC   C1321855   3.749   3.284  10.906  0.4776  0.4282  0.2064
  190POPC  H13A21856   3.658   3.288  10.847  1.1473 -2.2891 -1.1418
  190POPC  H13B21857   3.768   3.389  10.927  0.7756  0.2651  0.7544
  190POPC  H13C21858   3.829   3.249  10.843 -0.7592  0.6426 -1.5595
  190POPC   C1421859   3.662   3.309  11.126 -0.3136 -0.1878 -0.4781
  190POPC  H14A21860   3.636   3.258  11.217  1.8257 -3.6896 -1.6108
  190POPC  H14B21861   3.721   3.397  11.144 -1.1126  0.2431  0.0736
  190POPC  H14C21862   3.574   3.352  11.080  0.4042  0.4050 -1.3399
  190POPC   C1521863   3.867   3.175  11.082 -0.3399  0.1822 -0.6080
  190POPC  H15A21864   3.917   3.105  11.018 -0.2711 -0.3958  0.0684
  190POPC  H15B21865   3.878   3.151  11.187 -0.3518  2.5384  0.0093
  190POPC  H15C21866   3.912   3.273  11.075  0.4957 -0.1742 -0.3530
  190POPC   C1121867   3.602   3.012  11.147  0.5824  0.0217  0.2132
  190POPC  H11A21868   3.684   3.008  11.222  2.1885 -0.5497 -1.4910
  190POPC  H11B21869   3.580   2.906  11.122  2.5213 -0.4472  0.3633
  190POPC     P21870   3.345   3.074  11.158  0.3508  0.1507 -0.2322
  190POPC   O1321871   3.282   3.203  11.195 -0.1204  0.0464  0.3725
  190POPC   O1421872   3.262   2.950  11.195 -0.4945 -0.0825 -0.5709
  190POPC   O1221873   3.494   3.069  11.213 -0.0126 -0.2748 -0.3815
  190POPC   O1121874   3.381   3.074  11.003  0.2426 -0.1720 -0.5540
  190POPC    C121875   3.310   2.995  10.906  0.4028  0.4202 -0.1029
  190POPC    HA21876   3.202   3.020  10.912 -0.4666 -2.1084 -2.8727
  190POPC    HB21877   3.315   2.892  10.945 -0.6730  0.5339  0.3658
  190POPC    C221878   3.367   3.014  10.759  0.5473  1.2373  0.2253
  190POPC    HS21879   3.295   2.969  10.688  0.0882  0.3234  1.2401
  190POPC   O2121880   3.495   2.945  10.750  0.3323 -0.5048 -0.2165
  190POPC   C2121881   3.488   2.815  10.766 -0.1484  0.3245 -0.2322
  190POPC   O2221882   3.389   2.747  10.770 -0.1181 -0.2066 -0.7239
  190POPC   C2221883   3.632   2.756  10.754 -0.1616  0.2717  0.4992
  190POPC   H2R21884   3.680   2.779  10.852 -1.1897  0.7386  0.9058
  190POPC   H2S21885   3.676   2.820  10.674 -1.0062  1.5663  1.0356
  190POPC    C321886   3.378   3.163  10.716  0.1088  0.3641 -0.1441
  190POPC    HX21887   3.443   3.221  10.785 -1.4788  1.0511  0.8290
  190POPC    HY21888   3.279   3.211  10.735 -1.2020 -1.8155 -1.1342
  190POPC   O3121889   3.404   3.174  10.580  0.3702  0.2659  0.4862
  190POPC   C3121890   3.526   3.203  10.539 -0.1813  0.1396  0.3830
  190POPC   O3221891   3.625   3.225  10.602  0.5750  0.1116 -0.3475
  190POPC   C3221892   3.522   3.210  10.388  0.0553 -0.1884 -0.0946
  190POPC   H2X21893   3.517   3.317  10.361  2.6242 -0.4355 -1.9287
  190POPC   H2Y21894   3.441   3.152  10.338 -0.4290 -1.1989  1.7840
  190POPC   C2321895   3.628   2.608  10.706 -0.4840  0.3822 -0.5896
  190POPC   H3R21896   3.542   2.556  10.753  2.7461 -3.0691  2.1209
  190POPC   H3S21897   3.718   2.560  10.750  0.0049  2.9006  1.4197
  190POPC   C2421898   3.618   2.577  10.553  0.0509  0.3785 -0.8662
  190POPC   H4R21899   3.623   2.467  10.541 -2.4453  0.3046 -1.7133
  190POPC   H4S21900   3.705   2.612  10.494 -0.1761 -0.5249 -1.7474
  190POPC   C2521901   3.484   2.609  10.487  0.5602 -0.2558 -0.4515
  190POPC   H5R21902   3.449   2.709  10.521  1.8908 -0.3622  1.3697
  190POPC   H5S21903   3.406   2.538  10.521 -0.5529  1.5554  0.9649
  190POPC   C2621904   3.488   2.635  10.336  0.3745  0.2777  0.1673
  190POPC   H6R21905   3.563   2.709  10.299 -1.8771  1.0460 -3.2879
  190POPC   H6S21906   3.389   2.681  10.315 -0.0630 -0.2567  1.0058
  190POPC   C2721907   3.512   2.497  10.268 -0.1919  0.2300 -0.4262
  190POPC   H7R21908   3.428   2.427  10.289 -0.7665  1.4522  1.5837
  190POPC   H7S21909   3.608   2.453  10.301 -0.7069  0.2254  1.1651
  190POPC   C2821910   3.502   2.510  10.109 -0.1161  0.3775 -1.0676
  190POPC   H8R21911   3.579   2.587  10.083  1.3334 -1.5460 -2.7645
  190POPC   H8S21912   3.408   2.564  10.083 -0.8204 -1.0431 -1.5390
  190POPC   C2921913   3.523   2.385  10.028  0.8471 -0.2543 -0.5808
  190POPC   H9121914   3.611   2.326  10.058  1.0669  0.0627 -0.5891
  190POPC  C21021915   3.451   2.356   9.918  0.3885 -0.7524  0.3644
  190POPC  H10121916   3.475   2.263   9.864 -0.4221 -1.8447  1.7974
  190POPC  C21121917   3.352   2.446   9.854 -0.1764  0.5683 -0.0703
  190POPC  H11R21918   3.306   2.522   9.921 -1.1843 -0.7537  0.7738
  190POPC  H11S21919   3.266   2.381   9.829  0.2065  0.9887 -2.8080
  190POPC  C21221920   3.384   2.521   9.724 -0.3160 -0.1349 -0.1493
  190POPC  H12R21921   3.480   2.575   9.741 -0.8940  1.1081 -0.7408
  190POPC  H12S21922   3.316   2.607   9.706  1.6268  1.8531  1.3290
  190POPC  C21321923   3.411   2.438   9.593  0.6167  0.1038  0.4280
  190POPC  H13R21924   3.321   2.381   9.561  1.1645 -1.0107  0.7849
  190POPC  H13S21925   3.482   2.353   9.608  1.0746  0.1674 -1.1899
  190POPC  C21421926   3.470   2.530   9.486 -0.2519 -0.0369 -0.2866
  190POPC  H14R21927   3.561   2.573   9.532 -0.1104  1.1914 -1.6155
  190POPC  H14S21928   3.392   2.601   9.449 -2.0059 -0.7154  1.9023
  190POPC  C21521929   3.520   2.442   9.368  0.5888  0.5125 -0.0726
  190POPC  H15R21930   3.591   2.362   9.400  2.6142  1.3091 -2.2835
  190POPC  H15S21931   3.586   2.517   9.319  2.6635 -1.7856 -1.0085
  190POPC  C21621932   3.412   2.406   9.273 -0.0832  0.6150 -0.5482
  190POPC  H16R21933   3.357   2.500   9.251  0.0283  0.8337  0.0875
  190POPC  H16S21934   3.348   2.326   9.315  3.2835 -1.8599  0.3263
  190POPC  C21721935   3.477   2.359   9.140 -0.1494 -0.2454 -0.3268
  190POPC  H17R21936   3.402   2.293   9.092  0.4473 -0.6382 -0.7337
  190POPC  H17S21937   3.554   2.286   9.172 -0.1142 -2.4957 -4.7938
  190POPC  C21821938   3.532   2.464   9.043  0.5062 -0.3279 -0.2131
  190POPC  H18R21939   3.582   2.537   9.112  1.6120 -1.1502 -0.1115
  190POPC  H18S21940   3.451   2.523   8.996 -1.0854 -1.6793  0.7523
  190POPC  H18T21941   3.607   2.417   8.976  3.4751  2.1760  1.0816
  190POPC   C3321942   3.667   3.169  10.330  0.1395 -0.2464 -0.5715
  190POPC   H3X21943   3.680   3.062  10.356 -0.6085  0.3354  2.5850
  190POPC   H3Y21944   3.754   3.220  10.377  0.4213  0.2587 -1.6084
  190POPC   C3421945   3.678   3.186  10.180  0.3239 -0.5281  0.0103
  190POPC   H4X21946   3.789   3.186  10.175  0.2816 -1.1640 -2.1464
  190POPC   H4Y21947   3.646   3.285  10.140 -2.1116 -1.2152  0.0725
  190POPC   C3521948   3.619   3.087  10.081 -0.6435  0.5721  0.1781
  190POPC   H5X21949   3.514   3.123  10.069 -0.7002  0.0576 -0.9972
  190POPC   H5Y21950   3.627   2.985  10.123  0.7285 -0.1930 -1.8192
  190POPC   C3621951   3.701   3.103   9.949 -0.1198  0.0563 -0.1285
  190POPC   H6X21952   3.796   3.046   9.954 -1.4010 -2.1572  0.2377
  190POPC   H6Y21953   3.735   3.207   9.934  0.0765  0.2405  1.4043
  190POPC   C3721954   3.618   3.033   9.834  0.6006  0.0444  0.0812
  190POPC   H7X21955   3.543   3.108   9.804  0.3289  0.8160  2.4665
  190POPC   H7Y21956   3.557   2.948   9.874  0.4982  1.0444  2.1705
  190POPC   C3821957   3.710   2.993   9.715  0.4597 -0.2045 -0.2284
  190POPC   H8X21958   3.790   2.920   9.741  0.7570 -0.0660 -0.7339
  190POPC   H8Y21959   3.763   3.084   9.681 -1.0713  0.0664 -2.0254
  190POPC   C3921960   3.639   2.947   9.589 -0.0827  0.3753 -0.0918
  190POPC   H9X21961   3.533   2.931   9.617 -0.1863  2.3122  0.7603
  190POPC   H9Y21962   3.690   2.852   9.562 -1.0782  0.0989 -1.0358
  190POPC  C31021963   3.647   3.053   9.477  0.8504 -0.0516  0.5236
  190POPC  H10X21964   3.743   3.053   9.421  0.6296 -0.2166  0.1448
  190POPC  H10Y21965   3.629   3.158   9.509  2.8759  0.5541 -0.1671
  190POPC  C31121966   3.531   3.031   9.380  0.5429 -0.1756  1.2340
  190POPC  H11X21967   3.555   3.091   9.290 -1.4680 -0.1283  0.6954
  190POPC  H11Y21968   3.430   3.046   9.425 -0.8252 -1.0372 -1.3487
  190POPC  C31221969   3.517   2.888   9.318 -0.2933  0.4768 -0.3660
  190POPC  H12X21970   3.489   2.820   9.402  0.3630  0.8638  0.1809
  190POPC  H12Y21971   3.622   2.868   9.287 -1.1717  0.2094 -3.5112
  190POPC  C31321972   3.434   2.875   9.185  0.1781 -0.3550  0.2418
  190POPC  H13X21973   3.488   2.812   9.112 -0.3286 -0.0935 -0.3718
  190POPC  H13Y21974   3.425   2.983   9.157  2.6440  0.0496  0.8381
  190POPC  C31421975   3.290   2.820   9.212  0.0204  0.1422 -0.3941
  190POPC  H14X21976   3.238   2.871   9.296 -0.1369 -1.3992  0.4838
  190POPC  H14Y21977   3.293   2.712   9.239 -1.0739 -0.5735 -2.8721
  190POPC  C31521978   3.197   2.848   9.088  0.2014  0.3283  0.3819
  190POPC  H15X21979   3.231   2.797   8.995  0.2481  0.6986  0.1960
  190POPC  H15Y21980   3.184   2.955   9.063 -0.2784  0.0080 -0.8254
  190POPC  C31621981   3.063   2.783   9.108  0.0537 -0.2890 -0.5125
  190POPC  H16X21982   2.990   2.818   9.031  0.8389 -2.7909 -2.5236
  190POPC  H16Y21983   3.026   2.808   9.210  0.7909  0.0030 -0.3104
  190POPC  H16Z21984   3.076   2.673   9.098  1.6604 -0.5088  2.8682
  191POPC     N21985   5.984   0.728   6.212 -0.0190 -0.2601  0.6406
  191POPC   C1221986   5.904   0.677   6.328  0.1039 -0.6010  0.2744
  191POPC  H12A21987   5.811   0.649   6.280  0.3063 -1.3573  0.3021
  191POPC  H12B21988   5.897   0.755   6.403  0.9002 -0.2707  0.0174
  191POPC   C1321989   6.119   0.767   6.262 -0.1626 -0.6507  0.1032
  191POPC  H13A21990   6.165   0.697   6.330 -1.3609  0.3580  2.0660
  191POPC  H13B21991   6.187   0.772   6.179 -0.1577  0.2013  0.1507
  191POPC  H13C21992   6.122   0.868   6.299 -1.9502  0.0788 -1.5614
  191POPC   C1421993   6.004   0.619   6.103 -0.2704  0.1526 -0.7899
  191POPC  H14A21994   5.911   0.592   6.055 -0.2565  0.1961 -0.8415
  191POPC  H14B21995   6.061   0.655   6.019 -0.1017  1.9514  0.0478
  191POPC  H14C21996   6.053   0.534   6.147 -1.6503 -0.2991 -0.0517
  191POPC   C1521997   5.917   0.847   6.155  0.3502 -0.2078  0.6282
  191POPC  H15A21998   5.894   0.924   6.227 -1.4590 -0.4395  0.3621
  191POPC  H15B21999   5.825   0.818   6.105  0.2268  1.9823 -0.5395
  191POPC  H15C22000   5.985   0.883   6.080  1.0117  1.3981  1.9259
  191POPC   C1122001   5.946   0.552   6.408 -0.4456  0.1196 -0.0981
  191POPC  H11A22002   5.893   0.541   6.504  1.2189 -0.8321  0.7652
  191POPC  H11B22003   6.052   0.575   6.431 -0.5616  1.0772 -0.4850
  191POPC     P22004   5.796   0.370   6.322  0.0710  0.4047 -0.1041
  191POPC   O1322005   5.793   0.267   6.214 -0.3154 -0.7331 -0.1612
  191POPC   O1422006   5.695   0.473   6.309 -0.0126 -0.2455 -0.1503
  191POPC   O1222007   5.937   0.433   6.327  0.3302 -0.0469  0.4324
  191POPC   O1122008   5.785   0.303   6.467  0.3549 -0.1125  0.3849
  191POPC    C122009   5.892   0.214   6.509 -1.1742  0.2117  0.0710
  191POPC    HA22010   5.991   0.260   6.491 -1.0755 -0.6307 -1.7946
  191POPC    HB22011   5.885   0.115   6.459 -0.7797  0.6888 -0.9527
  191POPC    C222012   5.888   0.193   6.662 -0.7506  0.4496 -0.0959
  191POPC    HS22013   5.990   0.163   6.693 -0.7693 -1.8822 -1.9334
  191POPC   O2122014   5.791   0.087   6.687 -0.2188  0.1475 -0.1128
  191POPC   C2122015   5.805   0.030   6.808 -0.5429  0.5064 -0.4762
  191POPC   O2222016   5.907   0.027   6.874  0.0506 -0.5661  0.0840
  191POPC   C2222017   5.676  -0.040   6.836  0.0849 -0.7409 -0.8491
  191POPC   H2R22018   5.679  -0.126   6.765 -2.1522 -0.6820 -1.0762
  191POPC   H2S22019   5.587   0.015   6.801  1.1241  1.1225 -0.6833
  191POPC    C322020   5.841   0.329   6.728 -0.4203 -0.5278 -0.0035
  191POPC    HX22021   5.734   0.339   6.701 -0.0494  2.8405 -0.5877
  191POPC    HY22022   5.907   0.398   6.671 -1.0038 -1.1205 -1.4449
  191POPC   O3122023   5.856   0.326   6.871 -0.1150  0.1068 -0.1468
  191POPC   C3122024   5.982   0.329   6.917 -0.1803  0.5359  0.2458
  191POPC   O3222025   6.081   0.351   6.852 -0.2555  0.0539 -0.3793
  191POPC   C3222026   5.985   0.315   7.071  0.0396 -0.4429 -0.1621
  191POPC   H2X22027   5.900   0.248   7.095 -0.2806 -0.5697 -1.5485
  191POPC   H2Y22028   5.955   0.414   7.112  1.7269 -0.5853  1.5765
  191POPC   C2322029   5.671  -0.087   6.982 -0.0953  0.7935 -0.1423
  191POPC   H3R22030   5.767  -0.135   7.011 -1.5025 -0.8283  2.2405
  191POPC   H3S22031   5.594  -0.166   6.997 -0.6129  1.3982  0.4913
  191POPC   C2422032   5.646   0.026   7.081  0.3513  0.5200 -0.4966
  191POPC   H4R22033   5.549   0.074   7.057  0.7973  0.0166 -3.7304
  191POPC   H4S22034   5.721   0.108   7.080 -0.7861  1.5659 -1.0525
  191POPC   C2522035   5.629  -0.036   7.220 -0.2950  0.0043  0.0114
  191POPC   H5R22036   5.714  -0.107   7.230  1.4613  2.1687  1.2375
  191POPC   H5S22037   5.531  -0.087   7.230 -0.2840 -0.0458 -0.1282
  191POPC   C2622038   5.653   0.068   7.334  0.4883  0.7530 -0.3585
  191POPC   H6R22039   5.563   0.132   7.338  0.7289  1.1754 -1.3959
  191POPC   H6S22040   5.744   0.131   7.323  0.9741 -0.1011 -1.4889
  191POPC   C2722041   5.682  -0.004   7.468 -0.2684 -0.3261  0.1952
  191POPC   H7R22042   5.776  -0.063   7.466  0.4486  0.7202  1.3694
  191POPC   H7S22043   5.601  -0.079   7.482  0.9245 -1.4696  1.2724
  191POPC   C2822044   5.691   0.089   7.585  0.4660  0.5129  0.0273
  191POPC   H8R22045   5.590   0.133   7.595  0.5865  1.0578 -1.0341
  191POPC   H8S22046   5.759   0.173   7.557  3.6251 -0.9417  2.6033
  191POPC   C2922047   5.736   0.015   7.711 -0.2503  0.6128  0.8405
  191POPC   H9122048   5.815  -0.059   7.691 -0.6728  0.6413 -1.0350
  191POPC  C21022049   5.673   0.028   7.828  0.2328 -0.1977 -0.8034
  191POPC  H10122050   5.712  -0.035   7.910  0.3483 -0.9215 -1.4064
  191POPC  C21122051   5.563   0.126   7.867 -0.1370  0.4683 -0.6651
  191POPC  H11R22052   5.484   0.095   7.795  1.9031 -0.6005 -2.5707
  191POPC  H11S22053   5.594   0.232   7.852 -1.5267  1.1712  1.1071
  191POPC  C21222054   5.517   0.120   8.014  0.1742 -0.1683 -0.2186
  191POPC  H12R22055   5.589   0.176   8.078 -2.1096  1.2247  1.2776
  191POPC  H12S22056   5.496   0.017   8.048  2.9723 -0.7727 -0.0693
  191POPC  C21322057   5.381   0.190   8.022  0.2105  0.9247 -0.4190
  191POPC  H13R22058   5.308   0.115   7.985  0.7700 -0.7349  1.6797
  191POPC  H13S22059   5.378   0.282   7.959 -1.8636  0.1634 -1.5542
  191POPC  C21422060   5.336   0.237   8.161  0.4980  0.6800  0.4793
  191POPC  H14R22061   5.277   0.328   8.137  0.6881  0.3955 -1.1838
  191POPC  H14S22062   5.424   0.262   8.224  1.8765  0.5787 -1.3342
  191POPC  C21522063   5.248   0.134   8.246 -0.6076 -0.4797 -0.0330
  191POPC  H15R22064   5.324   0.059   8.277  0.1238  0.9333  1.8163
  191POPC  H15S22065   5.169   0.091   8.182 -0.1909 -1.4265  0.0734
  191POPC  C21622066   5.176   0.189   8.365 -0.0889 -0.4302  0.1997
  191POPC  H16R22067   5.259   0.230   8.427 -0.5998 -1.0175  1.3130
  191POPC  H16S22068   5.116   0.120   8.429 -2.2529  2.3703  1.4173
  191POPC  C21722069   5.073   0.305   8.343 -0.2632  0.2816  0.6911
  191POPC  H17R22070   5.114   0.390   8.285 -0.0022 -1.5238 -1.9094
  191POPC  H17S22071   5.057   0.343   8.446 -1.0777  0.4191  0.5165
  191POPC  C21822072   4.935   0.253   8.297  0.3581 -0.2964 -0.0838
  191POPC  H18R22073   4.917   0.156   8.349 -1.3246  0.0783  0.0986
  191POPC  H18S22074   4.933   0.242   8.186  4.0065 -0.4587 -0.2670
  191POPC  H18T22075   4.855   0.327   8.319  0.6924 -0.1844  0.7870
  191POPC   C3322076   6.118   0.258   7.117  0.0976 -0.7980  0.0343
  191POPC   H3X22077   6.210   0.315   7.094 -0.4414 -0.0429 -0.3010
  191POPC   H3Y22078   6.137   0.163   7.062 -4.0818  0.1267 -3.5652
  191POPC   C3422079   6.108   0.200   7.259  0.2738  0.8843 -0.3191
  191POPC   H4X22080   6.210   0.158   7.274  0.5467  1.2332 -1.1503
  191POPC   H4Y22081   6.027   0.125   7.272  1.2473 -0.2414 -0.6072
  191POPC   C3522082   6.089   0.307   7.365 -0.0091 -0.0215  0.2693
  191POPC   H5X22083   5.998   0.369   7.355 -0.6518 -0.8167  1.0518
  191POPC   H5Y22084   6.166   0.387   7.358 -2.1244  2.1062  0.1587
  191POPC   C3622085   6.085   0.249   7.508  0.0472  0.3324 -0.2538
  191POPC   H6X22086   6.027   0.154   7.508  0.2261  0.2182 -0.7967
  191POPC   H6Y22087   6.036   0.317   7.581  0.9364 -1.1654  1.8212
  191POPC   C3722088   6.224   0.213   7.561  0.2466  0.1739 -0.5264
  191POPC   H7X22089   6.296   0.287   7.520  0.9478  0.5145  1.2107
  191POPC   H7Y22090   6.270   0.114   7.542  0.6231  0.1374  0.4549
  191POPC   C3822091   6.240   0.222   7.715  1.6295  0.0637 -0.1498
  191POPC   H8X22092   6.197   0.319   7.748 -2.6536 -0.2512 -3.8702
  191POPC   H8Y22093   6.350   0.220   7.733  1.4964  0.9696  0.8453
  191POPC   C3922094   6.175   0.102   7.785  0.6071 -0.4746  0.5717
  191POPC   H9X22095   6.248   0.019   7.792 -0.6969 -1.7672 -0.4795
  191POPC   H9Y22096   6.093   0.054   7.727  3.1075 -3.5230 -0.6582
  191POPC  C31022097   6.127   0.144   7.921 -0.2930  0.2367 -0.2770
  191POPC  H10X22098   6.048   0.221   7.907  0.1118  0.8186  0.5333
  191POPC  H10Y22099   6.205   0.197   7.980  1.5556 -0.0704 -2.3137
  191POPC  C31122100   6.099   0.019   8.002 -0.2649 -0.4487 -0.2600
  191POPC  H11X22101   6.204  -0.013   8.020  0.4536  2.8028  2.3455
  191POPC  H11Y22102   6.037  -0.056   7.947 -0.4196 -0.1901 -0.4410
  191POPC  C31222103   6.043   0.041   8.142  0.1621  0.3435 -0.4203
  191POPC  H12X22104   5.941   0.085   8.135 -0.0056  0.2811  1.1716
  191POPC  H12Y22105   6.108   0.112   8.198  1.7589 -0.6474 -0.9377
  191POPC  C31322106   6.036  -0.086   8.225  0.3491 -1.0885 -0.4438
  191POPC  H13X22107   6.138  -0.121   8.249 -0.7615 -3.5396  1.1259
  191POPC  H13Y22108   5.974  -0.158   8.168 -2.4957  0.2607  0.6853
  191POPC  C31422109   5.975  -0.059   8.363  0.1381 -0.1368 -0.3540
  191POPC  H14X22110   5.871  -0.029   8.340  1.0250  1.5787 -2.5341
  191POPC  H14Y22111   6.025   0.020   8.422 -0.3379 -0.8349  1.0261
  191POPC  C31522112   5.952  -0.189   8.443 -0.6029  0.1958 -0.2015
  191POPC  H15X22113   5.875  -0.245   8.388  2.1776 -2.1846 -1.9615
  191POPC  H15Y22114   5.909  -0.153   8.539 -2.1803  0.6939 -1.0556
  191POPC  C31622115   6.074  -0.274   8.472 -0.0084  0.2477  0.0509
  191POPC  H16X22116   6.142  -0.238   8.552  0.7106 -1.4995  0.2926
  191POPC  H16Y22117   6.143  -0.284   8.386  2.0212 -1.3457  1.7480
  191POPC  H16Z22118   6.043  -0.371   8.517  2.1116 -0.6122 -0.2076
  192POPC     N22119   4.045   3.536   6.227  0.1731  0.1370  0.3257
  192POPC   C1222120   4.134   3.416   6.202 -0.5852  0.6697 -0.2375
  192POPC  H12A22121   4.127   3.381   6.100 -1.4958 -1.3916  0.4615
  192POPC  H12B22122   4.096   3.335   6.262  0.1818  0.9760  0.6825
  192POPC   C1322123   4.080   3.653   6.147 -0.8611  0.6212  0.0037
  192POPC  H13A22124   4.166   3.705   6.187  0.0465 -1.2846  0.6377
  192POPC  H13B22125   4.098   3.618   6.047  0.5892 -1.4864  0.9242
  192POPC  H13C22126   3.999   3.724   6.159  1.3442  2.9848  1.9422
  192POPC   C1422127   3.904   3.488   6.190 -1.1412  0.3330  0.4407
  192POPC  H14A22128   3.896   3.469   6.084  0.5642 -0.2283  0.3931
  192POPC  H14B22129   3.885   3.399   6.247 -1.9184  0.8851  1.0737
  192POPC  H14C22130   3.834   3.564   6.223 -0.7033  0.5921  0.7863
  192POPC   C1522131   4.040   3.573   6.372 -0.3976 -0.7559 -0.1289
  192POPC  H15A22132   4.126   3.633   6.397 -0.9511 -0.4753  1.1981
  192POPC  H15B22133   4.029   3.492   6.444  1.4566 -1.0944 -0.1716
  192POPC  H15C22134   3.960   3.643   6.393  1.7920  2.1647 -0.8854
  192POPC   C1122135   4.284   3.428   6.232 -0.4633 -0.4687 -0.4245
  192POPC  H11A22136   4.348   3.343   6.200  0.7694  0.7195 -1.2267
  192POPC  H11B22137   4.284   3.435   6.343 -1.2835 -2.9271 -0.2006
  192POPC     P22138   4.481   3.599   6.225 -0.1907  0.5473  0.1454
  192POPC   O1322139   4.520   3.722   6.157 -0.2462 -0.4745  0.0699
  192POPC   O1422140   4.574   3.488   6.222 -0.0502  0.2333 -0.2925
  192POPC   O1222141   4.341   3.548   6.177  0.2570  0.1173  0.5413
  192POPC   O1122142   4.458   3.632   6.380 -0.5073 -0.5184  0.0418
  192POPC    C122143   4.382   3.750   6.411  0.2677  0.4417  0.4301
  192POPC    HA22144   4.291   3.730   6.471 -0.5402 -0.1680 -0.9553
  192POPC    HB22145   4.331   3.790   6.320 -0.7939 -1.4174  0.1555
  192POPC    C222146   4.452   3.863   6.491 -0.7032  0.7175  0.5576
  192POPC    HS22147   4.534   3.894   6.422 -0.9709  1.2086  0.4558
  192POPC   O2122148   4.507   3.797   6.608 -0.1588 -0.9119  0.2830
  192POPC   C2122149   4.605   3.856   6.674  0.3487 -0.1668  0.5805
  192POPC   O2222150   4.675   3.941   6.631  0.0856 -0.3273  0.4525
  192POPC   C2222151   4.608   3.800   6.816  0.2822  0.0156  0.2836
  192POPC   H2R22152   4.616   3.690   6.811  0.7098  0.0702 -0.3797
  192POPC   H2S22153   4.513   3.829   6.866  0.9039  5.0277 -0.8391
  192POPC    C322154   4.364   3.987   6.519  0.1146  0.1174  0.2741
  192POPC    HX22155   4.314   4.017   6.425 -2.7531  2.6079  2.4056
  192POPC    HY22156   4.435   4.068   6.546  0.4850 -0.3666  0.7890
  192POPC   O3122157   4.262   3.959   6.620 -0.3013 -0.9265  0.7689
  192POPC   C3122158   4.294   4.010   6.736 -1.2131  0.3594  0.4865
  192POPC   O3222159   4.394   4.069   6.767  0.3139 -0.2179 -0.3482
  192POPC   C3222160   4.178   3.971   6.828  0.1684  0.1970 -0.2661
  192POPC   H2X22161   4.174   3.860   6.833  2.9424  0.0910  2.1903
  192POPC   H2Y22162   4.089   4.017   6.780  0.1813 -1.1012 -1.6029
  192POPC   C2322163   4.724   3.863   6.895 -1.0613  0.0599 -0.2506
  192POPC   H3R22164   4.747   3.965   6.859  0.1422 -0.4663 -1.0310
  192POPC   H3S22165   4.818   3.804   6.885  0.8955  2.8116  0.8223
  192POPC   C2422166   4.687   3.901   7.049  0.5587 -0.0746 -0.3573
  192POPC   H4R22167   4.596   3.965   7.046  1.5673  1.4298 -0.2696
  192POPC   H4S22168   4.760   3.967   7.100 -2.6721  1.1805  3.1093
  192POPC   C2522169   4.659   3.774   7.133  0.7027 -0.2205 -0.0190
  192POPC   H5R22170   4.751   3.713   7.141  0.0715 -1.1850  0.0124
  192POPC   H5S22171   4.585   3.710   7.080  1.0159 -0.1209 -0.5932
  192POPC   C2622172   4.608   3.810   7.272  0.1460 -0.3244 -0.1516
  192POPC   H6R22173   4.522   3.880   7.272  0.9644  0.8058  2.6408
  192POPC   H6S22174   4.688   3.872   7.317  0.0896  0.7314 -1.4579
  192POPC   C2722175   4.563   3.694   7.356 -0.0725  0.3633 -0.5379
  192POPC   H7R22176   4.627   3.605   7.346  1.7656  1.6787 -0.9666
  192POPC   H7S22177   4.471   3.662   7.302 -0.3051  1.9015 -1.1043
  192POPC   C2822178   4.543   3.744   7.504 -0.0870 -0.6450 -0.0527
  192POPC   H8R22179   4.504   3.656   7.561 -0.2585 -0.9629 -0.6482
  192POPC   H8S22180   4.468   3.825   7.499  0.4223  0.0080  2.0808
  192POPC   C2922181   4.675   3.781   7.560  0.2487 -0.5510  0.0264
  192POPC   H9122182   4.762   3.727   7.520  1.0094  1.1105 -0.6853
  192POPC  C21022183   4.685   3.872   7.657  0.2855  0.3425 -0.7435
  192POPC  H10122184   4.787   3.889   7.696  0.6817 -2.9146 -0.0567
  192POPC  C21122185   4.577   3.947   7.728  0.3097  0.2533 -0.0024
  192POPC  H11R22186   4.483   3.892   7.706  1.8105 -1.4021 -2.8872
  192POPC  H11S22187   4.552   4.045   7.682  0.6193  0.4542  0.2472
  192POPC  C21222188   4.583   3.956   7.880 -0.3022  0.4579 -0.6190
  192POPC  H12R22189   4.487   3.996   7.919  0.1438  4.1727 -2.9141
  192POPC  H12S22190   4.669   4.023   7.904  0.2308 -0.3815 -0.1083
  192POPC  C21322191   4.595   3.812   7.937  0.8624 -1.0243  0.6575
  192POPC  H13R22192   4.688   3.763   7.901  1.4340  0.2930  0.2520
  192POPC  H13S22193   4.504   3.760   7.900 -0.4939 -0.4750  3.0018
  192POPC  C21422194   4.594   3.807   8.091 -0.0525 -0.4389  0.0297
  192POPC  H14R22195   4.530   3.894   8.117 -0.6355 -0.8881  0.1025
  192POPC  H14S22196   4.694   3.837   8.130 -0.0438  1.0600 -1.0604
  192POPC  C21522197   4.558   3.672   8.154  0.3972  0.2625  0.0449
  192POPC  H15R22198   4.630   3.595   8.118 -0.0408 -0.2880  0.3342
  192POPC  H15S22199   4.457   3.640   8.121  0.2159  0.8135  0.0487
  192POPC  C21622200   4.564   3.660   8.308 -0.3170  0.1765  1.2109
  192POPC  H16R22201   4.556   3.551   8.327  0.3362 -0.0441  0.2622
  192POPC  H16S22202   4.473   3.705   8.353 -0.3074  0.0638  1.3445
  192POPC  C21722203   4.688   3.717   8.376  0.5071 -0.1696 -0.6502
  192POPC  H17R22204   4.672   3.727   8.485 -0.1732 -1.5885 -0.6016
  192POPC  H17S22205   4.704   3.820   8.338 -1.4427  0.4346  0.0356
  192POPC  C21822206   4.812   3.634   8.348  0.3808  1.1208 -0.4130
  192POPC  H18R22207   4.813   3.594   8.245 -0.3462 -1.8734  0.6541
  192POPC  H18S22208   4.810   3.545   8.414  1.5131  2.0803  0.9748
  192POPC  H18T22209   4.903   3.694   8.370  1.6694 -0.6517 -0.7200
  192POPC   C3322210   4.201   4.033   6.966 -0.5527  0.2445  0.4442
  192POPC   H3X22211   4.201   4.144   6.971 -3.0082  0.2591  1.8907
  192POPC   H3Y22212   4.293   3.996   7.017 -0.5289  1.6762  1.4955
  192POPC   C3422213   4.089   3.989   7.066  0.4515  0.2129 -0.2530
  192POPC   H4X22214   4.073   3.879   7.067  1.1419  0.1064  1.4315
  192POPC   H4Y22215   4.001   4.031   7.012 -0.7514 -0.9011  0.7603
  192POPC   C3522216   4.103   4.057   7.206 -0.0216  0.7237  0.4222
  192POPC   H5X22217   4.007   4.053   7.262 -1.4214 -1.0188 -1.8961
  192POPC   H5Y22218   4.128   4.164   7.189 -0.1940  0.6765 -0.1735
  192POPC   C3622219   4.207   3.990   7.290 -0.2741  0.2101  0.0528
  192POPC   H6X22220   4.292   3.982   7.220 -0.3152  2.1099 -0.2505
  192POPC   H6Y22221   4.177   3.887   7.320 -0.7984  0.3944  0.1796
  192POPC   C3722222   4.260   4.069   7.414 -0.1789  0.0583 -0.1278
  192POPC   H7X22223   4.275   4.174   7.382  0.3141 -0.5140 -1.8801
  192POPC   H7Y22224   4.356   4.018   7.437 -0.1343  0.0057 -0.4276
  192POPC   C3822225   4.166   4.071   7.535  0.0001 -0.5253  0.0552
  192POPC   H8X22226   4.124   3.972   7.560 -0.2872 -0.4618 -0.1764
  192POPC   H8Y22227   4.080   4.139   7.517  1.1418  0.7499 -0.8628
  192POPC   C3922228   4.238   4.130   7.663  0.4714 -0.4640  0.5395
  192POPC   H9X22229   4.347   4.142   7.647  0.2422  0.0998 -0.7045
  192POPC   H9Y22230   4.211   4.064   7.748 -0.7981 -0.3418  0.2632
  192POPC  C31022231   4.192   4.275   7.683 -0.0781  0.4497 -0.5167
  192POPC  H10X22232   4.085   4.280   7.713  0.0896 -0.3694  0.2427
  192POPC  H10Y22233   4.194   4.321   7.581  2.5066 -0.8096 -1.1163
  192POPC  C31122234   4.269   4.366   7.782  0.1579 -0.1685  0.4782
  192POPC  H11X22235   4.206   4.456   7.799 -0.6920 -0.3652 -1.4474
  192POPC  H11Y22236   4.362   4.408   7.738 -1.5729  1.9590 -1.3511
  192POPC  C31222237   4.291   4.300   7.917  0.2687  0.2753 -0.4810
  192POPC  H12X22238   4.351   4.211   7.890 -1.5936 -1.5021  0.8710
  192POPC  H12Y22239   4.191   4.275   7.959  1.1427 -1.7603  0.5472
  192POPC  C31322240   4.371   4.384   8.020 -0.7804 -0.7811  0.0494
  192POPC  H13X22241   4.357   4.494   8.015  0.6515 -0.3244  3.2699
  192POPC  H13Y22242   4.478   4.353   8.026  0.0178  1.6878 -0.3846
  192POPC  C31422243   4.317   4.360   8.160 -0.5950  0.0414 -0.7432
  192POPC  H14X22244   4.208   4.379   8.162 -0.8822 -1.2908 -2.1158
  192POPC  H14Y22245   4.355   4.441   8.226  0.8502 -1.0817 -0.1427
  192POPC  C31522246   4.348   4.224   8.228  0.0255 -0.0595  0.1457
  192POPC  H15X22247   4.380   4.143   8.160  2.3777 -1.4375  2.7026
  192POPC  H15Y22248   4.254   4.179   8.267 -0.2471 -0.9954 -1.5125
  192POPC  C31622249   4.436   4.245   8.357 -0.3416  0.2212  0.4060
  192POPC  H16X22250   4.525   4.298   8.319 -0.5466  0.7070  0.5885
  192POPC  H16Y22251   4.457   4.147   8.405 -1.5113 -1.5056 -2.3581
  192POPC  H16Z22252   4.377   4.312   8.425 -2.0956 -1.0660  0.2277
  193SOD    SOD22253   2.498   4.776  11.819 -0.0970  0.0942  0.7559
  194SOD    SOD22254   0.805   5.085  11.864 -0.3499 -0.3050 -0.0393
  195SOD    SOD22255   5.755   0.691   0.222 -0.5858 -0.4163  0.2573
  196SOD    SOD22256   5.292   2.767  12.033 -0.3714 -0.1137 -0.1341
  197SOD    SOD22257   3.284   0.214  12.572 -0.3026  0.7150  0.7598
  198SOD    SOD22258   0.916   2.903  12.065 -0.1345  0.6208 -0.1830
  199SOD    SOD22259   6.107   3.534  16.476 -0.2177 -0.2932  0.0609
  200SOD    SOD22260   4.493   6.037   5.985  0.0816 -0.1187 -0.6190
  201SOD    SOD22261   3.784   3.792  11.203 -0.1514 -0.6102  0.4043
  202SOD    SOD22262   2.776   5.010  15.201 -0.0762 -0.1887  0.0074
  203SOD    SOD22263   2.846   4.197   2.901  0.2657 -0.1003  0.3843
  204SOD    SOD22264   2.032   6.382  11.345  0.0445  0.5314 -0.3841
  205SOD    SOD22265   4.855   1.308  10.498  0.4281 -0.0523  0.2554
  206SOD    SOD22266   2.604   0.663  13.607  0.3861  0.3368 -0.0071
  207SOD    SOD22267   2.222   4.192   0.035 -0.1756 -0.1848  0.1689
  208SOD    SOD22268   3.870   0.980   2.861 -0.2911 -0.4166 -0.2856
  209SOD    SOD22269   0.806   6.736   5.423 -0.1150  0.1314  0.0517
  210SOD    SOD22270   5.178   4.903   0.112 -0.5534  0.5274 -0.1318
  211SOD    SOD22271   0.362   1.585  13.314  0.2884 -0.0757 -0.0944
  212SOD    SOD22272   4.323   5.980  12.214 -0.1583 -0.2923 -0.1906
  213SOD    SOD22273   0.069   1.940  13.931  0.2597  0.3721  0.0964
  214SOD    SOD22274   2.864   1.638  12.264 -0.5034  0.0976 -0.4277
  215SOD    SOD22275   4.692   5.457  12.715 -0.1561  0.2254 -0.0404
  216SOD    SOD22276   2.832   2.746  12.135  0.0557  0.0450  0.3659
  217SOD    SOD22277   4.563   3.053  13.302 -0.5443 -0.2172 -0.1806
  218SOD    SOD22278   1.968   1.451  10.734  0.0347 -0.3687 -0.0416
  219SOD    SOD22279   4.244   5.139  10.907  0.1377 -0.0443  0.2170
  220SOD    SOD22280   1.646   6.116  14.385  0.0510  0.1047 -0.1836
  221SOD    SOD22281   0.853   5.027   0.852  0.6602 -0.1907  0.4222
  222SOD    SOD22282   6.189   5.533   3.855  0.3939 -0.1287  0.0751
  223SOD    SOD22283   0.993   0.701   1.879 -0.0614 -0.3025 -0.3310
  224SOD    SOD22284   6.002   1.760  13.383 -0.9602 -0.1115 -0.0778
  225SOD    SOD22285   6.397   2.085   5.541  0.2703 -0.0059 -0.4123
  226SOD    SOD22286   4.485   2.203   2.604 -0.2960  0.4913 -0.3830
  227SOD    SOD22287   0.799   5.856  16.609  0.0653 -0.1854  0.5990
  228SOD    SOD22288   3.410   5.936   2.113  0.2124  0.4487 -0.2765
  229SOD    SOD22289   2.253   4.253   6.859 -0.3484  0.0648  0.4931
  230SOD    SOD22290   6.658   0.214   2.893  0.4091 -0.2321  0.2331
  231SOD    SOD22291   2.924   3.825   5.872 -0.2328 -0.2033  0.1757
  232SOD    SOD22292   1.330   2.239   6.536 -0.6226  0.6195  0.1574
  233SOD    SOD22293   3.133   4.046   3.476 -0.1197 -0.3389 -0.0228
  234SOD    SOD22294   2.945   5.798   6.651 -0.9149 -0.2177  0.2493
  235SOD    SOD22295   6.055   4.437  16.218  0.5000  0.1110  0.1578
  236SOD    SOD22296   5.222   1.714   5.167  0.2546  0.1943 -0.3172
  237SOD    SOD22297   5.553   4.219  16.266  0.3682  0.3371 -0.2074
  238SOD    SOD22298   1.893   5.390  13.552 -0.1428  0.1708 -0.3547
  239SOD    SOD22299   3.560   3.483  17.107  0.1348 -0.7238 -0.0971
  240SOD    SOD22300   2.406   6.151  16.139 -0.0454  0.1069 -0.2167
  241SOD    SOD22301   3.355   2.255   4.683  0.0614 -0.9483  0.0135
  242SOD    SOD22302   3.078   0.851  16.945 -0.2200  0.2445 -0.1441
  243SOD    SOD22303   5.436   0.376   5.909 -0.1648 -0.2134 -0.2738
  244SOD    SOD22304   4.044   6.638   5.029  0.7862  0.3988  0.4789
  245SOD    SOD22305   4.723   0.011   5.135 -0.3128  0.0511  0.9130
  246SOD    SOD22306   5.596   0.425  15.458  0.0738 -0.1942 -0.1301
  247SOD    SOD22307   2.152   4.890  15.132 -0.1650  0.4399  0.1135
  248SOD    SOD22308   4.619   5.452   0.457  0.0910  0.1409 -0.0266
  249SOD    SOD22309   0.151   1.944   0.355  0.4340 -0.2791  1.0978
  250SOD    SOD22310   5.634   2.063   4.688 -0.1896  0.5039 -0.0216
  251SOD    SOD22311   3.521   6.274   0.172  0.3174 -0.4127 -0.1297
  252SOD    SOD22312   5.675   6.725   5.416 -0.1597 -0.3006  0.4552
  253SOD    SOD22313   2.609   2.923  14.072  0.4311 -0.1396 -0.3567
  254SOD    SOD22314   4.986   6.623  15.989  0.3888 -0.0634  0.3025
  255SOD    SOD22315   1.316   4.382   4.851 -0.2448  0.2482 -0.0629
  256SOD    SOD22316   2.964   4.551   6.133 -0.1858  0.1542 -0.1669
  257SOD    SOD22317   2.608   1.456   6.200  0.4108 -0.0087 -0.0179
  258SOD    SOD22318   5.308   6.416   0.252  0.9412  0.3769  0.9045
  259SOD    SOD22319   2.886   4.764   2.099 -0.2943  0.3494 -0.0750
  260SOD    SOD22320   3.335   3.801  15.046 -0.0091 -0.0640 -0.0180
  261SOD    SOD22321   2.744   5.857   6.006  0.2103 -0.2531  0.4421
  262SOD    SOD22322   6.412   4.286  13.736  0.0821 -0.3830 -0.2643
  263SOD    SOD22323   6.702   4.187  13.195 -0.3325 -0.7966  0.0345
  264SOD    SOD22324   5.396   3.720  14.845 -0.0958  0.2175  0.1082
  265SOD    SOD22325   5.501   3.407   5.379  0.7012 -0.3395  0.1844
  266SOD    SOD22326   5.028   3.551   4.655 -0.1733 -0.5954 -0.4233
  267SOD    SOD22327   1.299   2.142  11.903 -0.0682 -0.2474  0.3937
  268SOD    SOD22328   5.866   5.364  11.463  0.2351  0.3480 -0.7248
  269SOD    SOD22329   3.768   2.023  11.900  0.3340 -0.1520 -0.1082
  270CLA    CLA22330   1.210   4.967   0.525 -0.0032  0.1687  0.0478
  271CLA    CLA22331   0.183   5.028  15.865  0.3198  0.5077 -0.4450
  272CLA    CLA22332   0.432   0.656  16.565  0.3751  0.3473 -0.4913
  273CLA    CLA22333   3.090   3.725  16.631 -0.1438  0.0845 -0.1310
  274CLA    CLA22334   3.594   6.729  15.608  0.6900  0.4469  0.7704
  275CLA    CLA22335   0.497   0.560   2.085 -0.6317  0.2910 -0.0117
  276CLA    CLA22336   6.752   4.626  14.198  0.1129  0.6534 -0.0676
  277CLA    CLA22337   1.860   0.025  12.960  0.3963 -0.0487 -0.1919
  278CLA    CLA22338   2.622   6.216  15.989 -0.3387  0.0586  0.1442
  279CLA    CLA22339   0.338   2.176   5.106 -0.1816 -0.0973 -0.0731
  280CLA    CLA22340   3.608   1.285  11.917 -0.1824  0.1543 -0.0302
  281CLA    CLA22341   3.544   1.215  15.100  0.1025 -0.3409  0.0629
  282CLA    CLA22342   5.566   5.293   3.470  0.5788 -0.0697 -0.0427
  283CLA    CLA22343   1.453   4.459   2.048  0.1521  0.0588 -0.0250
  284CLA    CLA22344   3.960   3.455  16.224 -0.0026 -0.1411  0.2902
  285CLA    CLA22345   1.475   2.400  15.803  0.0773  0.1290 -0.2676
  286CLA    CLA22346   6.035   1.382  13.838  0.1973  0.2737  0.3682
  287CLA    CLA22347   4.393   2.994  14.865 -0.2107  0.2433  0.0312
  288CLA    CLA22348   4.158   3.379   1.840 -0.1362  0.2693 -0.2463
  289CLA    CLA22349   5.389   2.949  14.718 -0.1883  0.0009 -0.2624
  290CLA    CLA22350   4.401   5.196   0.982 -0.1822 -0.6004  0.4810
  291CLA    CLA22351   1.628   4.771   4.722 -0.0761  0.2060 -0.4150
  292CLA    CLA22352   4.764   4.203   0.887 -0.7256 -0.1128 -0.0965
  293CLA    CLA22353   5.671   2.302   4.309  0.2044 -0.0479 -0.3132
  294CLA    CLA22354   5.817   3.237   5.114  0.0891 -0.0636 -0.0689
  295CLA    CLA22355   6.014   4.250  16.680 -0.0827  0.3070  0.1443
  296CLA    CLA22356   2.181   5.140  15.043  0.3372 -0.0731 -0.3891
  297CLA    CLA22357   5.616   1.191   2.913 -0.2937 -0.4090 -0.2053
  298CLA    CLA22358   5.323   1.425  14.452  0.1024  0.0611 -0.4694
  299CLA    CLA22359   6.478   5.621  12.889  0.0796  0.2312 -0.1517
  300CLA    CLA22360   5.257   6.649  17.079 -0.1446  0.6956 -0.1260
  301CLA    CLA22361   2.433   0.879   1.582  0.0295 -0.1941 -0.0216
  302CLA    CLA22362   4.771   2.145  16.810  0.4488 -0.2004 -0.4662
  303CLA    CLA22363   2.613   3.744   4.602 -0.1260  0.2942  0.1377
  304CLA    CLA22364   2.161   0.163   4.389 -0.1594 -0.3260 -0.1001
  305CLA    CLA22365   4.811   0.183  16.628  0.1048 -0.0072  0.1416
  306CLA    CLA22366   4.988   0.872   4.985 -0.1634  0.2961 -0.3140
  307CLA    CLA22367   4.331   1.678   1.058 -0.1394  0.2986 -0.2080
  308CLA    CLA22368   5.816   0.935  15.583  0.2164  0.3452  0.3416
  309CLA    CLA22369   2.798   2.405   4.697  0.1033  0.3080 -0.0025
  310CLA    CLA22370   3.088   0.851  14.536 -0.5181  0.1754  0.0237
  311CLA    CLA22371   4.623   4.101  11.559  0.1404 -0.0021 -0.4601
  312CLA    CLA22372   6.588   6.483   0.987  0.0915  0.1504 -0.6684
  313CLA    CLA22373   1.648   0.717  13.996  0.3915  0.0898 -0.3123
  314CLA    CLA22374   3.734   1.156   3.027 -0.2647  0.0172 -0.1233
  315CLA    CLA22375   5.862   5.369   2.541  0.0884  0.0341  0.1788
  316CLA    CLA22376   5.899   4.121   3.343 -0.2484  0.2057  0.3563
  317CLA    CLA22377   0.126   1.458  14.211  0.3030 -0.0169  0.1937
  318CLA    CLA22378   0.302   2.642  13.124  0.0411  0.2683  0.4004
  319CLA    CLA22379   0.216   5.810  13.894 -0.2259 -0.6299 -0.3208
  320CLA    CLA22380   2.101   3.464   1.129  0.3553  0.5621 -0.1955
  321CLA    CLA22381   2.893   0.436   5.015 -0.2601  0.3975 -0.0266
  322CLA    CLA22382   5.121   0.171   2.377  0.1641  0.1255 -0.4747
  323TIP3   OH222383   5.154   0.868  13.717  0.0663  0.1618  0.0689
  323TIP3    H122384   5.135   0.943  13.661 -0.6365  0.0477  0.1424
  323TIP3    H222385   5.249   0.857  13.712 -0.1399 -1.2576 -2.9709
  324TIP3   OH222386   1.883   0.107   1.869 -0.7196 -0.2526  0.4179
  324TIP3    H122387   1.791   0.114   1.842 -0.5339  0.5165 -0.0340
  324TIP3    H222388   1.928   0.075   1.791 -0.2023  1.8409 -0.2106
  325TIP3   OH222389   0.905   2.835  15.921 -0.3120 -0.0626 -0.3854
  325TIP3    H122390   0.943   2.914  15.961  0.2375 -0.4088 -0.2293
  325TIP3    H222391   0.872   2.784  15.995 -1.2002  0.2836 -0.5231
  326TIP3   OH222392   0.563   2.055  12.410 -0.1192  0.1343 -0.1517
  326TIP3    H122393   0.471   2.051  12.385  0.4094 -0.7204 -2.1693
  326TIP3    H222394   0.591   1.963  12.413  0.3733  0.3014  1.7750
  327TIP3   OH222395   1.695   6.477   5.032  0.1646 -0.3833 -0.1968
  327TIP3    H122396   1.654   6.414   4.972 -1.8391 -0.0306  0.7104
  327TIP3    H222397   1.647   6.466   5.114  0.6550  1.3957  0.3646
  328TIP3   OH222398   2.741   1.940  17.261 -0.3089 -0.2739 -1.0965
  328TIP3    H122399   2.678   1.962  17.329 -0.0922  0.3477 -1.0805
  328TIP3    H222400   2.788   1.864  17.294  1.1282  1.1788  0.3580
  329TIP3   OH222401   6.534   1.361  13.774  0.2359 -0.5881 -0.0436
  329TIP3    H122402   6.604   1.397  13.829  1.2541 -1.9691 -0.3884
  329TIP3    H222403   6.462   1.344  13.835  0.0867  1.0236  0.2853
  330TIP3   OH222404   3.864   4.633  12.769 -0.1295  0.0497 -0.1234
  330TIP3    H122405   3.876   4.703  12.704 -0.4426  1.2926  1.1015
  330TIP3    H222406   3.856   4.679  12.853  0.4167 -1.5163  0.8328
  331TIP3   OH222407   0.665   5.418   3.894 -0.1485 -0.4481  0.0893
  331TIP3    H122408   0.617   5.349   3.940 -0.1184  0.2486  1.2101
  331TIP3    H222409   0.733   5.371   3.845 -0.6778 -1.2803  0.1389
  332TIP3   OH222410   0.499   4.289  14.301 -0.7479  0.4597  0.5093
  332TIP3    H122411   0.577   4.320  14.346  0.0634 -0.5025 -0.1693
  332TIP3    H222412   0.496   4.195  14.320 -1.4525  0.3952  0.1223
  333TIP3   OH222413   3.043   4.361  13.175  0.0116  0.7049  0.6025
  333TIP3    H122414   2.992   4.343  13.253  2.3216 -0.2705  1.9980
  333TIP3    H222415   3.133   4.368  13.207  0.9157  1.2545 -1.8562
  334TIP3   OH222416   4.069   0.809  14.467 -0.1714  0.3858  0.1128
  334TIP3    H122417   4.047   0.885  14.521 -2.1611  0.8445 -1.2342
  334TIP3    H222418   4.161   0.822  14.445  0.3482  0.8256  2.3097
  335TIP3   OH222419   4.119   4.499  17.151  0.3555 -0.0165 -0.0607
  335TIP3    H122420   4.024   4.511  17.158  0.4101 -0.1694  1.0767
  335TIP3    H222421   4.130   4.434  17.081 -0.4080 -0.4193  0.1853
  336TIP3   OH222422   1.407   0.597   0.750 -0.4759 -0.4240 -0.6718
  336TIP3    H122423   1.429   0.511   0.788 -0.6396  0.2891  1.1521
  336TIP3    H222424   1.491   0.642   0.744 -0.2204 -1.0953 -2.7565
  337TIP3   OH222425   3.235   2.782  16.222 -0.4597 -0.1842  0.0385
  337TIP3    H122426   3.323   2.819  16.224 -1.3250  2.0897 -0.8196
  337TIP3    H222427   3.236   2.722  16.147  0.4260 -0.3907  0.2061
  338TIP3   OH222428   5.252   4.468   0.706  0.4045 -0.4464  0.4149
  338TIP3    H122429   5.274   4.485   0.798  0.8231 -0.8425  0.3931
  338TIP3    H222430   5.164   4.430   0.709  1.1282 -2.1790  0.8255
  339TIP3   OH222431   4.420   1.501  13.720 -0.1154 -0.1749  0.3818
  339TIP3    H122432   4.468   1.421  13.703  0.1120 -0.7121  3.0590
  339TIP3    H222433   4.485   1.571  13.716  0.4053 -0.5810  1.3544
  340TIP3   OH222434   4.757   2.315  16.554  0.1885  0.2445 -0.4224
  340TIP3    H122435   4.765   2.270  16.638  0.4743 -0.6292 -0.9007
  340TIP3    H222436   4.772   2.407  16.574 -0.8717  0.1974  0.6551
  341TIP3   OH222437   3.380   0.160  13.146  0.0883 -0.1641  0.2652
  341TIP3    H122438   3.462   0.167  13.194  0.4727 -0.0593 -0.3988
  341TIP3    H222439   3.326   0.102  13.200  1.6056 -2.5840 -0.6228
  342TIP3   OH222440   1.000   4.660   2.637  0.6395 -0.0523 -1.0189
  342TIP3    H122441   0.951   4.586   2.672  0.7250  1.2477  2.1779
  342TIP3    H222442   1.091   4.643   2.662  0.5339  1.4834  0.6058
  343TIP3   OH222443   2.496   1.419  13.618 -0.2523 -0.2638  0.2647
  343TIP3    H122444   2.442   1.346  13.587 -2.0317  1.9136 -2.1882
  343TIP3    H222445   2.536   1.455  13.539 -1.3887  2.8455  0.9528
  344TIP3   OH222446   3.284   4.181  12.837 -0.0998  0.1439 -0.1314
  344TIP3    H122447   3.362   4.127  12.824 -0.2964 -0.3029  0.5048
  344TIP3    H222448   3.217   4.140  12.782  0.1972  0.7244 -0.9387
  345TIP3   OH222449   4.532   4.198  17.238 -0.2373 -0.4977  0.2453
  345TIP3    H122450   4.443   4.196  17.204 -0.6158  1.3322  0.9995
  345TIP3    H222451   4.566   4.283  17.211  0.3914 -0.1170  2.0717
  346TIP3   OH222452   0.964   2.766  15.578 -0.6963  0.3413  0.3364
  346TIP3    H122453   0.997   2.811  15.655  0.9374  0.4640 -0.3838
  346TIP3    H222454   0.887   2.719  15.608 -1.2826  2.0013  1.5624
  347TIP3   OH222455   0.516   6.730   4.506 -0.5720  0.3369 -0.0381
  347TIP3    H122456   0.569   6.808   4.488 -0.8488  0.4543 -0.3721
  347TIP3    H222457   0.426   6.757   4.485 -0.6712 -0.0693 -0.1496
  348TIP3   OH222458   2.516   5.613  16.427  0.2775 -0.5329 -0.2060
  348TIP3    H122459   2.598   5.663  16.428 -0.4028  0.6474  1.1809
  348TIP3    H222460   2.526   5.550  16.498 -0.2751  0.0992  0.4464
  349TIP3   OH222461   4.684   4.001  14.443 -0.6434 -0.2416  0.2237
  349TIP3    H122462   4.764   3.966  14.405 -1.8954 -3.0318 -0.0801
  349TIP3    H222463   4.698   3.998  14.537 -0.1474 -0.0710  0.1570
  350TIP3   OH222464   3.446   5.423  13.235 -0.0579 -0.0059  0.1130
  350TIP3    H122465   3.516   5.391  13.179 -1.6391  1.6695 -3.0796
  350TIP3    H222466   3.463   5.517  13.242 -0.2156 -0.0894  2.0990
  351TIP3   OH222467   2.623   2.119   1.773  0.0324  0.5386 -0.2834
  351TIP3    H122468   2.695   2.057   1.759 -1.3709 -1.4009  0.6294
  351TIP3    H222469   2.606   2.154   1.686  1.1018 -0.0929 -0.7766
  352TIP3   OH222470   4.542   5.367   4.532 -0.8186 -0.2201  0.3792
  352TIP3    H122471   4.501   5.331   4.454 -1.5837 -0.3492  0.8334
  352TIP3    H222472   4.603   5.432   4.499 -0.1381 -1.2158 -0.4015
  353TIP3   OH222473   0.235   3.262   5.742 -0.1306  0.8476 -0.7546
  353TIP3    H122474   0.180   3.219   5.808 -1.9088  3.8734 -0.0941
  353TIP3    H222475   0.181   3.262   5.663  0.5078  0.5053 -1.2015
  354TIP3   OH222476   0.680   5.201   3.327 -0.1881 -0.4045 -0.8160
  354TIP3    H122477   0.743   5.247   3.272  1.1977  0.7627  1.5815
  354TIP3    H222478   0.722   5.118   3.347 -0.1058 -0.2889 -0.5029
  355TIP3   OH222479   4.117   3.713  12.138 -0.2149  0.3335  0.3546
  355TIP3    H122480   4.114   3.753  12.225  1.6439  1.2738  0.0399
  355TIP3    H222481   4.138   3.786  12.079  1.3149 -0.7490 -0.4943
  356TIP3   OH222482   2.338   5.958  11.476  0.0650  0.3043  0.6328
  356TIP3    H122483   2.244   5.955  11.493 -0.3790  1.4726 -1.2208
  356TIP3    H222484   2.345   6.008  11.394  2.4550  2.2136  1.8818
  357TIP3   OH222485   2.471   4.811  12.040 -0.3076 -0.0063 -0.0782
  357TIP3    H122486   2.429   4.891  12.070  0.1891  0.4622 -0.6218
  357TIP3    H222487   2.444   4.745  12.104 -0.2549  0.7094  0.6969
  358TIP3   OH222488   2.869   3.382  14.201 -0.0006  0.3615 -0.6507
  358TIP3    H122489   2.840   3.409  14.114  0.1213  0.7151 -0.5829
  358TIP3    H222490   2.788   3.379  14.252 -0.0650  0.2112 -0.7613
  359TIP3   OH222491   2.573   6.064  12.492  0.1143  0.2780 -0.5974
  359TIP3    H122492   2.558   6.062  12.587  0.5628  2.3585 -0.4266
  359TIP3    H222493   2.635   6.136  12.480 -0.8473  0.8227 -2.5993
  360TIP3   OH222494   1.364   1.127  14.051  0.4290  0.0965 -0.1015
  360TIP3    H122495   1.367   1.033  14.070  1.2386 -0.0503 -0.9400
  360TIP3    H222496   1.425   1.166  14.114  2.0610 -0.2401 -1.4234
  361TIP3   OH222497   2.207   3.401   5.077 -0.0542 -0.2012  0.0158
  361TIP3    H122498   2.238   3.476   5.128 -0.0465 -0.5899  0.6012
  361TIP3    H222499   2.130   3.370   5.125 -0.5814 -0.0296 -0.7162
  362TIP3   OH222500   2.768   4.656  13.574  0.2006  0.0080 -0.7769
  362TIP3    H122501   2.737   4.730  13.522 -2.0227 -0.8553 -0.7834
  362TIP3    H222502   2.844   4.691  13.622 -0.5078  2.1531 -1.0865
  363TIP3   OH222503   0.642   5.363  15.860  0.0770 -0.4884  0.1438
  363TIP3    H122504   0.725   5.395  15.896  0.3454 -0.4769 -0.4612
  363TIP3    H222505   0.657   5.361  15.765 -0.5374 -0.7150  0.0487
  364TIP3   OH222506   2.724   6.257  13.501  0.1587 -0.0273  0.4579
  364TIP3    H122507   2.654   6.323  13.509  0.0720 -0.0792  0.1089
  364TIP3    H222508   2.680   6.174  13.523 -0.5433 -0.4569 -2.2011
  365TIP3   OH222509   2.688   5.441  10.818  0.1494  0.1116 -0.0228
  365TIP3    H122510   2.779   5.418  10.800 -0.5647 -1.0712 -2.5257
  365TIP3    H222511   2.687   5.537  10.817  1.4437  0.1501  0.5868
  366TIP3   OH222512   3.819   1.847  15.330  0.4713  0.0560  0.0456
  366TIP3    H122513   3.887   1.912  15.315 -0.3279  0.7229 -0.8856
  366TIP3    H222514   3.793   1.859  15.421  2.0464 -0.6786  0.6242
  367TIP3   OH222515   3.758   4.640  11.026 -0.2741  0.3027  0.3807
  367TIP3    H122516   3.775   4.594  10.944  2.7078  1.6743  0.0909
  367TIP3    H222517   3.728   4.727  10.998  0.4374  0.6624  0.6997
  368TIP3   OH222518   0.957   5.046   1.817  0.5057 -0.5027  0.0494
  368TIP3    H122519   0.990   5.086   1.737 -1.2701  0.6090 -0.1831
  368TIP3    H222520   0.864   5.071   1.820  0.3833 -1.0262  2.1320
  369TIP3   OH222521   1.287   0.155   5.647  0.4766  1.1124 -0.0465
  369TIP3    H122522   1.362   0.177   5.702  0.7363 -1.9408  1.0085
  369TIP3    H222523   1.215   0.142   5.709  0.4334 -1.0859 -0.4910
  370TIP3   OH222524   0.703   0.158  15.221  0.0676  0.2383  0.1534
  370TIP3    H122525   0.723   0.215  15.295  1.0214 -0.6528  0.6243
  370TIP3    H222526   0.629   0.105  15.251 -0.5586  0.9297 -0.1360
  371TIP3   OH222527   1.573   0.816  15.679 -0.2380 -0.5486 -0.5872
  371TIP3    H122528   1.579   0.888  15.616 -0.5816 -0.5695 -0.6477
  371TIP3    H222529   1.479   0.800  15.688 -0.2495 -0.0117  0.5228
  372TIP3   OH222530   3.390   0.115  14.072  0.3552  0.1250 -0.1614
  372TIP3    H122531   3.362   0.151  14.157  2.1512 -2.2666  1.6017
  372TIP3    H222532   3.311   0.075  14.036 -0.3540  0.7952  0.6106
  373TIP3   OH222533   5.821   3.827   4.510 -0.5068 -0.1385 -0.4382
  373TIP3    H122534   5.767   3.830   4.431  0.2906  1.3479 -0.9734
  373TIP3    H222535   5.821   3.735   4.536 -0.1523 -0.8139 -2.6229
  374TIP3   OH222536   5.918   5.381  14.962 -0.3801  0.2407  0.6701
  374TIP3    H122537   5.967   5.401  14.882 -0.2283  0.4727  0.8195
  374TIP3    H222538   5.931   5.287  14.975 -1.7321 -0.1432 -0.4611
  375TIP3   OH222539   1.066   2.521  12.166  0.8450  0.6356 -0.2361
  375TIP3    H122540   1.000   2.590  12.180  0.8275  0.5767 -0.0372
  375TIP3    H222541   1.144   2.553  12.210  0.1313 -0.6184  2.1252
  376TIP3   OH222542   4.241   5.333  11.077  0.4739 -0.5642 -0.2307
  376TIP3    H122543   4.325   5.362  11.113 -0.1972  0.7988  0.2886
  376TIP3    H222544   4.180   5.339  11.150 -0.1646 -1.1873 -0.7030
  377TIP3   OH222545   2.381   2.627  16.995  0.0989  0.3426  0.3316
  377TIP3    H122546   2.388   2.620  16.900 -1.1714 -1.3548  0.3042
  377TIP3    H222547   2.465   2.597  17.029 -0.0776 -0.8953 -0.2579
  378TIP3   OH222548   5.329   3.872  15.962  0.1304 -0.3536  0.0714
  378TIP3    H122549   5.279   3.802  16.003  0.0901  0.6467  1.8351
  378TIP3    H222550   5.354   3.837  15.877  0.7441 -2.7673  1.1612
  379TIP3   OH222551   2.742   3.532   1.953 -0.4279  0.4502 -0.1847
  379TIP3    H122552   2.806   3.592   1.915  1.3432 -1.9816 -1.3002
  379TIP3    H222553   2.666   3.539   1.895  0.5250  0.1606 -1.5166
  380TIP3   OH222554   1.743   6.702  13.977 -0.1361 -0.4854 -0.7436
  380TIP3    H122555   1.705   6.780  13.935 -0.0162 -0.4977 -0.8775
  380TIP3    H222556   1.672   6.666  14.029  0.6224  1.4380  1.8206
  381TIP3   OH222557   3.798   2.264  13.324  0.5329 -0.3265  0.0551
  381TIP3    H122558   3.791   2.174  13.357  0.4666 -0.3198  0.0597
  381TIP3    H222559   3.810   2.254  13.229 -1.3514 -0.3034 -0.2231
  382TIP3   OH222560   1.506   6.537   4.399  0.2878  0.4836 -0.3148
  382TIP3    H122561   1.490   6.552   4.306  1.2468  1.6522 -0.3165
  382TIP3    H222562   1.425   6.564   4.442  0.3448  1.3230 -0.7130
  383TIP3   OH222563   5.617   2.638  12.728 -0.5598  0.2929  0.4781
  383TIP3    H122564   5.550   2.572  12.750 -0.3649 -0.4794 -1.1289
  383TIP3    H222565   5.639   2.621  12.637  3.2087 -0.7033  1.4137
  384TIP3   OH222566   4.610   0.917   0.981  0.2607 -0.0050 -0.1851
  384TIP3    H122567   4.622   0.936   0.888 -0.1174 -0.0204 -0.2369
  384TIP3    H222568   4.613   1.002   1.024  0.3524  0.0097 -0.2206
  385TIP3   OH222569   2.463   0.294  11.401 -0.3125  0.5410 -0.7451
  385TIP3    H122570   2.459   0.272  11.494 -0.5256 -0.8704 -1.0644
  385TIP3    H222571   2.388   0.353  11.387 -1.5772 -0.9035 -0.4145
  386TIP3   OH222572   1.264   6.133  12.995  0.7678 -0.1056  0.6811
  386TIP3    H122573   1.318   6.212  12.986  0.7177 -0.2142 -0.8045
  386TIP3    H222574   1.225   6.141  13.082  1.8199  0.8295  1.1018
  387TIP3   OH222575   3.556   6.254  13.430 -0.2548  0.3375 -0.1401
  387TIP3    H122576   3.488   6.190  13.409  0.3953 -0.4178 -0.0129
  387TIP3    H222577   3.508   6.333  13.456 -1.0829 -0.2667  0.2220
  388TIP3   OH222578   1.059   1.983   1.428  0.4453 -0.2366 -0.0553
  388TIP3    H122579   1.057   1.912   1.491  0.8425  0.2342  0.4987
  388TIP3    H222580   1.036   2.061   1.479  1.5492  0.2791 -0.3077
  389TIP3   OH222581   1.078   0.709  13.164 -0.2437 -0.1699  0.0466
  389TIP3    H122582   1.124   0.757  13.233  0.3110 -0.3960 -0.1564
  389TIP3    H222583   1.120   0.738  13.083  0.4550 -1.3790 -0.0376
  390TIP3   OH222584   2.906   2.231  14.875 -0.1802  0.4258  0.2363
  390TIP3    H122585   2.890   2.177  14.952 -0.0283 -0.2094 -0.1670
  390TIP3    H222586   2.938   2.314  14.910  1.3246 -0.3527  0.8317
  391TIP3   OH222587   5.374   1.441  16.840 -0.0082 -0.5169 -0.1413
  391TIP3    H122588   5.416   1.436  16.926  0.1431  0.0470 -0.1815
  391TIP3    H222589   5.362   1.534  16.824 -1.4939 -0.6657 -0.0327
  392TIP3   OH222590   5.822   6.482   2.585  0.5845 -0.3288 -0.5249
  392TIP3    H122591   5.872   6.512   2.660 -0.0295  0.0977 -0.2756
  392TIP3    H222592   5.764   6.414   2.620  0.4715 -0.3034 -0.6580
  393TIP3   OH222593   3.714   1.624   4.994 -0.0719 -0.0604 -0.5826
  393TIP3    H122594   3.725   1.553   5.058 -1.5991 -0.5633 -0.8378
  393TIP3    H222595   3.781   1.688   5.018 -0.0208 -0.6430  0.9585
  394TIP3   OH222596   4.321   3.748   3.675  0.2808  0.0062  0.4473
  394TIP3    H122597   4.275   3.780   3.598 -1.0876 -0.7625  0.9148
  394TIP3    H222598   4.414   3.766   3.657  0.0712 -0.8202 -1.6889
  395TIP3   OH222599   3.921   6.114   2.140  0.2211  0.2597 -0.0601
  395TIP3    H122600   4.003   6.086   2.180 -1.6219 -2.3522  2.2363
  395TIP3    H222601   3.884   6.035   2.102 -1.1461  1.4162 -1.2601
  396TIP3   OH222602   4.053   4.554  10.837 -0.2620  0.2695 -0.3385
  396TIP3    H122603   3.970   4.541  10.790 -0.7297  0.8041  0.3099
  396TIP3    H222604   4.046   4.642  10.874  0.1853 -0.0391  0.5308
  397TIP3   OH222605   5.830   3.388   0.975 -0.1620 -0.2150 -0.1248
  397TIP3    H122606   5.745   3.419   0.945 -0.4102  0.5836  1.3240
  397TIP3    H222607   5.810   3.316   1.035  0.1036  0.6418  1.0190
  398TIP3   OH222608   3.848   6.350   1.074 -0.2917  0.2719  0.3590
  398TIP3    H122609   3.905   6.286   1.118 -0.1848 -1.3727 -1.9882
  398TIP3    H222610   3.909   6.406   1.025 -0.5437  0.1508 -0.0988
  399TIP3   OH222611   5.973   2.505   3.402  0.5261 -0.0777 -0.7718
  399TIP3    H122612   6.050   2.556   3.376  0.0504  0.5510 -0.9701
  399TIP3    H222613   5.927   2.488   3.319  0.3356 -0.2734 -0.6271
  400TIP3   OH222614   0.849   0.154   3.708  0.2152 -0.1777 -0.1529
  400TIP3    H122615   0.760   0.141   3.742 -0.4302 -0.4605 -1.8293
  400TIP3    H222616   0.870   0.244   3.731 -1.0532  0.3286 -0.8366
  401TIP3   OH222617   2.956   4.925   4.049  0.3902 -0.2480 -0.6686
  401TIP3    H122618   3.027   4.966   4.001  0.5153  0.0405 -0.2461
  401TIP3    H222619   2.997   4.892   4.129  0.3832 -1.5754 -1.1874
  402TIP3   OH222620   5.888   6.190   1.513 -0.0189  0.3367  0.0610
  402TIP3    H122621   5.945   6.226   1.446  0.2820  1.4707  0.8816
  402TIP3    H222622   5.940   6.122   1.555  0.0585  0.1294 -0.3667
  403TIP3   OH222623   3.316   2.037   3.623 -0.2235  0.0227 -0.0778
  403TIP3    H122624   3.365   2.000   3.696 -1.6201 -1.0264  0.3521
  403TIP3    H222625   3.317   2.132   3.639 -1.1978 -0.2419  1.7542
  404TIP3   OH222626   5.081   0.353   4.601 -0.4042  0.1391  0.8830
  404TIP3    H122627   5.086   0.282   4.537 -0.6966  1.5002 -0.7264
  404TIP3    H222628   5.007   0.330   4.657 -0.0363 -1.1787  0.8545
  405TIP3   OH222629   0.736   4.092   5.025  0.0860 -0.0156  0.5867
  405TIP3    H122630   0.674   4.136   4.967  0.9391  0.2907 -0.1198
  405TIP3    H222631   0.731   4.140   5.107 -1.7455 -0.9657  1.0783
  406TIP3   OH222632   5.615   4.088  13.455 -0.3096 -0.1878  0.4211
  406TIP3    H122633   5.687   4.053  13.507  0.4127 -1.4040 -1.2872
  406TIP3    H222634   5.619   4.182  13.468  1.4896 -0.2498  0.5316
  407TIP3   OH222635   0.494   2.939   2.911  0.5426  0.4571  0.3029
  407TIP3    H122636   0.498   2.860   2.857 -2.0081  0.4895 -0.0975
  407TIP3    H222637   0.530   3.008   2.855 -0.0270  0.0940 -0.5400
  408TIP3   OH222638   0.135   3.237   3.272  0.2270 -0.4989  0.2318
  408TIP3    H122639   0.097   3.321   3.295 -0.8395 -0.9539  0.1822
  408TIP3    H222640   0.120   3.228   3.177  1.0818 -0.3794  0.0767
  409TIP3   OH222641   5.458   2.449  14.867 -0.0553  0.5809  0.2090
  409TIP3    H122642   5.548   2.449  14.899  0.0680  0.7156 -0.1321
  409TIP3    H222643   5.461   2.502  14.787 -0.2207 -0.3302 -0.4081
  410TIP3   OH222644   6.130   3.881  11.832  0.5574 -0.0343  0.1100
  410TIP3    H122645   6.061   3.827  11.871  0.1633  0.4728  0.1350
  410TIP3    H222646   6.206   3.824  11.828 -0.5144 -1.4671 -2.2286
  411TIP3   OH222647   1.799   1.373  13.076  0.2542  0.1910  0.8151
  411TIP3    H122648   1.831   1.403  13.160  0.0111  0.4397  0.8212
  411TIP3    H222649   1.871   1.389  13.015  1.0811 -1.5684  1.2754
  412TIP3   OH222650   0.764   4.624  12.533 -0.1139 -0.2265 -0.7804
  412TIP3    H122651   0.687   4.568  12.527 -0.1013 -0.3242 -0.0925
  412TIP3    H222652   0.823   4.592  12.465 -0.7427 -0.0476 -1.4192
  413TIP3   OH222653   5.262   6.229   0.703 -0.4112  0.3539  0.6629
  413TIP3    H122654   5.293   6.138   0.705  0.1665  0.5452  2.4183
  413TIP3    H222655   5.338   6.281   0.730 -1.0536  1.2436  0.8087
  414TIP3   OH222656   1.502   4.956   1.071  0.0566 -0.0668  0.3105
  414TIP3    H122657   1.411   4.981   1.056  0.8730  3.9375  0.6908
  414TIP3    H222658   1.504   4.862   1.059 -3.7341 -0.0896 -1.5933
  415TIP3   OH222659   3.264   3.149   4.814  0.2469 -0.0093  0.2602
  415TIP3    H122660   3.193   3.084   4.814 -1.2073  1.4876 -0.8481
  415TIP3    H222661   3.230   3.221   4.866  0.6906  0.9972 -0.8177
  416TIP3   OH222662   5.695   1.677  12.018 -0.4149  0.1860  0.3469
  416TIP3    H122663   5.776   1.643  11.979 -1.1700 -0.3427 -0.7856
  416TIP3    H222664   5.669   1.611  12.081 -1.4996 -1.0984 -1.3563
  417TIP3   OH222665   3.891   6.523   3.753  0.0620  0.3297 -0.1733
  417TIP3    H122666   3.877   6.428   3.758 -2.0564  0.6195  0.6205
  417TIP3    H222667   3.895   6.551   3.844 -3.8624  1.4742 -0.1629
  418TIP3   OH222668   3.099   0.090  15.824  0.7103  0.0320 -0.4106
  418TIP3    H122669   3.145   0.019  15.780 -1.1829 -1.7117  0.3076
  418TIP3    H222670   3.055   0.138  15.753  0.0011 -1.0217 -0.6965
  419TIP3   OH222671   6.706   2.526  15.881  0.1767 -0.5153  0.7982
  419TIP3    H122672   6.691   2.477  15.962  0.6187 -0.1031  1.1322
  419TIP3    H222673   6.741   2.461  15.820 -2.9184 -1.5647 -0.0605
  420TIP3   OH222674   0.825   4.913   4.096  0.2510  0.2573  0.1017
  420TIP3    H122675   0.736   4.882   4.115  0.4158 -0.1193  0.2806
  420TIP3    H222676   0.876   4.888   4.173  1.1529 -2.1479 -1.1702
  421TIP3   OH222677   6.129   2.950  16.829  0.1982 -0.1095  0.2129
  421TIP3    H122678   6.055   2.941  16.769 -0.8676  0.9006  1.3183
  421TIP3    H222679   6.128   3.042  16.855  2.0621  0.0161  0.0236
  422TIP3   OH222680   0.747   4.042   1.428  0.1916 -0.3984 -0.2993
  422TIP3    H122681   0.736   4.068   1.520 -0.0366 -1.6304  0.0396
  422TIP3    H222682   0.832   3.999   1.425 -0.2741 -1.3387 -0.4158
  423TIP3   OH222683   5.936   2.098   2.249  0.2598 -0.3730  0.8855
  423TIP3    H122684   5.994   2.061   2.182  1.1641  1.8830  0.3441
  423TIP3    H222685   5.991   2.102   2.328  0.4780  0.6832  0.6833
  424TIP3   OH222686   2.131   3.787  16.506  0.0908  0.8589  0.2033
  424TIP3    H122687   2.098   3.846  16.573 -1.5368 -0.6916  0.8175
  424TIP3    H222688   2.064   3.720  16.496  2.6112 -1.9929  0.8630
  425TIP3   OH222689   6.373   5.845  16.215 -0.0012  0.2407 -0.2615
  425TIP3    H122690   6.322   5.913  16.258 -2.9237 -1.9620  0.1125
  425TIP3    H222691   6.353   5.854  16.122 -0.5310 -0.1922 -0.1926
  426TIP3   OH222692   3.743   4.045  11.905  0.1119 -0.2876 -0.5002
  426TIP3    H122693   3.832   4.012  11.892  0.8175  0.6471  1.6559
  426TIP3    H222694   3.697   4.020  11.825  2.2504 -0.9444 -1.5959
  427TIP3   OH222695   6.193   3.492  13.711  0.4100  0.2196  0.0423
  427TIP3    H122696   6.273   3.440  13.710  0.3381  0.1127 -1.0744
  427TIP3    H222697   6.219   3.576  13.751  0.7697 -0.2634  0.8534
  428TIP3   OH222698   3.677   2.934  16.906 -0.4330  0.1997 -0.1396
  428TIP3    H122699   3.766   2.967  16.898 -0.7046  1.0852  0.3568
  428TIP3    H222700   3.621   3.009  16.885 -1.0706 -0.3840 -0.6089
  429TIP3   OH222701   3.689   4.861  15.273  0.1187  0.7702 -0.6787
  429TIP3    H122702   3.706   4.817  15.189  0.8956 -1.9056  0.7641
  429TIP3    H222703   3.769   4.911  15.290  0.7830 -0.2518 -0.6686
  430TIP3   OH222704   6.696   3.471  15.118  0.6535  0.7300 -0.5762
  430TIP3    H122705   6.626   3.533  15.095 -0.7296 -1.0892 -1.5277
  430TIP3    H222706   6.746   3.516  15.186 -1.0051  2.4030 -0.3655
  431TIP3   OH222707   0.868   4.494   2.799  0.5527 -0.3084  0.3555
  431TIP3    H122708   0.893   4.414   2.752  2.5801 -0.3947  1.5138
  431TIP3    H222709   0.785   4.471   2.841  0.0257 -1.0724 -1.0086
  432TIP3   OH222710   3.485   1.390   3.730 -0.4951 -0.4508  0.0895
  432TIP3    H122711   3.517   1.427   3.648  1.8843 -0.5714  0.8673
  432TIP3    H222712   3.458   1.466   3.781 -0.8639 -0.2740 -0.3634
  433TIP3   OH222713   1.231   3.438   3.439 -0.3940  0.6010 -0.1333
  433TIP3    H122714   1.179   3.387   3.502  0.4374 -0.7535 -0.4869
  433TIP3    H222715   1.297   3.376   3.408 -0.8382  1.1874 -2.4235
  434TIP3   OH222716   1.165   3.697   2.905  0.1455 -0.1844 -0.0856
  434TIP3    H122717   1.086   3.723   2.858  0.8335 -0.8795 -1.7170
  434TIP3    H222718   1.207   3.633   2.847  2.3706  0.8434  0.2953
  435TIP3   OH222719   0.362   2.306   2.539  0.2438 -0.3168 -0.4922
  435TIP3    H122720   0.280   2.256   2.534  1.1305 -1.9068  0.0400
  435TIP3    H222721   0.408   2.267   2.613  1.5608  0.4299 -0.9029
  436TIP3   OH222722   6.742   4.210  14.496  0.2972 -0.1976 -0.6336
  436TIP3    H122723   6.744   4.117  14.519  2.1980 -0.4749 -1.7218
  436TIP3    H222724   6.761   4.255  14.578 -0.8031 -0.7311 -0.0583
  437TIP3   OH222725   3.290   1.405  16.038  0.1416  1.1758 -0.1399
  437TIP3    H122726   3.327   1.332  15.990 -0.1388  0.7257  0.3148
  437TIP3    H222727   3.256   1.464  15.971  0.6390  1.0377 -0.5146
  438TIP3   OH222728   6.443   2.557   3.242  0.2065 -0.1928  0.1491
  438TIP3    H122729   6.493   2.576   3.321 -1.3522  0.1719  1.1042
  438TIP3    H222730   6.360   2.604   3.254  0.1388  0.3434 -1.9723
  439TIP3   OH222731   3.018   5.134   5.743 -0.2483 -0.2779 -0.4729
  439TIP3    H122732   2.972   5.129   5.827 -0.4335  0.2273 -0.5401
  439TIP3    H222733   3.103   5.092   5.760  0.4527  1.3985  0.4730
  440TIP3   OH222734   5.229   1.381   4.874 -0.0276  0.0251  0.2124
  440TIP3    H122735   5.296   1.359   4.810 -0.1862  0.6496 -0.1781
  440TIP3    H222736   5.146   1.359   4.831 -0.0729 -1.0775  0.8263
  441TIP3   OH222737   1.967   2.649  15.707 -0.4289 -0.0950  0.3020
  441TIP3    H122738   1.878   2.627  15.735 -1.2406  2.2005 -0.2100
  441TIP3    H222739   1.964   2.642  15.611 -0.5995  1.5613  0.1509
  442TIP3   OH222740   2.347   4.080  16.657  0.4343 -0.1364 -0.0315
  442TIP3    H122741   2.356   4.021  16.732  0.7059  0.8783  0.7759
  442TIP3    H222742   2.426   4.067  16.605  0.4985 -0.4711  0.1490
  443TIP3   OH222743   4.034   0.160   0.171  0.3140 -0.0597 -0.5398
  443TIP3    H122744   3.984   0.088   0.208  1.9861 -0.1995  1.6379
  443TIP3    H222745   3.970   0.231   0.161 -0.7021 -0.8343  0.2612
  444TIP3   OH222746   3.061   5.254  16.470  0.0005  0.9421 -0.0521
  444TIP3    H122747   3.046   5.184  16.533  0.3848  0.8141 -0.1048
  444TIP3    H222748   2.997   5.322  16.494 -1.4488 -0.0401 -0.9569
  445TIP3   OH222749   4.615   6.052   3.517 -0.3097 -0.3939 -0.5011
  445TIP3    H122750   4.686   6.079   3.576 -0.5883 -1.8134  0.5584
  445TIP3    H222751   4.557   6.128   3.513  0.7811  0.4571 -0.6255
  446TIP3   OH222752   2.488   5.013   3.592  0.1697 -0.0552  0.4226
  446TIP3    H122753   2.470   5.048   3.504  0.3019 -1.4621 -0.1961
  446TIP3    H222754   2.415   4.953   3.609  2.0633 -2.7803 -0.4244
  447TIP3   OH222755   3.208   3.373  16.937 -0.6223 -0.2739 -0.0274
  447TIP3    H122756   3.186   3.448  16.993  0.8000  0.5737 -0.5410
  447TIP3    H222757   3.233   3.413  16.853  2.9176 -1.0281  0.5085
  448TIP3   OH222758   0.636   3.479   3.700 -0.0603  0.4695  0.3742
  448TIP3    H122759   0.711   3.474   3.641 -0.1186  1.6307  0.1790
  448TIP3    H222760   0.560   3.473   3.643 -0.1232 -0.2590  0.5270
  449TIP3   OH222761   4.591   0.602   4.408  0.4840 -0.4051  0.0936
  449TIP3    H122762   4.521   0.625   4.347 -1.2214  0.7205  2.3270
  449TIP3    H222763   4.671   0.606   4.356 -1.0547 -1.6290 -2.5400
  450TIP3   OH222764   2.272   3.222  11.916  0.5357  0.2531  0.2737
  450TIP3    H122765   2.296   3.138  11.877 -0.5769 -0.8220  1.7589
  450TIP3    H222766   2.239   3.199  12.003  1.2102  2.3559  1.1489
  451TIP3   OH222767   0.052   5.700  11.526 -0.4023  0.5983  0.1896
  451TIP3    H122768   0.091   5.743  11.450  0.7451  0.1451  0.4940
  451TIP3    H222769   0.126   5.657  11.570 -1.3592 -0.9105  0.3921
  452TIP3   OH222770   3.652   5.974  12.220 -0.7522 -0.5155 -0.8667
  452TIP3    H122771   3.649   6.041  12.288 -1.4296 -0.9516 -0.4486
  452TIP3    H222772   3.735   5.929  12.235 -0.7749 -0.4361 -0.4856
  453TIP3   OH222773   1.841   1.466   0.208  0.0176 -0.4946  0.0223
  453TIP3    H122774   1.871   1.550   0.174 -0.5555 -0.0218  0.6655
  453TIP3    H222775   1.908   1.440   0.271 -1.2146  0.9184  2.0142
  454TIP3   OH222776   0.494   4.137   3.553  0.1828 -0.2111  0.0107
  454TIP3    H122777   0.452   4.213   3.593 -1.3181 -1.2458  0.4569
  454TIP3    H222778   0.526   4.086   3.627 -0.5337 -0.9664 -0.1892
  455TIP3   OH222779   2.953   6.079  12.469 -0.1465  0.1378 -0.0457
  455TIP3    H122780   3.040   6.115  12.448 -0.3800  1.9729  1.7542
  455TIP3    H222781   2.925   6.035  12.389  1.1146  2.2399 -1.7557
  456TIP3   OH222782   0.753   3.567  16.864  0.2718 -0.1950  0.1462
  456TIP3    H122783   0.812   3.502  16.825  1.5214  1.9465 -1.7855
  456TIP3    H222784   0.668   3.552  16.822 -0.1165 -2.0196  1.4733
  457TIP3   OH222785   3.328   5.182  16.791 -0.6607 -0.0722  0.4645
  457TIP3    H122786   3.368   5.101  16.759 -1.3755  0.0763 -0.8859
  457TIP3    H222787   3.396   5.224  16.844  0.3448 -0.6552 -0.3375
  458TIP3   OH222788   1.573   3.143   3.117 -0.4883  0.1422 -0.1249
  458TIP3    H122789   1.623   3.066   3.145 -0.9415  0.3074  1.2278
  458TIP3    H222790   1.573   3.139   3.021 -0.7740 -1.7206 -0.0754
  459TIP3   OH222791   3.777   4.405   0.076  0.2671 -0.4022  0.8425
  459TIP3    H122792   3.738   4.430   0.159  0.3958 -0.0638  0.8027
  459TIP3    H222793   3.833   4.330   0.098 -2.0533 -2.3646  0.5316
  460TIP3   OH222794   1.412   2.884   3.875 -1.0219  0.4164  0.2677
  460TIP3    H122795   1.432   2.811   3.816 -1.4031  1.9472 -1.8652
  460TIP3    H222796   1.490   2.940   3.872 -2.1949  2.0703 -1.3110
  461TIP3   OH222797   5.061   1.937   4.599  0.5052 -0.1685  0.1427
  461TIP3    H122798   5.140   1.989   4.614  1.3568 -0.8771 -1.5863
  461TIP3    H222799   5.090   1.846   4.604 -0.4213 -0.4565  0.5178
  462TIP3   OH222800   1.202   3.843   2.408  0.0856 -0.0471 -0.0760
  462TIP3    H122801   1.157   3.906   2.464 -0.0153  0.9689 -1.2481
  462TIP3    H222802   1.192   3.879   2.320  0.1890 -1.6246 -0.7503
  463TIP3   OH222803   5.178   6.136  17.294  0.2722  0.0380  0.2355
  463TIP3    H122804   5.156   6.147  17.202  0.5182  2.8086  0.4254
  463TIP3    H222805   5.101   6.096  17.333 -0.3003 -0.0478 -0.9432
  464TIP3   OH222806   2.413   1.315   2.998  0.2807 -0.0644  0.4211
  464TIP3    H122807   2.422   1.382   3.065 -1.7571  0.6171  0.0827
  464TIP3    H222808   2.502   1.299   2.968  0.7308  4.5699 -1.4660
  465TIP3   OH222809   0.101   6.308  12.959  0.3028  0.5748  0.2296
  465TIP3    H122810   0.162   6.235  12.972 -0.0295  0.2765  0.1301
  465TIP3    H222811   0.021   6.280  13.003  0.3062  1.0614  0.5525
  466TIP3   OH222812   2.495   1.317  13.226 -0.5194 -0.4188  0.2072
  466TIP3    H122813   2.568   1.364  13.266  1.2336 -1.8604 -1.1327
  466TIP3    H222814   2.447   1.280  13.300 -1.1684  2.2580  1.2065
  467TIP3   OH222815   0.034   6.045  13.971  0.3058 -0.1977  0.7342
  467TIP3    H122816   0.094   5.975  13.947 -1.0086 -1.6023  1.3564
  467TIP3    H222817  -0.028   6.050  13.899 -0.3914 -0.6100  1.2950
  468TIP3   OH222818   6.371   2.176   3.431  0.3730 -0.0989  0.4468
  468TIP3    H122819   6.339   2.094   3.467 -0.7173 -0.1158 -0.5152
  468TIP3    H222820   6.365   2.238   3.504 -1.1753 -0.2806  0.4999
  469TIP3   OH222821   2.827   2.249  13.231 -0.5592 -0.0310 -0.3169
  469TIP3    H122822   2.865   2.274  13.316 -0.5305 -0.6910 -0.1314
  469TIP3    H222823   2.902   2.250  13.171 -0.5073  0.0506 -0.2520
  470TIP3   OH222824   5.071   3.355   1.210 -0.2280  0.6204 -1.0855
  470TIP3    H122825   5.061   3.403   1.292  1.8791 -0.2454 -0.2444
  470TIP3    H222826   4.985   3.316   1.193 -0.8691  1.3649  0.3444
  471TIP3   OH222827   0.901   1.855  10.341 -0.3529  0.2229  0.2260
  471TIP3    H122828   0.841   1.792  10.300 -0.9080  0.8680  0.0243
  471TIP3    H222829   0.945   1.897  10.267  0.9326 -0.7877  0.3904
  472TIP3   OH222830   0.369   6.333   1.279 -0.2612  0.4390  0.5776
  472TIP3    H122831   0.418   6.338   1.361 -0.3472  1.3322  0.5814
  472TIP3    H222832   0.437   6.324   1.211 -0.2184 -1.0731  0.7861
  473TIP3   OH222833   1.089   3.065  12.108 -0.0824  0.4085  0.1473
  473TIP3    H122834   1.057   3.145  12.066  0.1871  0.9003  0.8576
  473TIP3    H222835   1.178   3.087  12.138 -0.0935 -0.0759  0.5642
  474TIP3   OH222836   0.871   1.828   4.111  0.0755 -0.3715 -0.2232
  474TIP3    H122837   0.846   1.777   4.188 -1.4195  0.0174 -0.4253
  474TIP3    H222838   0.904   1.910   4.147 -3.3012  1.0375  0.0734
  475TIP3   OH222839   4.510   3.498  14.370  0.6301  0.4685  0.3104
  475TIP3    H122840   4.575   3.430  14.389  1.3852  0.8091 -0.9377
  475TIP3    H222841   4.550   3.579  14.402  0.7108  0.6432 -0.2283
  476TIP3   OH222842   0.782   0.343  12.284  0.5364  0.6178 -0.1229
  476TIP3    H122843   0.765   0.335  12.190  1.3405  1.2504 -0.3266
  476TIP3    H222844   0.772   0.253  12.317 -1.1207  0.5971 -0.5582
  477TIP3   OH222845   1.979   3.731  16.790  0.0382  0.3190  0.0674
  477TIP3    H122846   1.926   3.657  16.763  0.3257  0.7923 -1.9160
  477TIP3    H222847   2.069   3.698  16.793  0.1754  0.5794 -0.8844
  478TIP3   OH222848   3.797   6.514  13.589  0.5533  0.2190  0.1648
  478TIP3    H122849   3.774   6.591  13.538  2.7933 -0.8845 -2.7510
  478TIP3    H222850   3.787   6.542  13.680 -3.1740  2.4399 -0.7207
  479TIP3   OH222851   3.757   4.743   4.954  0.2415 -0.7580 -0.2628
  479TIP3    H122852   3.787   4.670   4.900  1.3873 -1.6562  1.4953
  479TIP3    H222853   3.704   4.701   5.023 -1.1972  0.3512 -0.6484
  480TIP3   OH222854   6.332   0.672   1.188 -0.4827 -0.3047 -0.2171
  480TIP3    H122855   6.301   0.582   1.176  0.5523 -0.6782 -0.2122
  480TIP3    H222856   6.414   0.662   1.238  0.8063  0.4520 -2.0755
  481TIP3   OH222857   5.519   5.763   0.736  0.3490  0.3826  0.7887
  481TIP3    H122858   5.528   5.849   0.778 -0.9491  1.0167 -0.1421
  481TIP3    H222859   5.527   5.782   0.643 -1.1205 -0.3116  0.4972
  482TIP3   OH222860   4.891   2.629   6.619  0.2892 -0.2799 -0.1894
  482TIP3    H122861   4.910   2.692   6.688  0.2165  0.6791 -1.0278
  482TIP3    H222862   4.867   2.549   6.666 -0.1334  0.4554  0.8898
  483TIP3   OH222863   4.985   0.681   2.566  0.0561 -0.5836  0.3330
  483TIP3    H122864   5.037   0.708   2.642 -1.0128 -0.8600  1.1860
  483TIP3    H222865   5.016   0.592   2.547  1.5836  0.1240 -0.7090
  484TIP3   OH222866   0.700   2.636  16.319  0.3050  0.3467  0.2335
  484TIP3    H122867   0.667   2.725  16.312 -1.1544 -0.2003 -0.1939
  484TIP3    H222868   0.692   2.615  16.412  1.7052  1.0231  0.5286
  485TIP3   OH222869   5.088   6.271   4.739  0.7868  0.2013 -0.0142
  485TIP3    H122870   5.038   6.247   4.817  2.6969  1.8112  1.8309
  485TIP3    H222871   5.129   6.189   4.711  1.6224 -0.0971  1.9141
  486TIP3   OH222872   5.164   4.658   3.925  0.3259 -0.0728 -0.2669
  486TIP3    H122873   5.111   4.698   3.856 -0.2557 -0.1482  0.1319
  486TIP3    H222874   5.106   4.654   4.001  1.1508  0.5745  0.4182
  487TIP3   OH222875   0.716   2.277  13.653 -0.4008  0.1886 -0.0907
  487TIP3    H122876   0.663   2.307  13.579  2.1360  1.5867 -1.5059
  487TIP3    H222877   0.701   2.342  13.721  0.1486  1.0887 -0.8086
  488TIP3   OH222878   2.322   0.455   0.754 -0.2964 -0.7530 -0.3791
  488TIP3    H122879   2.249   0.476   0.812  0.0028 -0.0697 -0.2388
  488TIP3    H222880   2.381   0.403   0.809 -0.3383 -0.6945 -0.2782
  489TIP3   OH222881   5.633   4.219   5.515  0.5139  0.0383 -0.0525
  489TIP3    H122882   5.592   4.185   5.595 -0.1097  0.7969 -0.0275
  489TIP3    H222883   5.681   4.145   5.479 -0.3900 -0.7234  0.2584
  490TIP3   OH222884   6.672   6.053  16.569  0.4162  0.7928 -0.1617
  490TIP3    H122885   6.648   6.145  16.556  2.0273  1.0665 -1.5596
  490TIP3    H222886   6.611   6.021  16.636 -0.1181  2.8956  0.4208
  491TIP3   OH222887   1.147   4.691   3.405  1.0759  0.1327 -0.3813
  491TIP3    H122888   1.147   4.787   3.409  1.7534  0.1552 -0.7985
  491TIP3    H222889   1.228   4.665   3.449  0.4505 -0.2989  0.5567
  492TIP3   OH222890   3.605   0.222  16.309 -0.6652 -0.2304  0.2131
  492TIP3    H122891   3.520   0.253  16.277 -0.3848 -1.4359 -1.8589
  492TIP3    H222892   3.657   0.207  16.230  1.6903  0.9188  1.4176
  493TIP3   OH222893   3.463   4.653   2.947  0.1611 -0.4503 -0.1544
  493TIP3    H122894   3.520   4.600   3.002 -0.2287 -2.0750 -1.2583
  493TIP3    H222895   3.480   4.623   2.858 -1.7646 -0.3528 -0.5956
  494TIP3   OH222896   5.351   6.743  10.496  0.0075 -0.2722 -0.4384
  494TIP3    H122897   5.337   6.834  10.520  0.2038 -0.0500 -1.1468
  494TIP3    H222898   5.435   6.720  10.536  0.2024  0.0140 -0.6774
  495TIP3   OH222899   6.051   6.410  13.393  0.8512  0.2782 -0.4550
  495TIP3    H122900   6.046   6.360  13.474  0.7220 -2.0781 -1.8093
  495TIP3    H222901   6.020   6.498  13.416  0.5046 -0.4151  1.9382
  496TIP3   OH222902   4.134   5.609   4.917 -0.2134 -0.9066 -0.1593
  496TIP3    H122903   4.053   5.584   4.873 -1.4476  2.3086  0.0485
  496TIP3    H222904   4.202   5.597   4.850 -1.3875 -0.4263 -1.4949
  497TIP3   OH222905   3.579   2.056  16.506  0.0714  0.4591 -0.0475
  497TIP3    H122906   3.603   2.007  16.427 -1.2393 -2.7618  1.3599
  497TIP3    H222907   3.655   2.048  16.563  0.0888  0.6265 -0.0476
  498TIP3   OH222908   0.294   5.047  15.494 -0.5025  0.5599 -0.4365
  498TIP3    H122909   0.260   5.113  15.554 -1.6876 -0.1518 -0.2989
  498TIP3    H222910   0.227   4.979  15.492 -0.3691  0.4378 -2.3752
  499TIP3   OH222911   4.432   3.812  12.756 -0.3415  0.2384 -0.6332
  499TIP3    H122912   4.451   3.820  12.663 -1.0744  0.7767 -0.7464
  499TIP3    H222913   4.348   3.856  12.767  0.2560  1.1424  0.4795
  500TIP3   OH222914   1.675   2.991   0.505 -0.0363  0.0690 -0.3597
  500TIP3    H122915   1.583   2.980   0.526  0.6255 -3.0633  1.7288
  500TIP3    H222916   1.709   3.050   0.572 -0.4553  1.2204 -1.1288
  501TIP3   OH222917   3.627   6.355  13.932 -0.1306  0.5249  0.0281
  501TIP3    H122918   3.679   6.421  13.978  0.7727  1.2435 -1.8950
  501TIP3    H222919   3.537   6.370  13.961  0.2844  1.4973  0.8747
  502TIP3   OH222920   2.270   2.761  15.589 -0.2265 -0.2700 -0.0309
  502TIP3    H122921   2.202   2.744  15.524 -0.3253  0.2811 -0.0738
  502TIP3    H222922   2.352   2.738  15.544 -0.4327 -1.7988  0.3203
  503TIP3   OH222923   6.324   6.609   0.600 -0.2955 -0.2474 -0.3250
  503TIP3    H122924   6.331   6.612   0.504 -1.6252 -3.8224 -0.7150
  503TIP3    H222925   6.263   6.678   0.622 -0.2693  0.4018 -2.1088
  504TIP3   OH222926   6.655   3.172   2.281 -0.4136 -0.1765 -0.1342
  504TIP3    H122927   6.677   3.080   2.267 -1.5886 -0.1208 -3.1153
  504TIP3    H222928   6.701   3.218   2.211 -0.7526  1.3562  0.6173
  505TIP3   OH222929   6.165   6.445  15.273 -0.5649  0.7539  0.0641
  505TIP3    H122930   6.198   6.394  15.199  0.1260 -0.6337  1.2782
  505TIP3    H222931   6.095   6.391  15.310  0.8405  0.1020  1.9766
  506TIP3   OH222932   0.311   1.701   3.168 -0.3567 -0.4490 -0.7258
  506TIP3    H122933   0.264   1.652   3.100 -1.2741 -0.2444 -0.2675
  506TIP3    H222934   0.261   1.782   3.176 -1.8314 -1.5046  1.9420
  507TIP3   OH222935   2.622   6.699   4.492 -0.1188 -0.5318  0.5192
  507TIP3    H122936   2.661   6.720   4.576 -0.1764  0.3242  0.3365
  507TIP3    H222937   2.652   6.768   4.433 -0.4100 -0.8950 -0.0621
  508TIP3   OH222938   1.095   5.140   4.813 -0.3836  0.1867  0.6288
  508TIP3    H122939   1.005   5.170   4.799  0.0551  0.8903 -0.9948
  508TIP3    H222940   1.129   5.199   4.880 -0.8944  0.4413  0.6715
  509TIP3   OH222941   1.050   2.369  11.568  0.1143 -0.0880  0.3529
  509TIP3    H122942   0.985   2.376  11.498  0.0541 -0.8708  0.3199
  509TIP3    H222943   1.077   2.459  11.585 -0.8407  0.2266  0.2396
  510TIP3   OH222944   3.007   1.339   3.576  0.3959  0.4882  0.0544
  510TIP3    H122945   2.959   1.387   3.509  0.4812  0.1301 -0.2627
  510TIP3    H222946   3.098   1.338   3.545  1.3399  3.9425  2.1333
  511TIP3   OH222947   5.909   1.107   0.662 -0.6976  0.2492 -0.6887
  511TIP3    H122948   5.954   1.084   0.581  0.3538 -1.5680  0.3399
  511TIP3    H222949   5.974   1.156   0.712 -1.6058  2.0728 -1.2040
  512TIP3   OH222950   0.528   2.213  15.396  0.2709 -0.2416  0.7805
  512TIP3    H122951   0.550   2.127  15.361 -0.7596  0.0788 -0.7767
  512TIP3    H222952   0.439   2.203  15.431  0.2630  0.1082  0.8671
  513TIP3   OH222953   2.498   5.950   0.552  0.2943 -0.7827  0.3589
  513TIP3    H122954   2.585   5.913   0.567  2.0057  2.3892 -0.6997
  513TIP3    H222955   2.471   5.984   0.637  1.0767  0.0123  0.3105
  514TIP3   OH222956   2.692   5.292   3.261 -0.5123  0.2219  0.5988
  514TIP3    H122957   2.709   5.234   3.187  0.3246 -0.3316  1.1915
  514TIP3    H222958   2.620   5.250   3.308 -1.8268  1.1734 -0.4861
  515TIP3   OH222959   3.079   1.358  15.620 -0.2177 -0.2778  0.3455
  515TIP3    H122960   3.139   1.423  15.656 -1.4410  0.2238  1.5571
  515TIP3    H222961   3.132   1.279  15.611  0.6623  0.1828  1.2460
  516TIP3   OH222962   3.060   6.660   2.612  0.0752 -0.3570  0.0419
  516TIP3    H122963   3.144   6.643   2.655  0.0463  0.6641  0.5174
  516TIP3    H222964   3.084   6.705   2.531  0.0071 -0.3512  0.0252
  517TIP3   OH222965   5.896   0.657  13.158 -0.5589  0.0299  0.0397
  517TIP3    H122966   5.899   0.613  13.073 -0.7469 -0.6801  0.3922
  517TIP3    H222967   5.873   0.748  13.138  0.2789  0.0851 -0.7382
  518TIP3   OH222968   2.259   1.063   4.831  0.0339  0.0611  0.2209
  518TIP3    H122969   2.288   1.063   4.922  0.3408  1.9514  0.1476
  518TIP3    H222970   2.323   1.009   4.786 -0.2668 -1.1257  1.1328
  519TIP3   OH222971   4.349   4.592   1.161  0.5008 -0.5534 -0.7125
  519TIP3    H122972   4.393   4.510   1.138  2.5166  0.0937  0.6443
  519TIP3    H222973   4.379   4.655   1.095 -0.2958 -0.6440 -1.1817
  520TIP3   OH222974   3.937   6.437   0.685  0.3746 -0.2383 -0.0497
  520TIP3    H122975   3.992   6.471   0.755 -1.3503  2.3363  0.1809
  520TIP3    H222976   3.850   6.475   0.701 -0.2615 -0.1240 -3.1424
  521TIP3   OH222977   5.179   1.807  10.593 -0.0284  0.3494  0.5178
  521TIP3    H122978   5.141   1.894  10.582  0.1089  0.2848 -0.5379
  521TIP3    H222979   5.270   1.818  10.565 -0.6473 -0.6978 -2.2160
  522TIP3   OH222980   5.873   0.641  11.087  0.1563  0.0572 -0.5923
  522TIP3    H122981   5.781   0.659  11.107  0.4194 -0.0138  0.7497
  522TIP3    H222982   5.918   0.724  11.103  0.6811 -0.5216  1.1999
  523TIP3   OH222983   4.532   6.496   5.428  0.2207  0.5155 -0.2540
  523TIP3    H122984   4.450   6.507   5.380  0.9686  0.8102 -1.5044
  523TIP3    H222985   4.514   6.428   5.492 -0.6437 -0.3387 -1.3680
  524TIP3   OH222986   2.350   3.508   0.713 -0.3274  0.3254 -0.2001
  524TIP3    H122987   2.425   3.562   0.690  1.2020 -2.4136 -2.3528
  524TIP3    H222988   2.315   3.479   0.629 -0.7984 -2.2228  0.7785
  525TIP3   OH222989   2.950   1.032   3.345  0.5648  0.0438  0.0590
  525TIP3    H122990   3.023   0.991   3.300  0.9508  0.4758  0.2776
  525TIP3    H222991   2.969   1.021   3.438  0.5071  0.4172  0.1190
  526TIP3   OH222992   2.003   2.835  12.574 -0.8085 -0.0066 -0.0342
  526TIP3    H122993   2.040   2.920  12.551 -0.9833  0.1810  0.3671
  526TIP3    H222994   1.923   2.856  12.622 -0.2521 -0.3795  1.0791
  527TIP3   OH222995   5.562   0.023  12.005 -0.1430  0.1859 -0.2061
  527TIP3    H122996   5.493   0.081  12.038 -1.7462 -1.0072 -1.2956
  527TIP3    H222997   5.540  -0.063  12.042  1.6665  0.0631  0.6605
  528TIP3   OH222998   3.977   1.823   4.096  0.3784  0.0649  0.0535
  528TIP3    H122999   3.974   1.791   4.186  0.3964  0.0259  0.0400
  528TIP3    H223000   3.971   1.745   4.042  4.1986 -0.3617 -0.0115
  529TIP3   OH223001   1.176   2.822   2.751  0.6987  0.4580 -0.0407
  529TIP3    H123002   1.209   2.867   2.829  0.1066  0.7499  0.0495
  529TIP3    H223003   1.118   2.753   2.785  1.5063 -0.3057 -0.1828
  530TIP3   OH223004   4.285   2.390   2.139 -0.2189  0.0465  0.0055
  530TIP3    H123005   4.215   2.429   2.087  0.2748 -0.3771 -1.0014
  530TIP3    H223006   4.245   2.314   2.181 -0.8511  0.8876  0.9717
  531TIP3   OH223007   5.806   0.774   0.720 -0.0728  0.3759  0.3956
  531TIP3    H123008   5.799   0.865   0.749 -1.1015  0.7099 -0.8213
  531TIP3    H223009   5.858   0.778   0.640  1.7330 -0.3935  1.4643
  532TIP3   OH223010   6.658   6.403  11.557  0.1903 -0.1857  0.1435
  532TIP3    H123011   6.716   6.457  11.502  0.4599  0.0331  0.6370
  532TIP3    H223012   6.704   6.396  11.640 -0.3944 -0.2054  0.4686
  533TIP3   OH223013   4.817   6.446  14.018  0.4508  1.2972 -0.5915
  533TIP3    H123014   4.756   6.384  13.977  0.5070  0.2939  0.7595
  533TIP3    H223015   4.824   6.518  13.955 -1.3133  0.9476 -1.2419
  534TIP3   OH223016   1.592   5.979   4.091 -0.4059  0.2435  0.1534
  534TIP3    H123017   1.508   5.939   4.112 -0.8923  1.2730  0.2332
  534TIP3    H223018   1.624   5.929   4.015 -1.1115 -0.1288  0.0956
  535TIP3   OH223019   5.814   1.606  13.984 -0.5195 -0.2040 -0.1836
  535TIP3    H123020   5.895   1.555  13.983 -0.3235  0.0047  1.5368
  535TIP3    H223021   5.744   1.540  13.984 -0.2704 -0.5473  2.0001
  536TIP3   OH223022   5.748   1.844   4.753  0.0429 -0.6088  0.0426
  536TIP3    H123023   5.816   1.794   4.707  1.3911  0.9926  0.2130
  536TIP3    H223024   5.738   1.799   4.837 -0.9828 -2.3510 -0.9417
  537TIP3   OH223025   1.692   4.854   0.178  0.2393  0.2349  0.2472
  537TIP3    H123026   1.637   4.884   0.251 -0.4866  1.1975 -0.6473
  537TIP3    H223027   1.641   4.877   0.100  1.0837 -0.5942 -0.5627
  538TIP3   OH223028   4.823   1.849   4.947  0.7232  0.1053  0.4021
  538TIP3    H123029   4.820   1.892   4.861 -0.9885  0.2094  0.4938
  538TIP3    H223030   4.887   1.900   4.996 -1.5347  2.9118  0.6491
  539TIP3   OH223031   0.549   3.726  15.480 -0.3738  0.1383  0.4031
  539TIP3    H123032   0.542   3.809  15.433 -0.3371  0.3900  0.8291
  539TIP3    H223033   0.569   3.752  15.570  0.4525 -0.3598  0.3703
  540TIP3   OH223034   1.057   0.523   2.030  0.2582 -0.0210 -0.8525
  540TIP3    H123035   1.108   0.525   2.111 -0.3096  1.3690 -0.4999
  540TIP3    H223036   1.114   0.479   1.967  1.4048  0.4155 -0.1588
  541TIP3   OH223037   4.054   2.860   0.564  0.2536  0.1856 -0.0217
  541TIP3    H123038   4.097   2.778   0.540 -0.2432  0.1909 -0.9874
  541TIP3    H223039   4.119   2.907   0.617  0.4495 -0.9223  0.7296
  542TIP3   OH223040   1.514   3.498   2.842 -0.3783  0.1030  0.2913
  542TIP3    H123041   1.518   3.505   2.937 -0.7536 -1.1581  0.4237
  542TIP3    H223042   1.425   3.467   2.824  0.1697 -1.1629 -0.3422
  543TIP3   OH223043   1.182   5.748   4.430 -0.5924 -0.0349  0.2403
  543TIP3    H123044   1.119   5.814   4.459 -1.5020 -0.3887 -0.8812
  543TIP3    H223045   1.149   5.666   4.465 -0.6365 -0.1916 -0.1612
  544TIP3   OH223046   2.983   5.344  12.954 -0.0092 -0.0137 -0.0279
  544TIP3    H123047   3.063   5.378  12.996  0.3015 -1.3549  0.5063
  544TIP3    H223048   3.014   5.304  12.873 -0.0939 -0.7369  0.2876
  545TIP3   OH223049   2.049   0.343   5.262  0.0799  0.2703  0.3984
  545TIP3    H123050   2.122   0.297   5.220  0.2723  1.1500 -0.2505
  545TIP3    H223051   1.997   0.273   5.302  0.5666 -0.4825 -0.2517
  546TIP3   OH223052   5.592   5.207   3.030 -0.1152  0.0795  0.5356
  546TIP3    H123053   5.648   5.154   3.087  0.8496  0.1409 -0.3494
  546TIP3    H223054   5.600   5.296   3.064 -0.3147 -0.0345  0.8948
  547TIP3   OH223055   0.223   1.908   0.148  0.2473  0.0868 -0.4341
  547TIP3    H123056   0.276   1.968   0.097 -0.4150  0.0628 -1.1781
  547TIP3    H223057   0.233   1.823   0.104  0.2333 -0.0956 -0.0959
  548TIP3   OH223058   0.428   0.153   4.035  0.3694 -0.0305 -0.0498
  548TIP3    H123059   0.336   0.170   4.018  0.2191  0.2955  1.0457
  548TIP3    H223060   0.432   0.061   4.060  0.4260 -0.1961 -0.6580
  549TIP3   OH223061   1.230   2.793   2.497 -0.2139 -0.1268  0.0071
  549TIP3    H123062   1.146   2.794   2.451  0.9989  0.5253 -2.3405
  549TIP3    H223063   1.207   2.809   2.589 -2.6395  0.0559 -0.5611
  550TIP3   OH223064   1.079   3.621  11.824 -0.5102  0.1182 -0.1487
  550TIP3    H123065   1.069   3.616  11.919  1.8740  0.8131  0.1970
  550TIP3    H223066   1.000   3.579  11.789  0.0442 -3.1540  2.1382
  551TIP3   OH223067   2.256   2.694   0.873 -0.4666 -0.8773 -0.2803
  551TIP3    H123068   2.342   2.731   0.853 -0.9170 -0.0265 -0.6659
  551TIP3    H223069   2.276   2.608   0.911  0.5678 -0.5308  0.0014
  552TIP3   OH223070   2.760   2.542  14.309  0.0327 -0.3989 -0.2938
  552TIP3    H123071   2.688   2.604  14.320  0.2846 -0.0911 -0.3856
  552TIP3    H223072   2.780   2.513  14.398 -0.4032 -0.7179 -0.2916
  553TIP3   OH223073   5.665   3.912  13.860  0.5332 -0.1711  0.1270
  553TIP3    H123074   5.675   4.002  13.891 -2.5772  0.6093 -0.7028
  553TIP3    H223075   5.723   3.860  13.916  2.5168  2.3354  0.5461
  554TIP3   OH223076   3.441   5.915  17.163  0.1504  0.2545  0.4859
  554TIP3    H123077   3.348   5.893  17.167  0.1060 -0.3630 -1.9965
  554TIP3    H223078   3.484   5.851  17.219 -0.8774  0.2229  1.2558
  555TIP3   OH223079   6.309   3.015  14.994  0.1264 -0.1060 -0.1928
  555TIP3    H123080   6.239   2.953  14.978  0.2167  0.2651 -2.2448
  555TIP3    H223081   6.303   3.035  15.088 -2.6200  0.0678 -0.3421
  556TIP3   OH223082   3.813   0.653   3.409  0.9742 -0.9256  0.3393
  556TIP3    H123083   3.840   0.742   3.432 -3.6472  0.4159  1.7367
  556TIP3    H223084   3.754   0.627   3.480  0.0756 -4.0562 -1.3660
  557TIP3   OH223085   0.409   1.752  16.413 -0.2284 -0.1956  0.2227
  557TIP3    H123086   0.318   1.722  16.420 -0.2201 -0.8953 -2.0172
  557TIP3    H223087   0.458   1.674  16.388  0.8786  0.3640  0.6005
  558TIP3   OH223088   5.225   1.908  11.582 -0.0478  0.4053 -0.3091
  558TIP3    H123089   5.193   1.835  11.635 -2.0728  1.2954 -0.2385
  558TIP3    H223090   5.211   1.881  11.492  0.1665  0.3046 -0.3138
  559TIP3   OH223091   3.180   1.165   2.034 -0.4485  0.0663  0.2005
  559TIP3    H123092   3.096   1.211   2.035 -1.0512 -0.6585 -3.5494
  559TIP3    H223093   3.162   1.079   2.071 -1.9995 -0.8339 -2.4100
  560TIP3   OH223094   0.939   0.840   4.097  0.4903  0.4211 -0.1389
  560TIP3    H123095   0.934   0.932   4.122  1.4725  0.9330 -1.6431
  560TIP3    H223096   0.998   0.801   4.161  0.7255  1.0369  0.0283
  561TIP3   OH223097   1.096   0.518   1.289  0.0194  0.1581 -0.4621
  561TIP3    H123098   1.126   0.435   1.251  0.9040  0.6431 -0.8636
  561TIP3    H223099   1.149   0.585   1.245  1.0959  0.7606  1.5868
  562TIP3   OH223100   2.058   0.495   3.442  0.2036  0.0819 -0.4974
  562TIP3    H123101   2.151   0.480   3.425  0.3983  0.0232  0.6094
  562TIP3    H223102   2.047   0.590   3.433  0.2688  0.0418 -1.0602
  563TIP3   OH223103   4.772   6.217  13.139 -0.0327  0.0766 -0.5336
  563TIP3    H123104   4.758   6.144  13.199  0.6559  0.0536 -0.3955
  563TIP3    H223105   4.684   6.251  13.122 -0.4015 -0.9934 -0.8763
  564TIP3   OH223106   2.558   4.456  16.710  0.2369 -0.1517 -0.0375
  564TIP3    H123107   2.575   4.412  16.793  0.0619 -0.5062 -0.1854
  564TIP3    H223108   2.463   4.461  16.704  0.1770 -1.6037 -0.9573
  565TIP3   OH223109   5.087   0.971   2.217 -0.9329 -0.1141 -0.2291
  565TIP3    H123110   5.173   0.932   2.206 -1.4252 -1.8670  1.4674
  565TIP3    H223111   5.028   0.916   2.165 -1.4143 -0.7607  0.9524
  566TIP3   OH223112   4.956   3.899   2.565  0.7362 -0.2638  0.3975
  566TIP3    H123113   5.044   3.904   2.603  0.3200 -0.7284  1.4540
  566TIP3    H223114   4.969   3.851   2.483  1.5193 -0.0122  0.3580
  567TIP3   OH223115   5.160   3.523   1.413  0.2352  0.1534  0.1231
  567TIP3    H123116   5.255   3.523   1.425  0.5805  0.4729 -2.1103
  567TIP3    H223117   5.142   3.603   1.364 -0.8912 -0.8592 -1.2139
  568TIP3   OH223118   3.287   3.567   4.296 -0.4695  1.1604  0.1144
  568TIP3    H123119   3.217   3.512   4.262 -0.8163  2.0553 -0.6622
  568TIP3    H223120   3.263   3.582   4.388 -0.3457  0.0076  0.3511
  569TIP3   OH223121   3.329   2.634  14.631 -0.1695 -0.4551 -0.7102
  569TIP3    H123122   3.301   2.686  14.556 -1.3295 -0.2959 -0.1753
  569TIP3    H223123   3.415   2.600  14.605 -0.1833  0.2753 -1.7691
  570TIP3   OH223124   6.568   6.369   3.661 -0.3637  0.1420 -0.2939
  570TIP3    H123125   6.622   6.312   3.715 -0.8168 -2.2484 -2.2090
  570TIP3    H223126   6.630   6.413   3.602 -0.1973  0.1188 -0.1374
  571TIP3   OH223127   1.499   5.468   4.410 -0.7481  0.0948  0.0658
  571TIP3    H123128   1.515   5.532   4.479 -0.3609 -0.5814  0.6188
  571TIP3    H223129   1.584   5.427   4.395 -0.6431  0.7914 -1.4048
  572TIP3   OH223130   1.782   4.164  16.684  0.0948 -0.1374  0.4208
  572TIP3    H123131   1.874   4.139  16.682  0.1360 -0.0858  1.3310
  572TIP3    H223132   1.737   4.097  16.632  0.9450  1.2829 -2.3838
  573TIP3   OH223133   4.173   0.734  14.785  0.0758 -0.8090 -0.2010
  573TIP3    H123134   4.142   0.672  14.719 -0.8342 -0.0277 -0.5370
  573TIP3    H223135   4.205   0.808  14.734 -1.1260  0.0292  0.2177
  574TIP3   OH223136   1.578   6.636   3.336  0.3255  0.7779 -0.8393
  574TIP3    H123137   1.551   6.728   3.334 -0.1009  0.6578 -0.6861
  574TIP3    H223138   1.533   6.596   3.262 -0.4105  0.4445 -0.2238
  575TIP3   OH223139   0.673   0.443  12.814  0.4860 -0.5471 -0.1811
  575TIP3    H123140   0.660   0.530  12.851  1.4229 -0.4265 -0.1069
  575TIP3    H223141   0.585   0.407  12.805  0.1065  0.3104  0.0181
  576TIP3   OH223142   1.510   3.258   1.715 -0.1788 -0.5785  0.5980
  576TIP3    H123143   1.476   3.189   1.657  0.3765 -0.6264  0.3292
  576TIP3    H223144   1.437   3.318   1.726  0.1380  0.2269 -1.3431
  577TIP3   OH223145   1.918   4.912  11.579 -0.3444 -0.2873  0.2983
  577TIP3    H123146   1.884   4.865  11.655 -0.9576  0.6630  0.6377
  577TIP3    H223147   1.919   4.847  11.509  2.1222 -1.7510  1.5446
  578TIP3   OH223148   0.697   2.735   5.081  0.3614 -0.2927 -0.1968
  578TIP3    H123149   0.727   2.664   5.024  1.3683 -1.2321  1.4204
  578TIP3    H223150   0.695   2.697   5.169  0.4169  1.5298  0.6533
  579TIP3   OH223151   0.384   2.893   3.665  0.2911  0.1365  0.2613
  579TIP3    H123152   0.397   2.907   3.572 -1.2553 -1.1289 -0.1961
  579TIP3    H223153   0.435   2.814   3.684 -1.4343 -1.1138 -0.1235
  580TIP3   OH223154   0.490   6.039   4.689 -0.5473 -0.3988  0.2314
  580TIP3    H123155   0.510   6.130   4.667  0.8799 -1.0101 -1.1481
  580TIP3    H223156   0.524   6.029   4.778  0.4904  0.0681 -0.0966
  581TIP3   OH223157   3.567   5.807  15.109 -0.1143 -0.3720 -0.4186
  581TIP3    H123158   3.656   5.831  15.083 -0.4995  2.2807  0.3915
  581TIP3    H223159   3.565   5.824  15.203 -1.0952 -1.7898 -0.1593
  582TIP3   OH223160   2.377   6.334   4.085 -0.6518 -0.2760  0.1922
  582TIP3    H123161   2.409   6.251   4.120 -0.5840 -0.5320 -0.4633
  582TIP3    H223162   2.372   6.320   3.991 -1.9651  0.0063  0.1919
  583TIP3   OH223163   6.365   4.926   4.315  0.3672  0.5847 -0.3518
  583TIP3    H123164   6.269   4.919   4.322  0.4469 -2.1778 -0.9670
  583TIP3    H223165   6.392   4.957   4.401 -1.0478  1.0136 -0.0232
  584TIP3   OH223166   4.154   6.393   1.785 -0.5955  0.4205  0.1371
  584TIP3    H123167   4.187   6.425   1.868 -1.2216  0.3714  0.4075
  584TIP3    H223168   4.140   6.300   1.799 -0.0057  0.2622 -0.2553
  585TIP3   OH223169   0.009   3.185  15.903 -0.6632  0.0950  0.2153
  585TIP3    H123170   0.077   3.136  15.949  0.6020  1.7290  0.1831
  585TIP3    H223171  -0.066   3.184  15.962 -0.8030 -2.0948  0.0750
  586TIP3   OH223172   1.626   1.367   1.161  0.0841 -0.4311 -0.1577
  586TIP3    H123173   1.628   1.304   1.089  0.7530 -0.6984  0.0864
  586TIP3    H223174   1.646   1.451   1.121 -0.4542 -0.4255 -0.4267
  587TIP3   OH223175   4.118   6.573   3.229 -0.2505 -0.3117 -0.2804
  587TIP3    H123176   4.174   6.588   3.306  0.2901 -2.1391 -0.2895
  587TIP3    H223177   4.053   6.643   3.234 -0.5549 -0.6802  2.1436
  588TIP3   OH223178   0.461   1.710   4.126 -0.1253 -0.3144 -0.1386
  588TIP3    H123179   0.530   1.747   4.181  0.1791  1.7785 -1.7944
  588TIP3    H223180   0.398   1.673   4.188  0.6408  1.1209  1.5853
  589TIP3   OH223181   3.481   5.064  15.268  0.0301  0.2922 -0.0373
  589TIP3    H123182   3.556   5.005  15.276 -0.7920 -0.8127 -0.0458
  589TIP3    H223183   3.465   5.070  15.173 -0.0782  0.2603 -0.0218
  590TIP3   OH223184   4.125   4.390   2.952  0.1324  0.5679 -0.4008
  590TIP3    H123185   4.099   4.298   2.946 -1.8993  0.8068  2.3515
  590TIP3    H223186   4.215   4.387   2.985 -0.1576 -0.4880  0.3750
  591TIP3   OH223187   0.555   0.584  13.674  0.3481  0.1588 -0.4117
  591TIP3    H123188   0.588   0.638  13.603 -0.0919 -0.8148 -1.3827
  591TIP3    H223189   0.464   0.567  13.651 -0.0679  0.5765  0.8571
  592TIP3   OH223190   4.778   3.297   5.692  0.0228 -0.1577  0.1006
  592TIP3    H123191   4.725   3.247   5.629  0.5524  0.2765 -0.7026
  592TIP3    H223192   4.766   3.251   5.775  1.1617 -2.1534 -0.7710
  593TIP3   OH223193   3.118   2.303   2.855  0.7012  0.5226  0.0707
  593TIP3    H123194   3.070   2.280   2.775  0.4917  0.8558  0.1002
  593TIP3    H223195   3.145   2.394   2.842  3.1671 -0.2718 -0.8585
  594TIP3   OH223196   0.398   5.327   1.681  0.3550  0.1353  0.3430
  594TIP3    H123197   0.465   5.269   1.646 -0.5012 -0.9658  0.4636
  594TIP3    H223198   0.317   5.276   1.675 -0.5054  1.4821  0.0508
  595TIP3   OH223199   1.941   6.246   4.786  0.2964  0.1287  0.2101
  595TIP3    H123200   1.927   6.166   4.735 -1.2020 -0.1709  1.0235
  595TIP3    H223201   1.988   6.305   4.727  0.2217 -0.8668 -0.8705
  596TIP3   OH223202   2.052   4.709  15.539  0.3959  0.0343  0.8206
  596TIP3    H123203   1.962   4.680  15.557  0.6033 -0.8254  0.5377
  596TIP3    H223204   2.092   4.717  15.625 -0.1177  1.0276  0.9878
  597TIP3   OH223205   6.440   0.334   1.707 -0.0600  0.2825 -0.2831
  597TIP3    H123206   6.400   0.365   1.789 -1.0761  0.1743 -0.7199
  597TIP3    H223207   6.486   0.410   1.672 -1.3687  0.9282 -0.6501
  598TIP3   OH223208   3.929   2.013  15.729 -0.0764 -0.0841 -0.0002
  598TIP3    H123209   3.937   1.926  15.692 -0.6983 -0.0754 -0.1767
  598TIP3    H223210   3.843   2.044  15.699 -0.8789 -0.3143  1.9349
  599TIP3   OH223211   5.568   3.501  11.241  0.1447  0.7153  0.2648
  599TIP3    H123212   5.547   3.450  11.162  0.2810  0.7051  0.2348
  599TIP3    H223213   5.497   3.564  11.248 -0.5654 -0.1232  0.8670
  600TIP3   OH223214   2.704   0.634   3.872  0.0611 -0.1388 -0.5062
  600TIP3    H123215   2.748   0.662   3.791  1.7164  1.2983  0.8054
  600TIP3    H223216   2.648   0.708   3.895  0.4943 -0.0339  0.2544
  601TIP3   OH223217   3.303   5.922   3.796  0.0950 -0.3791 -0.0760
  601TIP3    H123218   3.241   5.884   3.734 -0.3943 -0.1046  0.2414
  601TIP3    H223219   3.284   6.016   3.794 -0.4318 -0.4520  1.0423
  602TIP3   OH223220   5.641   4.154   4.112 -0.3243  0.0920  0.3057
  602TIP3    H123221   5.728   4.186   4.089 -0.1234 -0.7273 -0.1165
  602TIP3    H223222   5.641   4.151   4.208 -0.9652  2.9738  0.5077
  603TIP3   OH223223   1.903   6.146  15.450  0.0816  0.5201 -0.5833
  603TIP3    H123224   1.864   6.081  15.508  1.6840  0.2367  0.2382
  603TIP3    H223225   1.997   6.132  15.458  0.3817  1.2558 -2.3738
  604TIP3   OH223226   3.917   2.726  16.365 -0.2852 -0.5283 -0.4787
  604TIP3    H123227   3.911   2.718  16.460  2.0544 -0.9678 -0.3165
  604TIP3    H223228   3.829   2.707  16.334 -0.7725 -1.8410  1.5078
  605TIP3   OH223229   2.641   3.535   5.079 -0.7169 -0.0448 -0.1274
  605TIP3    H123230   2.717   3.498   5.124 -0.8256 -0.2108 -0.0768
  605TIP3    H223231   2.587   3.458   5.058  0.0129 -0.1260 -1.8141
  606TIP3   OH223232   6.371   2.410   5.060 -0.0768 -0.3787 -0.0434
  606TIP3    H123233   6.399   2.501   5.065 -1.0129 -0.0751 -0.0678
  606TIP3    H223234   6.417   2.375   4.984  0.9230 -0.1684  0.4530
  607TIP3   OH223235   2.691   3.081  13.085 -0.4863 -0.2263  0.6220
  607TIP3    H123236   2.759   3.037  13.034 -0.8581 -0.1747  0.0678
  607TIP3    H223237   2.627   3.012  13.104  0.9573 -0.9311  3.4431
  608TIP3   OH223238   6.727   6.696   2.146 -0.0965 -0.1350  0.5054
  608TIP3    H123239   6.814   6.667   2.121  0.2674 -0.1034  1.6551
  608TIP3    H223240   6.667   6.638   2.098  0.5641 -0.4782  0.0869
  609TIP3   OH223241   5.294   5.787   1.016 -0.4225  0.5099 -0.8413
  609TIP3    H123242   5.318   5.790   0.924  0.6658 -3.3229 -0.8544
  609TIP3    H223243   5.377   5.791   1.063 -0.6551 -1.0227 -0.2555
  610TIP3   OH223244   5.527   3.152   4.487 -0.7844  0.3050 -0.2668
  610TIP3    H123245   5.610   3.197   4.478  0.3148 -2.0152 -3.2521
  610TIP3    H223246   5.547   3.074   4.539 -1.6724  0.9067  1.0367
  611TIP3   OH223247   6.357   5.194   0.892 -0.7977  0.2198 -0.5120
  611TIP3    H123248   6.306   5.212   0.971 -0.9162  1.7909 -0.9195
  611TIP3    H223249   6.295   5.150   0.833 -0.8095 -0.6240  0.1053
  612TIP3   OH223250   5.083   4.771  16.290  0.1206  0.6988  0.2764
  612TIP3    H123251   5.001   4.808  16.320 -0.3722  0.1889 -0.4011
  612TIP3    H223252   5.150   4.835  16.316 -0.2294  0.2219  2.5538
  613TIP3   OH223253   1.073   0.499  12.942 -0.3648  0.2891  0.6385
  613TIP3    H123254   1.003   0.503  13.007 -0.3850 -0.1927  0.6489
  613TIP3    H223255   1.030   0.470  12.862 -0.6306  2.3136 -0.0156
  614TIP3   OH223256   4.183   6.290   4.847  0.5558  0.5091 -0.2678
  614TIP3    H123257   4.175   6.224   4.915  0.9792  0.3634 -0.3555
  614TIP3    H223258   4.259   6.342   4.873  1.0949  0.0781 -0.9391
  615TIP3   OH223259   5.437   6.381   5.140 -0.1904  0.1191  0.1740
  615TIP3    H123260   5.416   6.289   5.128 -0.2417  0.0886  0.4808
  615TIP3    H223261   5.412   6.423   5.058  0.9364 -0.3282 -0.4306
  616TIP3   OH223262   4.127   4.218   6.351  0.0409 -0.0532 -0.3318
  616TIP3    H123263   4.137   4.205   6.446  0.9025 -0.7777 -0.5083
  616TIP3    H223264   4.040   4.259   6.342 -0.1453 -0.1611  0.7494
  617TIP3   OH223265   3.350   0.093   6.318 -0.0738 -0.2670 -0.1615
  617TIP3    H123266   3.423   0.073   6.260  0.0863 -1.3305  0.3919
  617TIP3    H223267   3.375   0.055   6.402 -0.7835  0.3178  0.3245
  618TIP3   OH223268   1.554   0.323   2.499 -0.0211  0.0508 -0.2436
  618TIP3    H123269   1.648   0.310   2.484 -0.3299 -0.3271 -2.1114
  618TIP3    H223270   1.517   0.329   2.411 -1.6067  1.3632  0.4780
  619TIP3   OH223271   5.476   4.807   1.983  0.2787  0.2438 -0.0325
  619TIP3    H123272   5.499   4.897   1.960 -0.6972  0.8811  1.3296
  619TIP3    H223273   5.555   4.756   1.965  0.5753  1.1995 -1.6243
  620TIP3   OH223274   1.092   6.322   6.630  0.0963  0.3844  0.3755
  620TIP3    H123275   1.069   6.351   6.541 -3.1024 -1.3370  0.4849
  620TIP3    H223276   1.057   6.391   6.687  1.2602  0.9964  0.3803
  621TIP3   OH223277   2.163   0.525  13.260 -0.4315 -0.5936 -0.7352
  621TIP3    H123278   2.244   0.545  13.308 -0.0017 -0.0765 -1.6622
  621TIP3    H223279   2.111   0.605  13.266 -0.5934 -0.7005 -0.7034
  622TIP3   OH223280   4.083   1.192  11.889 -0.4974 -0.5157  0.0063
  622TIP3    H123281   4.145   1.196  11.961  1.1385 -0.4970 -1.3423
  622TIP3    H223282   4.118   1.124  11.831 -1.7465 -0.5060 -0.7967
  623TIP3   OH223283   1.804   1.084   3.396 -0.1925  0.2239 -0.3038
  623TIP3    H123284   1.785   1.171   3.431  0.3218  0.0887  0.3376
  623TIP3    H223285   1.900   1.082   3.386 -0.0652 -0.6932  0.8731
  624TIP3   OH223286   4.096   3.457   0.269  0.2698  1.1203  0.3014
  624TIP3    H123287   4.059   3.463   0.357 -1.2831 -0.0932 -0.2055
  624TIP3    H223288   4.041   3.515   0.216  1.3482  2.0374  0.1496
  625TIP3   OH223289   2.144   2.322  14.083 -0.1168  0.8379  0.4109
  625TIP3    H123290   2.138   2.406  14.128  0.5017  0.0128  2.1370
  625TIP3    H223291   2.233   2.291  14.102  0.4172  0.7145 -1.9639
  626TIP3   OH223292   4.215   5.888   1.610  0.4446  0.2190 -0.0695
  626TIP3    H123293   4.308   5.886   1.586  0.5824  1.5732  0.2517
  626TIP3    H223294   4.213   5.937   1.692 -0.7554  2.2131 -1.2131
  627TIP3   OH223295   0.584   5.526  14.591  0.7646  0.4984  0.1238
  627TIP3    H123296   0.585   5.569  14.505  3.7468  0.7772  0.1933
  627TIP3    H223297   0.495   5.538  14.623  0.2899  2.7391 -1.7799
  628TIP3   OH223298   0.571   4.585  17.130  0.1038  0.1771 -0.2230
  628TIP3    H123299   0.513   4.640  17.182 -0.4828 -0.6725  0.0483
  628TIP3    H223300   0.532   4.583  17.043  0.2057  0.3130 -0.2716
  629TIP3   OH223301   2.292   5.084   2.561  0.3115  0.3148  0.0689
  629TIP3    H123302   2.331   5.087   2.648  2.6138  0.1769 -0.8653
  629TIP3    H223303   2.207   5.042   2.573  1.2643 -1.1942  1.9889
  630TIP3   OH223304   0.769   6.281  12.620  0.0915 -0.2733 -0.2063
  630TIP3    H123305   0.794   6.240  12.702 -0.8988  0.2595  0.3826
  630TIP3    H223306   0.685   6.324  12.639  0.4383  0.8771 -1.1670
  631TIP3   OH223307   4.740   0.636   2.459 -0.1445 -0.6744  0.1669
  631TIP3    H123308   4.824   0.648   2.504 -0.7804  0.4760  1.1011
  631TIP3    H223309   4.753   0.677   2.373 -0.0113  0.3621  0.6562
  632TIP3   OH223310   2.243   0.614   4.562  0.0768 -0.2446  0.0763
  632TIP3    H123311   2.150   0.635   4.572 -0.2104 -0.6736 -1.4211
  632TIP3    H223312   2.244   0.540   4.501  1.4409  0.5790 -0.9628
  633TIP3   OH223313   4.396   4.842  13.991  0.0168  0.0446 -0.3745
  633TIP3    H123314   4.483   4.845  13.952  0.4639 -3.8387 -0.0999
  633TIP3    H223315   4.338   4.878  13.924  1.7171  2.2928 -0.7239
  634TIP3   OH223316   4.166   4.178   4.709 -0.1891  0.0724 -0.2080
  634TIP3    H123317   4.129   4.267   4.707 -0.0619  0.1182 -0.6814
  634TIP3    H223318   4.102   4.127   4.759 -0.2616  0.4292  0.0722
  635TIP3   OH223319   0.409   3.805   2.773  0.1962 -0.0331 -0.3059
  635TIP3    H123320   0.361   3.796   2.690 -0.2928 -1.7026  0.1174
  635TIP3    H223321   0.346   3.845   2.833 -0.1531 -0.7059 -0.2069
  636TIP3   OH223322   6.130   1.344  13.563 -0.6354  0.1362 -0.0388
  636TIP3    H123323   6.107   1.348  13.656 -1.8017  1.4956 -0.3535
  636TIP3    H223324   6.047   1.330  13.518 -0.0500 -0.7735 -0.8876
  637TIP3   OH223325   1.541   1.206   3.879 -0.2401  0.3978  0.2487
  637TIP3    H123326   1.606   1.276   3.888 -0.3954  0.3608  1.8685
  637TIP3    H223327   1.593   1.126   3.883 -0.0862  0.3807 -1.3993
  638TIP3   OH223328   5.214   5.514  11.694 -0.0204 -0.2841  0.5545
  638TIP3    H123329   5.126   5.547  11.715  0.5601  0.4311  2.0055
  638TIP3    H223330   5.220   5.432  11.744  1.0489  0.9820  2.6397
  639TIP3   OH223331   3.609   1.360  16.084  0.0085 -0.1256  0.2414
  639TIP3    H123332   3.528   1.403  16.113  0.6714  0.1475  1.7462
  639TIP3    H223333   3.599   1.269  16.112 -0.2173 -0.3494 -0.5274
  640TIP3   OH223334   5.101   4.006   0.236 -0.5733 -0.5703  0.1733
  640TIP3    H123335   5.079   3.955   0.313 -0.2398 -1.8991 -0.5836
  640TIP3    H223336   5.019   4.050   0.212 -1.2202 -1.7931  0.0802
  641TIP3   OH223337   4.445   6.261   3.655  0.0405 -0.4914  0.6474
  641TIP3    H123338   4.372   6.245   3.715  0.5790 -3.6633  0.6649
  641TIP3    H223339   4.411   6.320   3.589 -1.7030  0.1821  2.0895
  642TIP3   OH223340   2.698   6.221  12.218 -0.2152 -0.0867  0.1084
  642TIP3    H123341   2.615   6.245  12.260 -0.6580 -0.7132 -0.3831
  642TIP3    H223342   2.672   6.183  12.134  0.6278  0.7736 -0.5755
  643TIP3   OH223343   6.324   2.497  15.483  0.0635  0.3144  0.5100
  643TIP3    H123344   6.372   2.540  15.412  3.2843  0.8813  2.8285
  643TIP3    H223345   6.280   2.568  15.529  0.3017  0.3157  0.7359
  644TIP3   OH223346   6.219   4.140   3.724  0.1515 -0.5181 -0.3891
  644TIP3    H123347   6.295   4.126   3.781 -0.5751  1.0513  1.0583
  644TIP3    H223348   6.256   4.172   3.642  1.0805  4.1744  1.5465
  645TIP3   OH223349   5.367   6.095  15.119 -0.6497 -0.2534  0.0370
  645TIP3    H123350   5.372   6.094  15.024  1.1255 -1.8137  0.0748
  645TIP3    H223351   5.311   6.020  15.141 -0.2746 -0.4879  0.2141
  646TIP3   OH223352   6.412   2.894   2.458  0.1875  0.5433  0.4847
  646TIP3    H123353   6.432   2.947   2.536 -0.5316  1.6390 -0.0481
  646TIP3    H223354   6.355   2.950   2.405  0.4110 -0.3054 -0.6914
  647TIP3   OH223355   6.056   1.327   5.467 -0.1238  0.2598 -0.0059
  647TIP3    H123356   6.043   1.349   5.559 -1.0401 -1.0219  0.1931
  647TIP3    H223357   6.134   1.377   5.441 -0.2219  1.1238  1.2776
  648TIP3   OH223358   0.919   0.234   1.074  0.5020 -0.4557  0.5360
  648TIP3    H123359   0.845   0.216   1.016  1.2469  0.1584 -0.6535
  648TIP3    H223360   0.914   0.166   1.141 -0.5708 -1.0077 -0.0777
  649TIP3   OH223361   4.019   4.023   3.430  0.3453 -0.2235  0.4049
  649TIP3    H123362   4.025   4.117   3.419 -1.7614 -0.0872 -0.0320
  649TIP3    H223363   3.952   4.010   3.497  0.3083 -1.4006  0.1757
  650TIP3   OH223364   0.020   4.995   0.465  0.2188  0.0912 -0.3597
  650TIP3    H123365   0.076   4.929   0.506  0.7893  0.6125 -0.2865
  650TIP3    H223366  -0.069   4.970   0.490  0.3191 -1.3503 -1.3337
  651TIP3   OH223367   1.805   6.674   1.174 -0.2284  0.4431 -0.1349
  651TIP3    H123368   1.757   6.593   1.159 -0.2715  0.6229 -1.0201
  651TIP3    H223369   1.793   6.725   1.094 -1.1091  1.8020  0.8077
  652TIP3   OH223370   2.196   3.036  13.425 -0.2378  0.1798 -0.1320
  652TIP3    H123371   2.102   3.046  13.436 -0.2636 -0.4458  0.2483
  652TIP3    H223372   2.222   3.111  13.372 -0.7715  0.9756  0.6965
  653TIP3   OH223373   1.932   2.306  16.388 -0.2770 -0.2849  0.2017
  653TIP3    H123374   2.012   2.352  16.414 -1.0964  0.1822  2.0264
  653TIP3    H223375   1.878   2.305  16.466 -2.1418 -0.4465 -1.0266
  654TIP3   OH223376   5.401   4.894  14.332  0.4695  0.0342  0.3354
  654TIP3    H123377   5.459   4.851  14.270 -1.4928 -1.0995 -0.8084
  654TIP3    H223378   5.414   4.987  14.317  2.8235 -0.1241  0.9720
  655TIP3   OH223379   1.564   2.773   2.444  0.0723  0.2176 -0.2310
  655TIP3    H123380   1.510   2.852   2.433 -0.2411  0.0216 -0.1296
  655TIP3    H223381   1.629   2.778   2.375 -1.5249 -0.7350 -1.9125
  656TIP3   OH223382   5.736   5.278   1.113  0.1553  0.4576 -0.1301
  656TIP3    H123383   5.681   5.313   1.183  0.1073 -0.2348  0.1907
  656TIP3    H223384   5.764   5.192   1.145  0.3946  0.2666 -0.8245
  657TIP3   OH223385   6.255   6.326  16.390 -0.2221 -0.0924 -0.2804
  657TIP3    H123386   6.233   6.244  16.347  0.2919  0.8601 -2.5417
  657TIP3    H223387   6.309   6.373  16.326  0.6157  1.4650  1.4416
  658TIP3   OH223388   4.279   4.253  15.178  0.0691  0.2559 -0.3423
  658TIP3    H123389   4.245   4.317  15.241 -1.0594 -0.4972 -0.1448
  658TIP3    H223390   4.216   4.255  15.106  0.6379  0.1691 -0.8448
  659TIP3   OH223391   3.035   1.151   2.622  0.0602 -0.9014 -0.0702
  659TIP3    H123392   3.060   1.189   2.706 -1.3302  0.9504 -0.4279
  659TIP3    H223393   3.104   1.177   2.562 -1.9351  3.4264 -0.8672
  660TIP3   OH223394   0.373   5.827  13.487  0.3635  0.0483 -0.0616
  660TIP3    H123395   0.342   5.851  13.400  1.9616  3.5666  0.1710
  660TIP3    H223396   0.293   5.813  13.537 -0.6712  0.9322 -1.3905
  661TIP3   OH223397   0.117   2.918   3.300 -0.5598 -0.2078  0.8487
  661TIP3    H123398   0.132   3.012   3.303  2.6787 -0.5196 -1.0397
  661TIP3    H223399   0.062   2.905   3.223 -0.4757  0.1007  0.7368
  662TIP3   OH223400   5.259   1.900  13.378 -0.0198  0.3075  0.1289
  662TIP3    H123401   5.313   1.933  13.450 -0.1700  1.0755 -0.0986
  662TIP3    H223402   5.197   1.840  13.420 -2.5015  3.3817  1.3212
  663TIP3   OH223403   4.994   3.362  13.828  0.3234  0.0769  0.3344
  663TIP3    H123404   5.035   3.388  13.746  1.2497 -0.1904  0.6987
  663TIP3    H223405   5.026   3.427  13.892 -1.1636  0.8747  0.3042
  664TIP3   OH223406   4.790   3.539  14.245  0.1583 -0.2682  0.2710
  664TIP3    H123407   4.854   3.520  14.314  0.4013  1.8371  0.7115
  664TIP3    H223408   4.836   3.598  14.185 -0.8943  0.0786 -0.2222
  665TIP3   OH223409   3.379   0.055   3.137  0.1518  0.5978 -0.5942
  665TIP3    H123410   3.474   0.052   3.154  0.3864  0.4640 -1.8320
  665TIP3    H223411   3.367   0.135   3.085 -0.3264  0.2811 -0.9747
  666TIP3   OH223412   1.349   2.456   0.273 -0.0284 -0.3602  0.0296
  666TIP3    H123413   1.272   2.404   0.296 -0.0594  0.2892  1.4762
  666TIP3    H223414   1.406   2.395   0.226 -0.5125 -1.4263  0.7817
  667TIP3   OH223415   1.684   5.602   2.697 -0.4936  0.1118 -0.3977
  667TIP3    H123416   1.755   5.564   2.646 -0.6575 -3.1485  1.5176
  667TIP3    H223417   1.726   5.668   2.752 -0.0700  2.5104 -3.4006
  668TIP3   OH223418   2.537   2.605   1.023 -0.1612 -0.4171  0.1202
  668TIP3    H123419   2.589   2.610   1.104  0.1659 -2.0225  0.0341
  668TIP3    H223420   2.475   2.533   1.038  1.1168 -1.9986 -1.6995
  669TIP3   OH223421   3.367   3.786  12.925  0.0116  0.1309  0.0212
  669TIP3    H123422   3.384   3.697  12.956 -2.5628  0.0847  1.5497
  669TIP3    H223423   3.296   3.777  12.862  1.4185  0.8907 -1.7669
  670TIP3   OH223424   4.507   6.646   0.866 -0.0244 -0.5943  0.2159
  670TIP3    H123425   4.517   6.691   0.950  0.5295  0.8870 -0.6050
  670TIP3    H223426   4.491   6.555   0.890  0.2597 -0.2403  1.9266
  671TIP3   OH223427   6.427   1.010   0.187 -0.1021 -0.1459 -0.3990
  671TIP3    H123428   6.426   1.100   0.151 -1.0559  0.2066  0.4688
  671TIP3    H223429   6.477   0.960   0.123  2.3498  1.4294  0.1541
  672TIP3   OH223430   5.175   6.464   2.899  0.0753  0.7376  0.2385
  672TIP3    H123431   5.089   6.477   2.860 -0.0909  2.7872  1.1333
  672TIP3    H223432   5.191   6.544   2.949  2.4309  0.3436  0.2511
  673TIP3   OH223433   4.229   3.386  15.527  0.0894  0.0577  0.1344
  673TIP3    H123434   4.322   3.406  15.526  0.7514 -2.5277  1.2390
  673TIP3    H223435   4.191   3.450  15.588  1.1757  0.9551 -0.0992
  674TIP3   OH223436   0.765   4.724   3.528 -0.1475  0.1230  0.2228
  674TIP3    H123437   0.765   4.682   3.614 -1.3951 -0.7879 -0.1843
  674TIP3    H223438   0.752   4.817   3.547 -2.3148 -0.2661  1.0084
  675TIP3   OH223439   0.013   2.013  13.505 -0.5213 -0.4312  0.4913
  675TIP3    H123440   0.057   1.984  13.424  0.0950  0.4275  0.5054
  675TIP3    H223441   0.021   2.108  13.503 -2.1566 -0.2655  0.6451
  676TIP3   OH223442   1.457   1.608  15.316  0.1283  0.4949  0.1704
  676TIP3    H123443   1.517   1.568  15.378  0.2714  0.8073  0.2378
  676TIP3    H223444   1.374   1.561  15.328  0.5443 -0.4039 -0.4093
  677TIP3   OH223445   6.128   0.170   3.620  0.3681 -0.0754 -0.5099
  677TIP3    H123446   6.168   0.097   3.572 -0.1193 -0.4550 -0.3484
  677TIP3    H223447   6.084   0.128   3.694 -1.3619  0.1822 -1.3362
  678TIP3   OH223448   0.389   3.119  14.058 -0.4107  0.4733 -0.3060
  678TIP3    H123449   0.317   3.177  14.031 -0.9496  0.0197  0.1271
  678TIP3    H223450   0.450   3.176  14.105 -0.0952  1.0180 -1.3546
  679TIP3   OH223451   3.123   0.080   3.234  0.7176 -0.3034 -0.9671
  679TIP3    H123452   3.074   0.001   3.256  0.6839 -0.1765 -0.5782
  679TIP3    H223453   3.207   0.048   3.202  0.8716 -0.4923 -0.3903
  680TIP3   OH223454   2.782   3.874   5.286 -0.5540 -0.7853  0.2574
  680TIP3    H123455   2.811   3.783   5.284  0.6919 -0.4335  0.9214
  680TIP3    H223456   2.863   3.924   5.279 -1.2761  0.2851 -0.8020
  681TIP3   OH223457   5.763   4.574   2.606 -0.3072 -0.0359 -0.3129
  681TIP3    H123458   5.786   4.599   2.696 -0.9705  2.1639 -0.6992
  681TIP3    H223459   5.669   4.558   2.609 -0.3407  0.0993 -0.6192
  682TIP3   OH223460   3.700   0.415   4.136 -0.3746  0.4631 -0.7112
  682TIP3    H123461   3.698   0.506   4.106  1.7869  0.5281 -0.8561
  682TIP3    H223462   3.768   0.375   4.083  2.0437 -0.0115  2.4353
  683TIP3   OH223463   4.438   3.715  15.761 -0.4640  0.2570  0.3370
  683TIP3    H123464   4.519   3.749  15.800 -1.1519  1.3611  0.8491
  683TIP3    H223465   4.433   3.758  15.676 -2.1283  2.7924  1.6054
  684TIP3   OH223466   0.831   2.536   6.654 -0.4057  0.1649  0.1769
  684TIP3    H123467   0.811   2.629   6.647 -1.7797 -0.2097 -1.4226
  684TIP3    H223468   0.900   2.521   6.589  0.2034  0.1579  0.8182
  685TIP3   OH223469   4.453   1.356  16.252  0.3419  0.3198 -0.0459
  685TIP3    H123470   4.400   1.421  16.297  1.9091 -0.0885  2.5878
  685TIP3    H223471   4.418   1.272  16.281  1.3887  0.0478  0.4898
  686TIP3   OH223472   2.403   4.166   2.746  0.3008  0.2833  0.4983
  686TIP3    H123473   2.380   4.251   2.708  1.0439 -0.0593 -0.7958
  686TIP3    H223474   2.392   4.104   2.673  0.5770 -0.6056  1.1958
  687TIP3   OH223475   4.720   3.057   5.874  0.1902 -0.3095 -0.5949
  687TIP3    H123476   4.674   2.976   5.894  1.1237 -0.8430 -0.5554
  687TIP3    H223477   4.812   3.038   5.894  0.4725  0.6377 -0.9400
  688TIP3   OH223478   5.995   0.572   5.456 -0.0028  0.1855  0.3671
  688TIP3    H123479   6.010   0.616   5.540  2.9711  0.5702 -0.2450
  688TIP3    H223480   6.018   0.480   5.473 -1.8810 -0.2886  0.5436
  689TIP3   OH223481   5.113   2.269   0.072 -0.1009 -0.2004  0.4680
  689TIP3    H123482   5.208   2.263   0.060  0.0075  0.7572  0.7624
  689TIP3    H223483   5.102   2.320   0.152 -0.8678 -0.7284  0.7129
  690TIP3   OH223484   0.635   0.438   4.608 -0.3243 -0.6347  0.7662
  690TIP3    H123485   0.623   0.533   4.599 -0.5788 -0.4721  2.4685
  690TIP3    H223486   0.597   0.417   4.693  0.3191 -2.1760  0.7086
  691TIP3   OH223487   4.872   5.147   3.049  0.1456  0.1914  0.3814
  691TIP3    H123488   4.843   5.210   3.114  0.4781  0.0954  0.6261
  691TIP3    H223489   4.825   5.066   3.070  1.9657 -0.5304  1.9686
  692TIP3   OH223490   3.252   1.465  11.030  0.1336  0.0321  0.4179
  692TIP3    H123491   3.258   1.382  11.076 -0.0865  0.0456  0.4736
  692TIP3    H223492   3.170   1.459  10.980  0.9469 -0.4417 -0.8858
  693TIP3   OH223493   1.892   5.225  14.923  0.1748 -0.0784  0.2944
  693TIP3    H123494   1.867   5.309  14.962 -0.2439  0.2312 -0.6185
  693TIP3    H223495   1.975   5.202  14.966 -0.0735  0.4445  1.0663
  694TIP3   OH223496   3.251   3.911   0.279  0.4328 -0.2010  0.0543
  694TIP3    H123497   3.244   4.002   0.251  0.5868 -0.5704 -1.2379
  694TIP3    H223498   3.334   3.907   0.327  0.7118  0.2141 -0.3866
  695TIP3   OH223499   6.679   2.724   1.542  0.1239 -0.2748 -0.2154
  695TIP3    H123500   6.694   2.806   1.495  0.9130 -0.6543 -0.6480
  695TIP3    H223501   6.674   2.750   1.634  2.9657  0.0289 -0.0514
  696TIP3   OH223502   4.313   2.728  16.392 -0.6630 -0.1864 -0.2400
  696TIP3    H123503   4.324   2.782  16.470  0.5848  0.1025 -0.5973
  696TIP3    H223504   4.248   2.662  16.418  0.2066 -0.5046  1.2603
  697TIP3   OH223505   3.438   1.311  16.478  0.0637 -0.2279 -0.8925
  697TIP3    H123506   3.499   1.237  16.486 -0.8616 -0.8885  0.4613
  697TIP3    H223507   3.434   1.348  16.566  0.7495  1.6743 -1.6237
  698TIP3   OH223508   3.592   3.137  12.366 -0.1948  0.0779 -0.4149
  698TIP3    H123509   3.555   3.102  12.447 -0.5757  0.2689 -0.5062
  698TIP3    H223510   3.685   3.149  12.386 -0.6042  1.9497  0.6551
  699TIP3   OH223511   0.138   1.926  12.588  0.2762 -0.7239  0.2710
  699TIP3    H123512   0.162   2.018  12.580  1.5203 -1.0174  0.3877
  699TIP3    H223513   0.164   1.901  12.677 -1.0702 -0.9230  0.6384
  700TIP3   OH223514   5.889   6.506   1.299  0.2844  0.2746 -0.2749
  700TIP3    H123515   5.971   6.554   1.311 -0.9883  2.6982 -0.7647
  700TIP3    H223516   5.821   6.564   1.333 -1.3495 -1.2934 -0.6954
  701TIP3   OH223517   2.503   3.337   3.726  0.4732  0.0077 -0.3815
  701TIP3    H123518   2.456   3.328   3.809  0.9966 -1.5048 -0.2170
  701TIP3    H223519   2.501   3.431   3.708 -0.0603  0.3147  1.1002
  702TIP3   OH223520   1.179   2.371   3.697  0.4818 -0.4230 -0.4261
  702TIP3    H123521   1.218   2.458   3.688  1.7025 -0.9776 -0.6251
  702TIP3    H223522   1.123   2.379   3.774  2.1407  0.0061  0.7904
  703TIP3   OH223523   3.973   6.626  13.135  0.1071 -0.5311 -0.0325
  703TIP3    H123524   4.044   6.647  13.196 -0.2989 -0.3581  0.3880
  703TIP3    H223525   4.006   6.654  13.049  0.7717 -0.9781  0.0690
  704TIP3   OH223526   5.705   4.592  16.772  0.5458 -0.2588 -0.5273
  704TIP3    H123527   5.740   4.505  16.754 -1.4546 -1.1489 -0.3978
  704TIP3    H223528   5.665   4.584  16.859 -0.6411  0.4551 -0.9869
  705TIP3   OH223529   1.067   1.015   3.827  0.0268  0.2000 -0.0247
  705TIP3    H123530   1.133   0.988   3.763 -1.5591 -1.5057 -1.0436
  705TIP3    H223531   1.060   0.940   3.886 -1.4055  0.0916 -0.3006
  706TIP3   OH223532   3.582   5.923  16.401 -0.6518  0.8461 -1.0250
  706TIP3    H123533   3.512   5.891  16.344 -0.9177 -1.0401  0.2467
  706TIP3    H223534   3.541   5.987  16.458 -2.6661 -3.0590  2.5009
  707TIP3   OH223535   3.202   0.440  12.505 -0.3942 -0.4106  0.1970
  707TIP3    H123536   3.163   0.489  12.433 -1.9825 -1.0842  0.5518
  707TIP3    H223537   3.224   0.506  12.571 -0.9327 -0.0135 -0.0244
  708TIP3   OH223538   3.284   6.063   1.166 -0.2718  0.2045  0.0261
  708TIP3    H123539   3.204   6.012   1.181 -0.8155  0.7733 -0.8637
  708TIP3    H223540   3.287   6.124   1.240  1.2229 -2.0669  1.9823
  709TIP3   OH223541   0.549   3.130   5.097 -0.6062 -0.3233  0.2479
  709TIP3    H123542   0.618   3.072   5.064 -0.5763 -1.5189  2.2300
  709TIP3    H223543   0.481   3.127   5.030  0.5067 -0.5268 -0.9227
  710TIP3   OH223544   1.733   3.230  15.630 -0.1812  0.0233 -0.5446
  710TIP3    H123545   1.753   3.138  15.609  0.8891 -0.0014  0.4745
  710TIP3    H223546   1.813   3.262  15.672 -0.7286  1.2861 -0.4439
  711TIP3   OH223547   5.179   1.629   4.946  0.0483 -0.5235  0.3204
  711TIP3    H123548   5.220   1.543   4.940 -0.3458 -0.6563 -0.5403
  711TIP3    H223549   5.088   1.614   4.921 -0.3113 -0.0584  1.2892
  712TIP3   OH223550   5.947   4.357   0.012  0.1310  0.2500 -0.0628
  712TIP3    H123551   5.917   4.273   0.046 -2.9385  1.8574  1.5858
  712TIP3    H223552   6.009   4.388   0.077 -0.5325  0.2862  0.5612
  713TIP3   OH223553   5.602   2.167  12.691  0.1466 -0.0391 -0.1626
  713TIP3    H123554   5.507   2.157  12.680  0.2066 -1.0345  0.0669
  713TIP3    H223555   5.626   2.235  12.629 -0.5351 -0.6794 -1.1648
  714TIP3   OH223556   3.736   1.441  10.570 -0.5692 -1.0221  0.1455
  714TIP3    H123557   3.758   1.492  10.491 -0.1305 -2.0264 -0.4086
  714TIP3    H223558   3.654   1.398  10.548 -0.9901 -0.4745  0.6483
  715TIP3   OH223559   3.249   5.512  14.716  0.6064  0.0295  0.2704
  715TIP3    H123560   3.176   5.465  14.676  1.0222  0.1341 -0.6297
  715TIP3    H223561   3.220   5.603  14.719 -0.5125 -0.3271  2.7172
  716TIP3   OH223562   5.530   3.024  15.111  0.1838 -1.3356  0.2208
  716TIP3    H123563   5.553   3.080  15.037  0.7102 -1.1546  0.5148
  716TIP3    H223564   5.566   2.938  15.088  0.8203 -1.1511  0.4980
  717TIP3   OH223565   5.691   5.526  16.964  0.5735  0.1901 -0.3092
  717TIP3    H123566   5.667   5.447  17.013  0.2825 -0.1658 -1.0055
  717TIP3    H223567   5.758   5.495  16.902  1.6058  0.8186  0.4667
  718TIP3   OH223568   2.308   1.808  12.768  0.0685  0.3151  0.0474
  718TIP3    H123569   2.283   1.797  12.676  2.9930 -1.5335 -0.6500
  718TIP3    H223570   2.379   1.873  12.766  0.8985 -0.5386  0.8103
  719TIP3   OH223571   2.566   4.986  14.380 -0.3921  0.2511 -0.1348
  719TIP3    H123572   2.551   4.895  14.354 -0.4586 -0.2133  1.3977
  719TIP3    H223573   2.479   5.019  14.402 -0.2425  0.3339  0.3512
  720TIP3   OH223574   4.999   0.604  15.708 -0.4708 -0.0804 -0.2825
  720TIP3    H123575   4.913   0.638  15.734 -0.4285  1.6114 -2.0879
  720TIP3    H223576   5.048   0.598  15.790 -1.6673  0.8292  0.5465
  721TIP3   OH223577   5.280   0.054   0.381  0.0894 -0.3357 -0.5127
  721TIP3    H123578   5.221  -0.021   0.381 -0.1308 -0.1975  0.9291
  721TIP3    H223579   5.272   0.090   0.469  0.8837  0.8369 -0.9001
  722TIP3   OH223580   5.880   4.454   4.782  0.0296 -0.0225 -0.0841
  722TIP3    H123581   5.845   4.471   4.869  0.8068 -0.4793  0.3270
  722TIP3    H223582   5.975   4.451   4.794  0.1723  0.3509 -1.0265
  723TIP3   OH223583   4.511   5.421  12.210  0.3382  0.1150 -0.3231
  723TIP3    H123584   4.425   5.380  12.224  0.5753 -0.1133  0.4806
  723TIP3    H223585   4.563   5.395  12.286  1.6623 -1.1421 -1.5973
  724TIP3   OH223586   3.172   4.823  14.464 -0.0099 -0.1682  0.0397
  724TIP3    H123587   3.231   4.812  14.390  0.9067 -0.3515  0.7706
  724TIP3    H223588   3.192   4.910  14.498 -2.2716  1.0300 -1.4630
  725TIP3   OH223589   4.937   4.702   4.858  0.1304 -0.1170  0.6976
  725TIP3    H123590   5.000   4.636   4.889 -0.0853 -1.0846 -0.8200
  725TIP3    H223591   4.971   4.785   4.891  0.5208 -0.9379  2.5123
  726TIP3   OH223592   6.747   3.839  11.434  0.1386  0.3463  0.0702
  726TIP3    H123593   6.771   3.764  11.378 -0.9255 -0.2922  0.4324
  726TIP3    H223594   6.757   3.915  11.377  1.5280 -0.0148 -0.2270
  727TIP3   OH223595   5.711   5.876  15.191 -0.2294  1.0941 -0.1948
  727TIP3    H123596   5.621   5.907  15.179  0.0660  1.1426 -2.8893
  727TIP3    H223597   5.743   5.925  15.267 -2.9902 -0.3059  2.0809
  728TIP3   OH223598   1.518   1.235  17.207 -0.4063 -0.0540  0.4590
  728TIP3    H123599   1.464   1.157  17.199  0.1107 -0.3470 -0.2531
  728TIP3    H223600   1.554   1.231  17.295 -0.1599 -0.7651  0.3265
  729TIP3   OH223601   2.000   6.269   0.497 -0.1757 -0.6262 -0.4229
  729TIP3    H123602   2.057   6.227   0.434 -0.9532 -0.3512 -1.3328
  729TIP3    H223603   2.055   6.335   0.539  0.4757 -1.1298 -0.4771
  730TIP3   OH223604   2.676   0.202   1.387 -0.1753 -0.1665 -0.0098
  730TIP3    H123605   2.736   0.170   1.455 -1.3957  0.0619  1.2252
  730TIP3    H223606   2.643   0.122   1.345  1.0976 -0.2880 -0.8306
  731TIP3   OH223607   0.588   2.689   1.025 -0.0511  0.9916 -0.1886
  731TIP3    H123608   0.628   2.602   1.018  0.1717  1.1122 -0.4212
  731TIP3    H223609   0.510   2.675   1.080 -0.8791  0.3487 -1.4757
  732TIP3   OH223610   5.634   2.343  16.160 -0.1957 -0.1407 -0.3869
  732TIP3    H123611   5.635   2.377  16.249 -0.5233  4.3426 -1.8377
  732TIP3    H223612   5.545   2.309  16.147 -0.8109  1.1094  0.4079
  733TIP3   OH223613   2.482   3.624   3.812 -0.1360 -0.2343 -0.4622
  733TIP3    H123614   2.576   3.628   3.794 -0.2406  1.4395 -0.7803
  733TIP3    H223615   2.441   3.660   3.734 -0.8901  1.4433  0.6483
  734TIP3   OH223616   6.293   6.153  14.442 -0.1071  0.3176  0.2734
  734TIP3    H123617   6.352   6.077  14.442 -2.2497 -1.4659 -0.8095
  734TIP3    H223618   6.314   6.199  14.361  0.1040 -0.0775  0.0979
  735TIP3   OH223619   1.203   1.273  15.214  0.0462 -0.3625 -0.5945
  735TIP3    H123620   1.108   1.269  15.225  0.1392  0.6142  0.7641
  735TIP3    H223621   1.234   1.187  15.242 -0.1256  0.6171  3.0239
  736TIP3   OH223622   1.913   0.323  13.976 -0.0183 -0.0422 -0.2679
  736TIP3    H123623   1.957   0.306  13.893  0.7012 -0.1986  0.1418
  736TIP3    H223624   1.977   0.370  14.029 -0.4275 -0.0451  0.2430
  737TIP3   OH223625   0.684   3.033  14.421 -0.0385 -0.6278  0.0344
  737TIP3    H123626   0.645   2.951  14.390  3.1180 -2.7316  1.1101
  737TIP3    H223627   0.616   3.074  14.473 -1.9812 -2.1655 -1.1279
  738TIP3   OH223628   4.535   5.207  14.212  0.3920  0.3067 -0.1831
  738TIP3    H123629   4.493   5.201  14.126 -1.3458 -1.3058  0.7152
  738TIP3    H223630   4.500   5.133  14.261  2.2664  0.4937  1.5501
  739TIP3   OH223631   4.468   6.202   5.780 -0.2872 -0.2123 -0.2768
  739TIP3    H123632   4.471   6.181   5.686  0.4040 -1.1768 -0.0572
  739TIP3    H223633   4.517   6.283   5.789 -0.3678 -0.1093 -0.7562
  740TIP3   OH223634   2.452   4.308  11.983 -0.0326  0.3769 -0.1802
  740TIP3    H123635   2.363   4.274  11.989 -0.2567  1.0630  0.5911
  740TIP3    H223636   2.469   4.346  12.069  1.6405 -1.2599  0.2838
  741TIP3   OH223637   6.407   6.116  14.788 -0.3240 -0.1211 -0.5847
  741TIP3    H123638   6.315   6.139  14.772 -0.4962 -0.3368  0.0553
  741TIP3    H223639   6.455   6.160  14.718 -0.9576 -0.3931 -1.2180
  742TIP3   OH223640   4.150   0.507  14.599 -0.3304  0.2756 -0.3242
  742TIP3    H123641   4.088   0.439  14.624 -0.6642 -0.2114 -2.2985
  742TIP3    H223642   4.235   0.462  14.597 -0.8154 -0.7436 -3.6375
  743TIP3   OH223643   0.356   1.924  15.908  0.0661  0.0330 -1.0799
  743TIP3    H123644   0.334   2.017  15.919  1.9300  0.4878 -0.9212
  743TIP3    H223645   0.391   1.918  15.820  3.3882  0.2873  0.0874
  744TIP3   OH223646   4.057   4.601  16.719 -1.1520  0.4101  0.1660
  744TIP3    H123647   4.149   4.601  16.747 -0.7182  1.9992 -1.0957
  744TIP3    H223648   4.007   4.613  16.800 -0.1422  1.4288  0.6596
  745TIP3   OH223649   0.095   5.725   1.342 -0.0490 -0.1433 -0.3803
  745TIP3    H123650   0.107   5.800   1.400 -3.6079 -0.3800  0.8641
  745TIP3    H223651   0.117   5.649   1.395 -1.2563 -0.2308  0.0204
  746TIP3   OH223652   6.368   0.317  13.776 -0.8487  0.3257 -0.0575
  746TIP3    H123653   6.336   0.355  13.858  0.2018  1.0979  0.0240
  746TIP3    H223654   6.422   0.386  13.738  0.0751 -0.6319 -0.5476
  747TIP3   OH223655   0.447   3.028   3.906  0.6667  0.0097  0.5525
  747TIP3    H123656   0.484   2.969   3.972  2.1010 -0.1951 -0.3806
  747TIP3    H223657   0.463   2.983   3.822  2.1941  1.8348 -0.2229
  748TIP3   OH223658   0.231   3.363   2.695 -0.1038 -0.5805 -0.5522
  748TIP3    H123659   0.177   3.441   2.701  2.6905  1.7609 -2.7456
  748TIP3    H223660   0.175   3.298   2.651 -1.9083  0.7839 -0.3733
  749TIP3   OH223661   6.050   3.226  16.825 -0.4124 -0.6767 -0.7721
  749TIP3    H123662   6.001   3.275  16.892 -0.8440  1.6175 -2.6419
  749TIP3    H223663   6.142   3.246  16.843 -0.4255 -1.1966 -0.0725
  750TIP3   OH223664   6.629   0.620   1.852  0.2234  0.4471 -0.0201
  750TIP3    H123665   6.639   0.541   1.799  1.4941  0.4434  0.2076
  750TIP3    H223666   6.633   0.590   1.942 -2.8473  0.3318  0.1874
  751TIP3   OH223667   2.759   1.821   2.860  0.0288 -0.0207  0.1750
  751TIP3    H123668   2.753   1.913   2.884  1.2740  0.4004 -1.0399
  751TIP3    H223669   2.724   1.817   2.771 -2.4544 -1.1922  1.0936
  752TIP3   OH223670   2.999   1.684   2.874  0.0427 -0.2887 -0.1481
  752TIP3    H123671   3.069   1.737   2.834  0.6271 -0.6559  0.3868
  752TIP3    H223672   2.922   1.741   2.870  0.4090  0.1931 -0.5751
  753TIP3   OH223673   5.188   3.491   2.581  0.5720 -0.0495 -0.0619
  753TIP3    H123674   5.219   3.541   2.657 -0.1640 -0.4554  0.5187
  753TIP3    H223675   5.112   3.443   2.614  1.5640 -1.9603 -0.4654
  754TIP3   OH223676   5.148   5.339   0.520  0.7156  0.1970 -0.0948
  754TIP3    H123677   5.186   5.375   0.601 -2.3146  1.1132  1.0746
  754TIP3    H223678   5.135   5.246   0.539 -1.2100  0.6530  1.0941
  755TIP3   OH223679   5.387   1.416  12.907  0.4092  0.2947  0.2752
  755TIP3    H123680   5.381   1.509  12.885 -0.0049 -0.1026 -1.4076
  755TIP3    H223681   5.303   1.395  12.947  0.5214  0.6350  0.7040
  756TIP3   OH223682   1.198   0.911   4.692 -0.4797  0.3144  0.3201
  756TIP3    H123683   1.167   0.981   4.635 -0.7914  0.7295  0.9916
  756TIP3    H223684   1.288   0.895   4.663 -0.9702 -0.2205 -0.9868
  757TIP3   OH223685   4.369   4.314   1.482 -0.2840 -0.4285  0.3722
  757TIP3    H123686   4.280   4.343   1.461 -0.2079  1.4241  2.2749
  757TIP3    H223687   4.356   4.232   1.530 -0.8212 -1.0982 -0.8642
  758TIP3   OH223688   1.532   4.919   5.123 -0.3352  0.5561 -0.3789
  758TIP3    H123689   1.470   4.977   5.078 -0.0375 -0.1766 -1.8050
  758TIP3    H223690   1.525   4.836   5.076  1.5021  0.3548 -0.3753
  759TIP3   OH223691   2.956   2.055  12.878  0.0390  0.4911  0.1549
  759TIP3    H123692   3.028   1.992  12.888  1.7426  2.6336  2.5492
  759TIP3    H223693   2.895   2.033  12.948 -0.7807 -0.2013 -0.7582
  760TIP3   OH223694   3.407   3.650   1.115  0.2019  0.4451 -0.1638
  760TIP3    H123695   3.462   3.728   1.116 -0.9134  1.3724 -2.5051
  760TIP3    H223696   3.461   3.583   1.073  1.2990 -0.2510  2.1923
  761TIP3   OH223697   5.341   4.304  16.219  0.2180  0.0502  0.1342
  761TIP3    H123698   5.283   4.376  16.244  1.3197  0.9029  0.3240
  761TIP3    H223699   5.288   4.225  16.231 -0.5697  0.7241  1.3224
  762TIP3   OH223700   3.777   3.677   1.854 -0.0707 -0.1969  0.0276
  762TIP3    H123701   3.846   3.628   1.899 -0.3692 -0.4469  0.2160
  762TIP3    H223702   3.721   3.609   1.815  0.2920  0.0125 -0.8969
  763TIP3   OH223703   3.722   0.851  14.459 -0.2810 -0.2324 -0.1938
  763TIP3    H123704   3.699   0.770  14.413 -2.0906 -0.6928  1.3633
  763TIP3    H223705   3.797   0.827  14.514 -1.3090 -1.1584  0.8784
  764TIP3   OH223706   4.545   1.432   1.312 -0.1234  0.3890  0.1972
  764TIP3    H123707   4.631   1.474   1.303  1.0219 -1.8683 -0.2420
  764TIP3    H223708   4.513   1.425   1.222  0.6218 -1.3236  0.0076
  765TIP3   OH223709   3.021   5.095  16.703 -0.0260  0.4726  0.5037
  765TIP3    H123710   3.107   5.072  16.736 -0.1242  1.0888  1.2157
  765TIP3    H223711   2.965   5.020  16.724 -0.1625  0.9853  2.0601
  766TIP3   OH223712   1.172   1.806  14.361 -0.2465 -0.0137  0.4644
  766TIP3    H123713   1.114   1.759  14.421  0.4925 -1.4902  0.0805
  766TIP3    H223714   1.245   1.745  14.346  0.3211  0.9261 -0.7577
  767TIP3   OH223715   1.543   6.492   4.119 -0.0789  0.0102  0.0570
  767TIP3    H123716   1.638   6.483   4.120 -0.1530 -0.7961  0.6306
  767TIP3    H223717   1.511   6.408   4.150 -0.9808  0.3258  0.0012
  768TIP3   OH223718   1.147   6.498  14.148 -0.0940 -0.3401  0.7570
  768TIP3    H123719   1.118   6.412  14.177 -1.9264  0.0568  0.2744
  768TIP3    H223720   1.131   6.498  14.054 -0.3169  0.5849  0.7862
  769TIP3   OH223721   1.769   0.054  11.721 -0.0804  0.4310 -0.3147
  769TIP3    H123722   1.696   0.015  11.673  1.1075 -1.0081 -1.0357
  769TIP3    H223723   1.799   0.125  11.664  0.6570 -0.6042 -1.2797
  770TIP3   OH223724   3.359   4.845  13.847  0.0197 -0.5214  0.1469
  770TIP3    H123725   3.320   4.775  13.794  0.5322  0.3016 -1.3886
  770TIP3    H223726   3.285   4.903  13.868 -0.1408 -0.7064  0.0947
  771TIP3   OH223727   0.265   2.179   1.712 -0.3162  0.2202 -0.2862
  771TIP3    H123728   0.305   2.093   1.703  1.4048  0.1484  5.0216
  771TIP3    H223729   0.171   2.164   1.699  0.0565 -2.2051 -0.5364
  772TIP3   OH223730   4.502   5.575  14.777  0.6821  0.7288 -0.6456
  772TIP3    H123731   4.465   5.635  14.712 -1.2463  0.6413  0.2999
  772TIP3    H223732   4.462   5.491  14.757  2.1785  0.0538 -0.9882
  773TIP3   OH223733   2.283   4.085  11.792  0.2558  0.3273  0.1062
  773TIP3    H123734   2.228   4.077  11.714 -1.4135 -0.6619  1.3170
  773TIP3    H223735   2.341   4.158  11.772 -0.9635  0.9237 -1.5730
  774TIP3   OH223736   6.058   5.905  13.530  0.1251 -0.6493 -0.2321
  774TIP3    H123737   5.983   5.965  13.531 -0.1624 -1.0117  0.6478
  774TIP3    H223738   6.096   5.916  13.442  0.4382  1.2707  0.0841
  775TIP3   OH223739   0.554   3.312  14.455  0.0930 -0.7020 -0.2497
  775TIP3    H123740   0.485   3.247  14.446  0.4717 -0.9672 -1.4501
  775TIP3    H223741   0.512   3.386  14.498 -0.6467 -1.2826  0.0380
  776TIP3   OH223742   3.280   1.880   2.545 -0.7293 -0.6142  0.0542
  776TIP3    H123743   3.365   1.835   2.540 -1.1166 -1.3056 -0.3905
  776TIP3    H223744   3.271   1.924   2.460 -1.1649 -1.1815 -0.1971
  777TIP3   OH223745   0.031   2.148  15.205 -0.0759 -0.1959 -0.0582
  777TIP3    H123746  -0.060   2.175  15.220 -0.7192 -2.3276  0.1264
  777TIP3    H223747   0.028   2.095  15.126  0.5736 -2.1877  1.1849
  778TIP3   OH223748   5.882   3.279   2.625 -0.3266 -0.0535  0.1151
  778TIP3    H123749   5.908   3.290   2.533 -1.6711 -0.9292 -0.4181
  778TIP3    H223750   5.964   3.266   2.672  0.4718  1.3634 -0.8002
  779TIP3   OH223751   4.951   4.409   5.424 -0.1091  0.6967  0.6401
  779TIP3    H123752   4.966   4.415   5.330 -1.6763  1.4969  0.4079
  779TIP3    H223753   5.038   4.421   5.463  0.9251 -1.6408 -0.7063
  780TIP3   OH223754   0.769   3.915   3.857  0.7225  0.0642  0.0743
  780TIP3    H123755   0.762   3.867   3.940  0.8426 -1.3401 -0.6983
  780TIP3    H223756   0.679   3.929   3.829  0.6873  0.0339  0.1732
  781TIP3   OH223757   0.798   5.780   3.284 -0.1629 -0.1578  0.3938
  781TIP3    H123758   0.720   5.729   3.262  0.3857 -0.5522 -0.6839
  781TIP3    H223759   0.818   5.756   3.374 -1.4674  0.1982  0.8026
  782TIP3   OH223760   2.298   5.224   1.933 -0.1952  0.3704  0.2403
  782TIP3    H123761   2.322   5.138   1.968 -0.3663  0.4632  0.5809
  782TIP3    H223762   2.283   5.279   2.010  1.7117  1.2394  0.0744
  783TIP3   OH223763   6.138   1.966  17.211 -0.1010 -0.1366 -0.6895
  783TIP3    H123764   6.133   2.055  17.178 -0.5138  0.2100  0.2935
  783TIP3    H223765   6.053   1.927  17.188 -1.0670  0.6191  1.3521
  784TIP3   OH223766   5.792   4.353  14.170 -0.2828  0.0021  0.1579
  784TIP3    H123767   5.777   4.267  14.209  1.5895 -0.4723 -0.0720
  784TIP3    H223768   5.744   4.414  14.226  0.3228 -0.9258  1.7551
  785TIP3   OH223769   6.250   3.138   4.144 -0.6109 -0.0970 -0.8164
  785TIP3    H123770   6.305   3.133   4.221 -1.2787  1.1842 -0.2176
  785TIP3    H223771   6.165   3.102   4.172 -0.6601 -0.2671 -1.1636
  786TIP3   OH223772   6.468   6.228   1.089  0.3876 -0.0322 -0.2753
  786TIP3    H123773   6.388   6.254   1.133  0.2963 -1.9595  0.8024
  786TIP3    H223774   6.516   6.310   1.074 -0.8416  0.9362  0.9073
  787TIP3   OH223775   3.589   1.789  14.341 -0.0269  0.2545  0.0701
  787TIP3    H123776   3.644   1.721  14.382  2.1458  0.5895 -2.0781
  787TIP3    H223777   3.603   1.866  14.396 -0.6601 -0.3964  1.1850
  788TIP3   OH223778   2.850   0.067   1.557  0.0975  0.0145  0.5111
  788TIP3    H123779   2.939   0.090   1.529  0.0159  0.7355  0.8186
  788TIP3    H223780   2.856   0.061   1.652 -0.3767  0.9703  0.6131
  789TIP3   OH223781   2.596   4.732   4.038 -0.7403 -0.0944  0.0706
  789TIP3    H123782   2.672   4.675   4.054 -1.2329 -1.0013 -0.7273
  789TIP3    H223783   2.604   4.801   4.104 -0.3075 -1.2663  1.2874
  790TIP3   OH223784   1.003   2.970  16.968  0.4973 -0.2991 -0.3494
  790TIP3    H123785   1.006   2.944  17.060  0.0227 -0.0176 -0.2518
  790TIP3    H223786   1.060   2.908  16.923  0.9069 -0.2996  0.1675
  791TIP3   OH223787   1.651   0.405  14.006  0.0246  0.1357 -0.3749
  791TIP3    H123788   1.665   0.500  14.006  0.7566  0.1446  2.7418
  791TIP3    H223789   1.736   0.368  14.028 -0.4254 -1.2021 -0.8115
  792TIP3   OH223790   5.149   3.653   4.477 -0.1562  0.2247  0.0922
  792TIP3    H123791   5.082   3.705   4.431 -2.3107 -1.2270  1.4696
  792TIP3    H223792   5.192   3.604   4.407 -0.6501  1.0270 -0.8096
  793TIP3   OH223793   1.987   3.882  11.838 -0.2106  0.3141 -0.1591
  793TIP3    H123794   2.022   3.951  11.782  0.8416 -0.1802 -0.1254
  793TIP3    H223795   1.942   3.929  11.909  0.2580  0.9618 -0.2835
  794TIP3   OH223796   4.468   1.962  16.370  0.2995 -0.0404 -0.3793
  794TIP3    H123797   4.410   1.949  16.294  0.1619 -0.2554 -0.2402
  794TIP3    H223798   4.517   1.880  16.376 -0.4940 -0.4753  0.4410
  795TIP3   OH223799   3.736   5.819  11.678 -0.3459  0.1949  0.8152
  795TIP3    H123800   3.668   5.781  11.623 -0.0870  0.6490  0.1702
  795TIP3    H223801   3.693   5.893  11.721 -0.8661 -0.8160  2.1119
  796TIP3   OH223802   2.743   2.664   4.456 -0.2896 -0.7912 -0.3743
  796TIP3    H123803   2.651   2.662   4.483  0.0811  2.6155  1.6519
  796TIP3    H223804   2.764   2.757   4.448  3.3571 -1.3893  0.5438
  797TIP3   OH223805   6.731   1.243   2.164  0.2352  0.0640 -0.0679
  797TIP3    H123806   6.785   1.240   2.085 -0.0574  0.7143 -0.2953
  797TIP3    H223807   6.649   1.200   2.137 -0.1785  1.0250 -0.3700
  798TIP3   OH223808   5.506   5.427   2.008  0.4608  0.0198 -0.1019
  798TIP3    H123809   5.481   5.508   1.962  0.7597 -0.2603 -0.7682
  798TIP3    H223810   5.436   5.365   1.987  0.2949  0.0656  0.3086
  799TIP3   OH223811   0.183   0.077   0.832  0.1728 -0.0055 -0.1212
  799TIP3    H123812   0.169  -0.013   0.800 -0.2041  0.0323 -0.0652
  799TIP3    H223813   0.119   0.088   0.902 -1.0663  0.9355 -1.3560
  800TIP3   OH223814   3.090   1.917  11.746 -0.5851 -0.1438  0.1790
  800TIP3    H123815   3.115   1.988  11.688  1.1416  0.3661  1.4436
  800TIP3    H223816   3.126   1.838  11.705  1.6442  0.3476  0.9931
  801TIP3   OH223817   1.465   3.072  15.444  0.0650  0.7550 -0.7604
  801TIP3    H123818   1.499   3.043  15.528  1.0409  1.1541 -1.0063
  801TIP3    H223819   1.372   3.089  15.460  0.3611  1.3580  0.3769
  802TIP3   OH223820   4.955   1.831  14.667  0.1213  0.9496 -0.5234
  802TIP3    H123821   4.956   1.741  14.698  1.4252  0.5982 -1.5177
  802TIP3    H223822   4.883   1.872  14.715 -0.3655 -0.5569  0.0859
  803TIP3   OH223823   2.555   5.055  16.375 -0.6186  0.0849 -0.1210
  803TIP3    H123824   2.491   5.012  16.431 -1.1191 -0.3864 -1.0347
  803TIP3    H223825   2.638   5.011  16.396 -0.9508 -0.6513 -0.3482
  804TIP3   OH223826   4.586   1.794  13.562  0.0010 -0.1235  0.0950
  804TIP3    H123827   4.640   1.799  13.641  0.8025 -1.0617 -0.3778
  804TIP3    H223828   4.569   1.885  13.539  3.3142  0.3340 -1.0321
  805TIP3   OH223829   5.408   2.335  13.487 -0.0858  0.7347  0.2050
  805TIP3    H123830   5.493   2.364  13.455 -0.0537  0.9531  0.4769
  805TIP3    H223831   5.380   2.268  13.425  0.9877 -0.4700  0.9782
  806TIP3   OH223832   1.777   1.671  11.883 -0.4120 -0.0312  0.4932
  806TIP3    H123833   1.780   1.597  11.945  2.7865 -1.0676 -0.6883
  806TIP3    H223834   1.807   1.746  11.934 -0.7142 -0.2119  0.9465
  807TIP3   OH223835   2.613   3.905  12.901  0.4000 -0.0052 -0.2571
  807TIP3    H123836   2.603   3.994  12.934  0.9136 -0.2199  0.4841
  807TIP3    H223837   2.686   3.868  12.950  1.0565 -0.3996 -1.4860
  808TIP3   OH223838   5.566   4.658  13.501 -0.0570  0.6584  0.0084
  808TIP3    H123839   5.660   4.663  13.516  0.0308 -1.7614  0.6912
  808TIP3    H223840   5.529   4.639  13.588 -0.8307 -1.4189 -0.7352
  809TIP3   OH223841   5.837   1.896   4.068  0.6923 -0.6990  0.3876
  809TIP3    H123842   5.793   1.811   4.066  0.4836 -0.6082  0.9704
  809TIP3    H223843   5.846   1.921   3.976  0.6992 -1.3210  0.2153
  810TIP3   OH223844   3.081   4.038   3.882  1.0420 -0.1093  0.6449
  810TIP3    H123845   3.140   4.019   3.955 -0.1460  1.1973  2.0136
  810TIP3    H223846   3.076   3.955   3.834  3.9515 -0.2690  0.4397
  811TIP3   OH223847   2.676   2.514   3.726 -0.0266 -0.7110  0.6289
  811TIP3    H123848   2.743   2.512   3.794  0.2603 -0.8753  0.3461
  811TIP3    H223849   2.718   2.475   3.650  0.7474  2.2845 -0.6345
  812TIP3   OH223850   0.655   5.012  10.505 -0.0544  0.2057  0.2122
  812TIP3    H123851   0.572   5.041  10.468 -0.0387  0.0785  0.0811
  812TIP3    H223852   0.701   5.094  10.528 -0.0510  0.2817 -0.0699
  813TIP3   OH223853   5.163   0.492   3.709 -0.3200 -0.1391 -0.4000
  813TIP3    H123854   5.229   0.542   3.758 -0.0318 -1.9961  1.2409
  813TIP3    H223855   5.213   0.430   3.656 -0.6784 -1.3266  0.5960
  814TIP3   OH223856   2.960   3.584   5.927  0.3886  0.2768 -0.4142
  814TIP3    H123857   3.032   3.565   5.987 -0.6108 -1.1725  0.4057
  814TIP3    H223858   2.883   3.549   5.972 -0.6088  0.5008 -1.9044
  815TIP3   OH223859   3.182   3.283  15.897 -0.0705 -0.4056 -0.4694
  815TIP3    H123860   3.125   3.356  15.920  0.6551 -0.3583  1.3371
  815TIP3    H223861   3.123   3.216  15.861 -1.0662  0.1575  0.0832
  816TIP3   OH223862   4.270   3.708  16.506  0.5104 -0.2986 -0.1801
  816TIP3    H123863   4.335   3.741  16.567 -0.0711  1.2674 -0.3742
  816TIP3    H223864   4.186   3.720  16.551  0.1267  0.2867 -1.0325
  817TIP3   OH223865   3.949   6.750  11.707 -0.0070 -0.1287  0.4905
  817TIP3    H123866   3.860   6.780  11.688  0.1692  0.1198  0.0470
  817TIP3    H223867   3.994   6.828  11.739 -0.0884 -0.3716  1.2028
  818TIP3   OH223868   0.937   5.371   0.381  0.4053  0.0645 -0.1971
  818TIP3    H123869   0.950   5.462   0.407  3.1226  0.4521 -2.4341
  818TIP3    H223870   0.996   5.322   0.438 -1.9631 -0.5442  1.8558
  819TIP3   OH223871   6.620   1.937  14.408 -0.5819  0.5485 -0.3004
  819TIP3    H123872   6.555   1.867  14.400  1.6208 -1.6471 -0.2716
  819TIP3    H223873   6.652   1.928  14.498  0.8426  0.5095 -0.7911
  820TIP3   OH223874   6.342   6.349   0.007  0.2236 -0.0836  0.2085
  820TIP3    H123875   6.411   6.344   0.074  0.7645  1.0637 -0.2457
  820TIP3    H223876   6.308   6.259   0.002 -1.2075  0.1293  3.4112
  821TIP3   OH223877   6.331   4.736  13.260 -0.0170  0.7623  0.0584
  821TIP3    H123878   6.396   4.764  13.324 -1.7267  1.8611  1.4125
  821TIP3    H223879   6.362   4.769  13.177  0.7666  1.9520  0.8049
  822TIP3   OH223880   0.934   5.548  14.185  0.2939  0.6975  0.0418
  822TIP3    H123881   1.028   5.567  14.187  0.0846  1.9275  3.0058
  822TIP3    H223882   0.894   5.620  14.234 -1.6714 -2.1729  3.0374
  823TIP3   OH223883   5.971   3.131  15.044 -0.2689 -1.1623 -0.2979
  823TIP3    H123884   5.909   3.062  15.020  0.8975 -2.7272  1.0167
  823TIP3    H223885   5.991   3.174  14.961 -2.1860 -1.3701 -0.9289
  824TIP3   OH223886   4.204   0.418  10.375  0.3990  0.4411 -0.2670
  824TIP3    H123887   4.186   0.438  10.467 -1.4549 -1.0087 -0.2530
  824TIP3    H223888   4.143   0.348  10.353  0.2429  1.2578 -2.8378
  825TIP3   OH223889   4.873   5.502   1.214 -0.4749  0.1502  0.1031
  825TIP3    H123890   4.885   5.594   1.234  1.0633 -0.1825  0.8205
  825TIP3    H223891   4.910   5.455   1.289 -1.0889 -1.0619 -0.3133
  826TIP3   OH223892   0.234   4.250   2.159 -0.7973  0.4959 -0.5862
  826TIP3    H123893   0.234   4.283   2.249 -2.4168  1.3218 -0.8621
  826TIP3    H223894   0.142   4.248   2.134 -0.3845  0.1331 -2.1820
  827TIP3   OH223895   2.946   6.185  12.124  0.4621  0.3860 -0.0768
  827TIP3    H123896   2.859   6.216  12.153  0.0098 -1.1575  0.3135
  827TIP3    H223897   2.955   6.100  12.166  1.1825 -0.5165 -1.9855
  828TIP3   OH223898   2.922   6.657  13.541  0.0442  0.0597  0.3677
  828TIP3    H123899   2.910   6.644  13.635 -1.4070  1.7337  0.4721
  828TIP3    H223900   2.836   6.685  13.509  0.8352  0.8475 -1.1986
  829TIP3   OH223901   3.989   0.786   3.671  0.1106  0.4340 -0.0280
  829TIP3    H123902   4.057   0.742   3.722  1.6590  1.2110 -1.3672
  829TIP3    H223903   3.912   0.729   3.680  1.2108 -1.0032  0.6534
  830TIP3   OH223904   6.017   5.264  10.943  0.2022  0.2649  0.2919
  830TIP3    H123905   6.000   5.209  11.020 -0.9312  0.0783 -0.0734
  830TIP3    H223906   6.061   5.205  10.881  0.4081  0.1994  0.5009
  831TIP3   OH223907   2.769   5.787   2.463  0.0840 -0.5963 -0.5952
  831TIP3    H123908   2.815   5.719   2.414 -0.7936 -0.4415 -1.6584
  831TIP3    H223909   2.707   5.825   2.401 -1.7281 -1.0017  0.8752
  832TIP3   OH223910   2.611   5.645  13.069  0.5918 -0.8494 -0.0629
  832TIP3    H123911   2.630   5.734  13.097 -0.8141 -0.5596  0.0598
  832TIP3    H223912   2.694   5.611  13.036  1.0534  0.6433 -0.4905
  833TIP3   OH223913   6.469   3.637  17.192 -0.5554 -0.1865 -0.1504
  833TIP3    H123914   6.379   3.640  17.225  0.0337  2.1648  1.5090
  833TIP3    H223915   6.523   3.645  17.270  1.0540  0.1059 -1.2475
  834TIP3   OH223916   5.266   0.877  11.627 -0.0763  0.2174  0.8201
  834TIP3    H123917   5.293   0.969  11.628  2.1254 -0.3672  2.2355
  834TIP3    H223918   5.218   0.865  11.709 -1.2918  0.3045  0.1500
  835TIP3   OH223919   1.419   3.321   0.646  0.3817  0.1839 -0.4775
  835TIP3    H123920   1.508   3.336   0.614  0.0273  0.8955 -1.1345
  835TIP3    H223921   1.377   3.407   0.641 -0.6306 -0.3349 -1.0712
  836TIP3   OH223922   1.049   2.880  17.222 -0.4972 -0.6356  0.0753
  836TIP3    H123923   1.110   2.808  17.206  1.2641  0.6440  0.6649
  836TIP3    H223924   1.066   2.905  17.313 -1.0641  0.5119 -0.1186
  837TIP3   OH223925   0.553   1.977  14.885 -0.5019  0.0431 -0.5826
  837TIP3    H123926   0.509   2.022  14.813 -1.4153  0.4991  0.2289
  837TIP3    H223927   0.550   1.885  14.860 -1.9686  0.0557 -0.5569
  838TIP3   OH223928   5.951   2.410   5.890 -0.5248  0.0012 -0.3129
  838TIP3    H123929   5.989   2.403   5.978  1.2382  0.3456 -1.0092
  838TIP3    H223930   6.018   2.456   5.839 -0.3749 -2.4677 -2.4935
  839TIP3   OH223931   2.601   2.206   4.559  0.1462 -0.2977 -0.0574
  839TIP3    H123932   2.590   2.232   4.468  1.2634  0.4896  0.0108
  839TIP3    H223933   2.652   2.277   4.599  1.9119 -1.7960  0.5430
  840TIP3   OH223934   3.471   4.520   3.355  0.1179  0.0754 -0.7827
  840TIP3    H123935   3.428   4.461   3.293 -3.8848  1.6372  0.1793
  840TIP3    H223936   3.458   4.479   3.440 -0.6246  1.1322 -0.3622
  841TIP3   OH223937   3.018   4.699  16.265  0.2111 -0.7189  0.2846
  841TIP3    H123938   3.081   4.749  16.213  1.0896 -0.8746  1.1717
  841TIP3    H223939   2.939   4.755  16.267  1.0343  0.4709  0.9235
  842TIP3   OH223940   5.778   4.919  13.057  0.7832 -0.0710  0.1897
  842TIP3    H123941   5.744   4.919  13.146  1.7597 -0.6259  0.5820
  842TIP3    H223942   5.870   4.945  13.066  1.0355 -0.6169 -0.5901
  843TIP3   OH223943   4.224   1.533  16.911 -0.5633 -0.1886 -0.9878
  843TIP3    H123944   4.314   1.535  16.879 -0.7015 -0.4046 -1.4022
  843TIP3    H223945   4.197   1.441  16.901  0.2904 -0.9513  2.3116
  844TIP3   OH223946   1.912   4.873   4.700  0.5153 -0.3426  0.0813
  844TIP3    H123947   1.872   4.955   4.730 -0.0890 -0.6242  0.0447
  844TIP3    H223948   1.838   4.815   4.682  0.9507 -0.9916  0.3658
  845TIP3   OH223949   2.535   3.689  13.073  1.1828  0.5306 -0.1373
  845TIP3    H123950   2.571   3.747  13.006  2.8105 -0.1872  0.0584
  845TIP3    H223951   2.480   3.746  13.127  1.3303  1.5059 -0.9790
  846TIP3   OH223952   6.278   1.567  11.969  0.3902 -0.4614 -0.1593
  846TIP3    H123953   6.362   1.561  12.014  0.8830  0.6158 -0.9033
  846TIP3    H223954   6.220   1.613  12.030  1.2281  1.5491 -0.7839
  847TIP3   OH223955   5.538   4.370  15.650  0.2767 -0.2253  0.5904
  847TIP3    H123956   5.611   4.382  15.590  0.8070  2.9744  1.6970
  847TIP3    H223957   5.483   4.447  15.638 -0.6357 -0.4470  2.8120
  848TIP3   OH223958   5.843   6.354  12.057  0.1370 -0.6787 -0.1475
  848TIP3    H123959   5.804   6.374  12.141  1.2980  1.1692  0.0054
  848TIP3    H223960   5.915   6.294  12.077  1.9592  1.5920  0.5998
  849TIP3   OH223961   2.397   3.391  15.173 -0.0394  0.0808 -0.5463
  849TIP3    H123962   2.306   3.398  15.145 -0.4516 -1.5012  0.3422
  849TIP3    H223963   2.412   3.470  15.226 -1.2303 -0.1825  0.2100
  850TIP3   OH223964   0.506   3.486   1.358 -0.1803 -0.3815  0.0519
  850TIP3    H123965   0.513   3.580   1.344 -1.6602 -0.1804  0.4341
  850TIP3    H223966   0.569   3.467   1.427  0.4571  0.2395 -0.3462
  851TIP3   OH223967   5.535   2.242   0.291 -0.2365 -0.0978  0.1316
  851TIP3    H123968   5.497   2.193   0.365  0.2321 -1.2990 -0.4021
  851TIP3    H223969   5.553   2.175   0.225 -3.5114  1.2599 -2.3863
  852TIP3   OH223970   3.974   3.497   0.508 -0.2542 -0.6217 -0.5829
  852TIP3    H123971   4.025   3.545   0.573  1.4369 -0.9670 -1.6123
  852TIP3    H223972   3.883   3.504   0.540  0.4136 -0.1195  1.3635
  853TIP3   OH223973   5.993   3.233  11.830 -0.6046 -0.2780 -0.0854
  853TIP3    H123974   6.050   3.175  11.779 -0.3640 -0.5199  0.4563
  853TIP3    H223975   6.001   3.318  11.787 -1.5328 -0.7852 -1.3530
  854TIP3   OH223976   6.131   2.723  12.271 -0.1536 -0.6692  0.1356
  854TIP3    H123977   6.115   2.631  12.251  1.2093 -0.6653 -1.1007
  854TIP3    H223978   6.109   2.769  12.190  2.7732 -0.3379 -0.5525
  855TIP3   OH223979   5.480   2.392  12.828 -0.2116 -0.1607  0.1520
  855TIP3    H123980   5.454   2.391  12.920 -1.3796  1.2264 -0.1427
  855TIP3    H223981   5.526   2.309  12.816 -1.6315 -1.2072  1.5299
  856TIP3   OH223982   1.436   1.157   4.123 -0.1475  0.3519 -0.2140
  856TIP3    H123983   1.472   1.069   4.138  0.4562  0.5643 -0.3515
  856TIP3    H223984   1.472   1.182   4.037 -0.8972  0.4484 -0.5015
  857TIP3   OH223985   1.067   6.384   2.352 -0.0310 -0.3072  0.4805
  857TIP3    H123986   1.051   6.316   2.417 -4.4874  0.4215  0.4792
  857TIP3    H223987   1.056   6.340   2.268  0.2121 -0.1594  0.3682
  858TIP3   OH223988   5.980   5.969   1.742 -0.1120 -0.1722  0.1733
  858TIP3    H123989   5.989   5.950   1.649 -0.8115 -0.0294  0.0666
  858TIP3    H223990   6.055   5.927   1.783  0.2114 -0.2193 -0.4596
  859TIP3   OH223991   1.954   6.278   5.948 -0.0521 -0.0132 -0.1452
  859TIP3    H123992   2.022   6.217   5.977 -1.6315 -0.5030  2.8617
  859TIP3    H223993   1.964   6.354   6.004 -1.3528  0.3316 -0.3644
  860TIP3   OH223994   4.554   2.441  11.958 -0.4291 -0.5791  0.5576
  860TIP3    H123995   4.566   2.348  11.978  0.8200 -0.7564 -0.8914
  860TIP3    H223996   4.551   2.445  11.862  0.1599  0.9479  0.5794
  861TIP3   OH223997   4.679   1.081  14.730 -0.4550 -0.0902 -0.0128
  861TIP3    H123998   4.591   1.107  14.758 -1.2685 -1.2177 -1.4306
  861TIP3    H223999   4.725   1.063  14.812 -1.5587  0.4137  0.7513
  862TIP3   OH224000   2.299   5.165  11.539 -0.0487 -0.1819 -0.5133
  862TIP3    H124001   2.205   5.151  11.528 -0.1507  1.0064 -1.2634
  862TIP3    H224002   2.334   5.167  11.450  0.5566  0.2196 -0.2735
  863TIP3   OH224003   1.349   2.461  17.032 -0.2144  0.1727 -0.0040
  863TIP3    H124004   1.378   2.512  16.956 -1.2997  0.7019 -0.0890
  863TIP3    H224005   1.428   2.418  17.063  0.3859  0.4805 -1.0303
  864TIP3   OH224006   0.746   5.054  16.478  0.3428  0.6370 -1.0797
  864TIP3    H124007   0.784   5.100  16.404 -0.6808 -1.0482 -2.7380
  864TIP3    H224008   0.667   5.013  16.443  1.4810 -2.8950  0.0371
  865TIP3   OH224009   1.581   3.013  13.265  0.3376 -0.0213  0.2808
  865TIP3    H124010   1.515   2.944  13.264  0.3024  0.0097  0.5412
  865TIP3    H224011   1.624   3.005  13.180  1.4497 -1.4360  0.9258
  866TIP3   OH224012   1.387   6.482  12.488 -0.3146  0.3526  0.1247
  866TIP3    H124013   1.435   6.565  12.479  0.1499  0.6484  3.7443
  866TIP3    H224014   1.296   6.505  12.472  0.0960  0.9195 -1.6194
  867TIP3   OH224015   3.878   0.629  14.901 -0.5495  0.8477  0.1741
  867TIP3    H124016   3.957   0.682  14.895  0.2248 -0.2648  0.0788
  867TIP3    H224017   3.861   0.599  14.812  0.6719 -1.2933  0.5740
  868TIP3   OH224018   4.460   5.448  13.386 -0.0067  0.1838 -0.1753
  868TIP3    H124019   4.431   5.487  13.468 -0.6707 -0.1982 -0.2163
  868TIP3    H224020   4.423   5.360  13.387 -0.5632  0.3907 -1.1563
  869TIP3   OH224021   1.892   0.221   0.677  0.0291  0.0712  0.0284
  869TIP3    H124022   1.893   0.131   0.645 -0.2993 -0.5318  1.6420
  869TIP3    H224023   1.958   0.265   0.623  0.8693 -1.3488 -0.1767
  870TIP3   OH224024   1.152   1.866   1.066 -0.4169 -0.3772 -0.3956
  870TIP3    H124025   1.185   1.950   1.036  0.0174  0.2794  1.7479
  870TIP3    H224026   1.175   1.804   0.997  0.2270  1.0657 -1.4987
  871TIP3   OH224027   6.593   5.593  17.092  0.2023  0.2285 -0.1949
  871TIP3    H124028   6.601   5.651  17.168 -1.2344  0.5303 -0.2534
  871TIP3    H224029   6.602   5.651  17.016 -1.4383  0.4483 -0.2562
  872TIP3   OH224030   0.817   2.963   2.864  0.4063  0.1804 -0.3069
  872TIP3    H124031   0.895   3.010   2.893 -0.9291  1.4734  1.4097
  872TIP3    H224032   0.759   3.032   2.830 -0.2038 -0.6890 -1.1002
  873TIP3   OH224033   2.145   4.920  14.222  0.0966 -0.4125  0.0710
  873TIP3    H124034   2.200   4.994  14.197  0.0146  0.0635  1.2402
  873TIP3    H224035   2.204   4.845  14.219  0.2043 -0.3100 -1.0379
  874TIP3   OH224036   0.521   3.500  16.292 -0.7685  0.7148  0.2166
  874TIP3    H124037   0.518   3.453  16.376 -0.2964 -0.6786 -0.5186
  874TIP3    H224038   0.523   3.431  16.226 -3.7887  1.7722 -1.1154
  875TIP3   OH224039   5.293   4.277   1.278  0.6149 -0.5664  0.4997
  875TIP3    H124040   5.340   4.196   1.257  1.5822  0.4274 -1.3955
  875TIP3    H224041   5.360   4.345   1.274 -0.8223  0.8020 -1.5742
  876TIP3   OH224042   4.206   3.966   4.296 -0.1142  0.1183  0.2877
  876TIP3    H124043   4.218   4.059   4.314 -2.5701  0.8563 -1.3497
  876TIP3    H224044   4.237   3.955   4.206  0.2113 -0.6461  0.4933
  877TIP3   OH224045   2.727   6.186   2.798  0.5742  0.1755 -0.3897
  877TIP3    H124046   2.643   6.142   2.810  0.5611  0.6696  1.7293
  877TIP3    H224047   2.777   6.128   2.740 -0.0439 -1.8167  0.9561
  878TIP3   OH224048   3.264   1.594   3.677 -0.5271  0.2914 -0.4136
  878TIP3    H124049   3.225   1.599   3.765  1.0393 -5.7710  1.0619
  878TIP3    H224050   3.342   1.649   3.683 -0.7900  0.5464  1.7718
  879TIP3   OH224051   5.313   2.550  17.297  0.1344 -0.1285  0.1296
  879TIP3    H124052   5.290   2.599  17.218 -0.6606  0.2363  0.5775
  879TIP3    H224053   5.369   2.479  17.265 -1.9723 -1.3319 -1.0783
  880TIP3   OH224054   0.762   1.957   2.997  0.1753 -0.5367  0.2226
  880TIP3    H124055   0.730   1.918   3.079 -0.5212  1.2681  0.8905
  880TIP3    H224056   0.714   2.040   2.992  0.6741 -0.3387 -1.7238
  881TIP3   OH224057   3.924   5.666  13.884 -0.1321 -0.1856 -0.4779
  881TIP3    H124058   3.891   5.657  13.973  2.0432 -0.8875  0.3376
  881TIP3    H224059   3.895   5.753  13.855  1.2845  1.1772  1.9167
  882TIP3   OH224060   3.573   1.299   2.791  0.0930  0.3184 -0.3807
  882TIP3    H124061   3.517   1.363   2.833 -1.4911 -1.0786 -0.2675
  882TIP3    H224062   3.602   1.242   2.862  0.3515  0.0805 -0.6722
  883TIP3   OH224063   6.300   1.688  12.591 -0.2309  0.3562 -0.3493
  883TIP3    H124064   6.275   1.710  12.501  0.0987  3.1161  0.1270
  883TIP3    H224065   6.342   1.768  12.624  0.8277 -1.0118  1.8539
  884TIP3   OH224066   5.090   2.582   3.136 -0.0106  0.0092 -0.2421
  884TIP3    H124067   5.095   2.513   3.202 -1.6939 -1.0702 -1.1955
  884TIP3    H224068   5.005   2.570   3.094 -0.6228  2.9925 -0.1135
  885TIP3   OH224069   0.694   4.994  13.087  0.0012  0.5051 -0.3245
  885TIP3    H124070   0.777   5.040  13.091  0.2420  0.0202  0.4291
  885TIP3    H224071   0.665   5.005  12.996  2.0505 -1.3125 -1.2834
  886TIP3   OH224072   2.430   3.002   1.444  0.2044  0.3618  0.1980
  886TIP3    H124073   2.429   2.907   1.449  1.4285  0.1042 -2.4507
  886TIP3    H224074   2.366   3.023   1.376  0.4369  1.3811  0.2704
  887TIP3   OH224075   2.233   2.855  17.124  0.5152  0.1992  0.1556
  887TIP3    H124076   2.290   2.797  17.074  0.5079  1.4233 -1.3626
  887TIP3    H224077   2.290   2.890  17.193  1.2311  0.3570 -0.4995
  888TIP3   OH224078   3.351   0.156   4.892 -0.0723 -0.7877 -0.7409
  888TIP3    H124079   3.314   0.192   4.812  0.3010  0.8995 -0.2016
  888TIP3    H224080   3.296   0.192   4.962  1.9391  1.0577  0.0071
  889TIP3   OH224081   4.389   1.755   2.869 -0.6364 -0.0936 -0.2313
  889TIP3    H124082   4.351   1.669   2.850 -2.2121  0.8621 -1.8468
  889TIP3    H224083   4.314   1.815   2.864  0.6749  1.5735 -0.8662
  890TIP3   OH224084   3.665   2.918  16.548 -0.0306 -0.5387 -0.0588
  890TIP3    H124085   3.727   2.983  16.581  0.1739 -1.5475  1.6798
  890TIP3    H224086   3.718   2.857  16.497 -0.3054  0.8827 -2.1629
  891TIP3   OH224087   3.244   6.503  13.024  0.2397 -0.6117  0.1863
  891TIP3    H124088   3.253   6.482  13.117  0.5131 -0.6694  0.1454
  891TIP3    H224089   3.317   6.561  13.005 -0.4026  0.2290  0.2490
  892TIP3   OH224090   6.769   0.719   4.051 -0.8351  0.1519  0.1226
  892TIP3    H124091   6.850   0.763   4.026  1.4428 -3.5339  0.2795
  892TIP3    H224092   6.741   0.763   4.131  1.2158  1.2821  0.2827
  893TIP3   OH224093   5.234   4.020   4.236  0.0681 -0.6791  0.3194
  893TIP3    H124094   5.275   4.039   4.151 -0.6858 -0.2516  0.0383
  893TIP3    H224095   5.299   4.045   4.300  0.1455  0.2700 -0.1155
  894TIP3   OH224096   2.750   2.692   1.579 -0.0133 -0.0889  0.0310
  894TIP3    H124097   2.708   2.704   1.493 -1.4735 -0.2743  0.6946
  894TIP3    H224098   2.837   2.730   1.568 -0.3610  0.3768 -1.3811
  895TIP3   OH224099   5.226   5.879   5.711  0.3472 -0.5416 -0.3930
  895TIP3    H124100   5.269   5.928   5.781  0.4164  0.1638 -0.9182
  895TIP3    H224101   5.283   5.891   5.635  0.8914 -2.2683 -0.3014
  896TIP3   OH224102   6.222   4.756  15.549 -0.0259  0.3682  0.0091
  896TIP3    H124103   6.143   4.768  15.602  1.3832  1.1185  2.1061
  896TIP3    H224104   6.206   4.806  15.469 -1.6251  0.5817  0.4386
  897TIP3   OH224105   4.891   2.578  14.256 -0.1740  0.8315 -0.2974
  897TIP3    H124106   4.969   2.602  14.305 -0.0009  1.1930 -0.7388
  897TIP3    H224107   4.837   2.658  14.256 -0.1620  0.8407 -0.7077
  898TIP3   OH224108   3.236   0.863  12.522  0.0187 -0.1513  0.1195
  898TIP3    H124109   3.145   0.865  12.491 -0.4216  1.3467  1.3811
  898TIP3    H224110   3.247   0.774  12.557 -1.5376  0.1080  1.4296
  899TIP3   OH224111   3.062   3.087  13.672 -0.1083 -0.0499 -0.0885
  899TIP3    H124112   3.069   2.994  13.693 -0.4215  0.0900  0.6583
  899TIP3    H224113   3.082   3.132  13.754  1.4697  0.5914 -0.7765
  900TIP3   OH224114   6.478   4.871  10.877  0.6530 -0.4700  0.5126
  900TIP3    H124115   6.493   4.786  10.919 -2.6317 -0.1147  2.7394
  900TIP3    H224116   6.403   4.856  10.820  0.1819  0.8651  0.7495
  901TIP3   OH224117   0.393   2.066   4.087  0.6455  0.2739  0.1876
  901TIP3    H124118   0.402   2.139   4.026  2.2090 -0.8322 -0.9803
  901TIP3    H224119   0.444   1.996   4.048 -0.2160 -1.2325  1.6396
  902TIP3   OH224120   4.875   3.503  16.808  0.0571  0.1529 -0.4310
  902TIP3    H124121   4.877   3.497  16.712 -1.0997  1.2902 -0.5654
  902TIP3    H224122   4.967   3.508  16.834  0.4266 -1.1734 -1.3859
  903TIP3   OH224123   1.089   4.854   2.899  0.1926 -0.3211 -0.1752
  903TIP3    H124124   1.078   4.869   2.805  0.3819  0.6221 -0.0566
  903TIP3    H224125   1.001   4.834   2.931 -0.1163  0.7430 -0.3255
  904TIP3   OH224126   0.831   5.413  11.923 -0.7229  0.4185  0.2072
  904TIP3    H124127   0.820   5.506  11.905  0.3063  0.6384  0.6338
  904TIP3    H224128   0.775   5.397  11.999 -1.7772  0.4209 -0.5456
  905TIP3   OH224129   5.799   5.995   0.804 -0.8456  0.8101 -0.2467
  905TIP3    H124130   5.853   6.074   0.808 -0.3940  0.5086 -0.3061
  905TIP3    H224131   5.836   5.937   0.871  0.6994 -0.5038 -2.1186
  906TIP3   OH224132   3.478   5.962  14.349  0.5193  0.2881 -0.3783
  906TIP3    H124133   3.461   6.056  14.345  1.8795  0.5294 -1.1292
  906TIP3    H224134   3.517   5.941  14.264  1.1431 -0.7594  0.1474
  907TIP3   OH224135   2.999   5.664   5.193 -0.1048 -0.3798  0.3221
  907TIP3    H124136   2.923   5.632   5.145 -0.3490 -0.8025  0.9717
  907TIP3    H224137   2.985   5.633   5.283  0.7906 -0.3843  0.4658
  908TIP3   OH224138   4.209   4.613  13.726 -0.5228 -0.1215 -0.2898
  908TIP3    H124139   4.231   4.547  13.791 -0.3538 -0.0541 -0.2792
  908TIP3    H224140   4.127   4.582  13.687 -1.1960  0.3582  0.6843
  909TIP3   OH224141   3.428   2.932   6.019  0.6695 -0.1471  0.3939
  909TIP3    H124142   3.358   2.867   6.026  1.8854 -1.4547  0.9373
  909TIP3    H224143   3.469   2.933   6.106 -0.2505  2.4874  0.8652
  910TIP3   OH224144   0.210   4.076   5.900 -0.2762 -0.0623 -0.3123
  910TIP3    H124145   0.120   4.094   5.876  0.2418 -0.0445 -2.4289
  910TIP3    H224146   0.217   3.981   5.900 -0.1486 -0.0562 -0.8049
  911TIP3   OH224147   5.840   5.573  12.801 -0.0530 -0.4330 -0.0178
  911TIP3    H124148   5.864   5.663  12.779 -0.6017  0.1402  1.5577
  911TIP3    H224149   5.745   5.573  12.805 -0.0313 -0.8585  0.8165
  912TIP3   OH224150   2.316   6.733   0.096  0.1248 -0.0741 -0.2102
  912TIP3    H124151   2.237   6.762   0.049 -1.8861 -2.2152  1.5723
  912TIP3    H224152   2.311   6.637   0.094  0.0229 -0.3482  3.9753
  913TIP3   OH224153   6.209   6.126   4.956 -0.0525 -0.7234 -0.1534
  913TIP3    H124154   6.195   6.211   4.914 -0.6024 -0.3938  0.6617
  913TIP3    H224155   6.280   6.086   4.906  1.6072  1.0468  0.6770
  914TIP3   OH224156   5.803   3.737  14.056  0.1191 -0.3860 -0.3221
  914TIP3    H124157   5.740   3.696  14.115  1.2224  0.3759  1.4741
  914TIP3    H224158   5.876   3.761  14.112 -0.3790  3.9952 -1.2181
  915TIP3   OH224159   5.581   2.038  16.482 -0.0324  1.1247 -0.2146
  915TIP3    H124160   5.510   1.994  16.436  0.4983  0.9909 -0.9348
  915TIP3    H224161   5.619   1.970  16.538  0.0620  0.9658 -0.4683
  916TIP3   OH224162   6.395   0.087  12.169  0.0563  0.2454  0.3120
  916TIP3    H124163   6.414   0.015  12.228 -0.7950  0.2247  0.5709
  916TIP3    H224164   6.357   0.046  12.091  0.0442  0.3729  0.2490
  917TIP3   OH224165   0.858   1.541   0.203  0.4804  0.0851  0.1579
  917TIP3    H124166   0.866   1.636   0.203  1.6774  0.0105  0.7275
  917TIP3    H224167   0.869   1.516   0.295 -0.5893 -0.5578  0.1243
  918TIP3   OH224168   4.794   4.181  15.258 -0.0427  0.3169 -0.3131
  918TIP3    H124169   4.777   4.273  15.277 -0.6241  0.2576 -0.5175
  918TIP3    H224170   4.707   4.141  15.254  0.1741 -0.1231 -0.7967
  919TIP3   OH224171   5.335   2.933   5.139 -0.1609  0.2457  0.5190
  919TIP3    H124172   5.418   2.981   5.135  0.2333 -0.3988  0.7044
  919TIP3    H224173   5.304   2.947   5.229 -0.5131  0.8956  0.3048
  920TIP3   OH224174   1.917   6.725   0.624 -0.1517  0.0163 -0.7857
  920TIP3    H124175   1.890   6.695   0.711  1.5628 -1.4173 -0.6757
  920TIP3    H224176   1.987   6.664   0.599  0.5919  1.4655 -2.4329
  921TIP3   OH224177   2.761   2.069  16.625 -0.1447 -0.0608  0.3843
  921TIP3    H124178   2.800   2.103  16.545 -1.6681 -0.8394 -0.7431
  921TIP3    H224179   2.819   1.997  16.652  0.2929  0.1117 -0.1036
  922TIP3   OH224180   2.011   5.513  15.824 -0.5684 -0.1060  0.3391
  922TIP3    H124181   2.048   5.467  15.900  1.2434  1.0162  0.2015
  922TIP3    H224182   1.918   5.521  15.843 -0.6456 -2.2700  1.1542
  923TIP3   OH224183   0.951   5.080  14.077 -0.3611  0.2480 -0.2108
  923TIP3    H124184   0.869   5.030  14.080 -0.0957 -0.1597  0.6415
  923TIP3    H224185   0.925   5.171  14.087 -0.7311  0.1319 -0.1090
  924TIP3   OH224186   2.796   1.455   1.211 -0.0095 -0.4793  0.2763
  924TIP3    H124187   2.822   1.516   1.142 -1.1634 -0.1367  0.1208
  924TIP3    H224188   2.700   1.456   1.209 -0.2467  1.7889  3.7984
  925TIP3   OH224189   6.665   0.760   0.301  0.3412  0.0109  0.0000
  925TIP3    H124190   6.756   0.731   0.290  0.2287  0.1164 -1.3806
  925TIP3    H224191   6.662   0.845   0.259 -0.1720  0.4772  0.9494
  926TIP3   OH224192   0.610   5.760  11.648  0.3930  0.8408  0.5494
  926TIP3    H124193   0.582   5.851  11.640  0.0367  0.7262  0.4765
  926TIP3    H224194   0.682   5.752  11.585  0.8019  1.2176  0.9623
  927TIP3   OH224195   2.458   6.284   1.735  0.0484 -0.3324 -0.1352
  927TIP3    H124196   2.410   6.308   1.815  1.7915  1.3978  0.4513
  927TIP3    H224197   2.448   6.189   1.730  1.5897 -0.8547  3.3752
  928TIP3   OH224198   6.023   5.515   3.377 -0.0564  0.0228  0.3352
  928TIP3    H124199   5.981   5.554   3.300 -1.7481 -2.0275  0.1303
  928TIP3    H224200   5.956   5.516   3.445  1.2924  1.4608  1.7320
  929TIP3   OH224201   4.841   4.335   4.589 -0.2745 -0.1364  0.4282
  929TIP3    H124202   4.801   4.376   4.513  1.3490 -0.8042 -0.8345
  929TIP3    H224203   4.913   4.284   4.554  0.0967 -1.0274  2.3573
  930TIP3   OH224204   2.910   5.621   1.162  0.1617 -0.2509  0.5115
  930TIP3    H124205   2.859   5.625   1.081  0.8220 -0.0021  0.1089
  930TIP3    H224206   2.934   5.529   1.171  0.7241 -0.1557  0.0265
  931TIP3   OH224207   2.128   4.046  16.244 -0.5158  0.2848  0.1670
  931TIP3    H124208   2.172   4.107  16.303 -1.2950  0.2185  0.8292
  931TIP3    H224209   2.170   3.962  16.260  0.7198  0.6617 -0.9135
  932TIP3   OH224210   2.833   3.782  16.174 -0.0898  0.1944 -0.1444
  932TIP3    H124211   2.841   3.875  16.197 -2.0764  0.3153  0.2103
  932TIP3    H224212   2.903   3.739  16.223 -0.1443  1.2975  0.9518
  933TIP3   OH224213   2.079   0.671  11.730 -0.4092  0.0553 -0.7350
  933TIP3    H124214   2.070   0.751  11.678  0.8917  1.7651  1.4856
  933TIP3    H224215   2.172   0.650  11.727 -0.8687 -2.1579 -2.2223
  934TIP3   OH224216   4.819   0.622  10.620 -0.1167 -0.0239 -0.4720
  934TIP3    H124217   4.833   0.713  10.646 -1.1586 -1.0457  4.8271
  934TIP3    H224218   4.904   0.579  10.633 -0.1514 -0.2181 -0.8626
  935TIP3   OH224219   4.143   2.515  12.628 -0.7459  0.0563 -0.3142
  935TIP3    H124220   4.169   2.485  12.715  0.1830  1.1351 -0.1897
  935TIP3    H224221   4.093   2.595  12.644 -0.3819  0.3801 -0.7731
  936TIP3   OH224222   2.087   6.127   1.140  0.1147 -0.1932 -0.4896
  936TIP3    H124223   2.090   6.032   1.152  0.7282 -0.1367 -0.1696
  936TIP3    H224224   1.996   6.146   1.116 -0.0430 -0.8410 -0.4013
  937TIP3   OH224225   0.737   5.401   6.255  0.0778 -0.3936 -0.4843
  937TIP3    H124226   0.821   5.355   6.260  0.1173 -0.3221 -0.4985
  937TIP3    H224227   0.758   5.485   6.215 -0.0551 -0.5165 -0.8190
  938TIP3   OH224228   0.819   1.041  14.407 -0.9042 -0.3679 -0.3326
  938TIP3    H124229   0.747   1.088  14.449 -1.4601 -0.1071 -1.5346
  938TIP3    H224230   0.807   0.950  14.437 -0.0377  0.1259  1.7001
  939TIP3   OH224231   3.513   2.291   4.079 -0.5373  0.6055 -0.3875
  939TIP3    H124232   3.590   2.347   4.078  0.2872 -0.4813  0.6770
  939TIP3    H224233   3.506   2.259   3.989  0.5351  0.3378 -0.3886
  940TIP3   OH224234   4.742   0.199  11.523  0.0662 -0.0696  0.1085
  940TIP3    H124235   4.702   0.149  11.451 -0.5223  0.8064 -0.1892
  940TIP3    H224236   4.813   0.143  11.553  0.8933 -0.0859 -1.7339
  941TIP3   OH224237   2.653   6.463  10.607 -0.2021  0.2934 -0.0850
  941TIP3    H124238   2.628   6.516  10.531  0.1195  0.9528  0.2646
  941TIP3    H224239   2.692   6.384  10.569 -0.2765  0.5005 -0.6043
  942TIP3   OH224240   0.354   4.610  12.550 -0.1244 -0.2429 -0.1386
  942TIP3    H124241   0.438   4.588  12.592  0.3171 -0.7177 -1.2414
  942TIP3    H224242   0.289   4.598  12.620  0.5623 -1.2394  0.3500
  943TIP3   OH224243   0.298   5.386  15.203  0.1491  0.7625  0.4103
  943TIP3    H124244   0.305   5.478  15.178  0.9272  0.5688 -0.1331
  943TIP3    H224245   0.225   5.352  15.152  1.4795  0.4674 -1.3729
  944TIP3   OH224246   4.078   6.523   0.180  0.0127 -0.1337  0.3137
  944TIP3    H124247   4.126   6.521   0.263 -1.1236 -0.4067  0.9867
  944TIP3    H224248   4.102   6.441   0.136  1.5940  0.5741 -0.2306
  945TIP3   OH224249   1.191   0.359  14.471  0.0109 -0.3872 -0.4017
  945TIP3    H124250   1.211   0.266  14.486 -2.5025 -1.0966 -0.9568
  945TIP3    H224251   1.162   0.392  14.556  1.4894  0.0992 -0.0594
  946TIP3   OH224252   1.351   5.696  11.708  0.4503  0.4279 -0.1105
  946TIP3    H124253   1.409   5.628  11.742  1.1393  1.3061  0.4932
  946TIP3    H224254   1.335   5.754  11.782  0.4724  1.3433 -0.8014
  947TIP3   OH224255   5.582   3.889   5.899 -1.1283 -0.1636  0.0269
  947TIP3    H124256   5.580   3.854   5.988 -1.6477 -0.2903 -0.0310
  947TIP3    H224257   5.655   3.951   5.899  0.9452 -2.4595 -0.3382
  948TIP3   OH224258   1.602   1.855   2.165  0.0473 -0.4345  0.4968
  948TIP3    H124259   1.622   1.790   2.232  0.2833 -0.7410  0.1303
  948TIP3    H224260   1.512   1.881   2.183 -0.2685 -1.3386  0.2414
  949TIP3   OH224261   1.810   3.951  13.659  0.7807  0.4482 -0.3099
  949TIP3    H124262   1.739   3.977  13.718  1.1812  2.4393 -0.6186
  949TIP3    H224263   1.888   3.946  13.716  0.4146 -2.0404  0.0871
  950TIP3   OH224264   4.471   6.283  11.946 -0.2340 -0.4192  0.2323
  950TIP3    H124265   4.376   6.285  11.935 -0.2185 -0.9189  0.0079
  950TIP3    H224266   4.498   6.374  11.931 -0.4815 -0.5939 -1.4497
  951TIP3   OH224267   5.197   5.139  14.900  0.3086  0.3851  0.1966
  951TIP3    H124268   5.269   5.079  14.878 -0.1494 -1.3732  2.9123
  951TIP3    H224269   5.219   5.170  14.988 -1.9843  0.1250  0.9229
  952TIP3   OH224270   5.629   0.473  13.029 -0.1225 -0.1653  0.3070
  952TIP3    H124271   5.546   0.505  12.994 -1.1928 -2.0931  0.9069
  952TIP3    H224272   5.696   0.525  12.984 -1.6136  1.0272 -0.6439
  953TIP3   OH224273   0.038   3.195  13.818 -0.1686  0.7530 -0.3244
  953TIP3    H124274  -0.034   3.138  13.791 -1.5305  2.7008 -1.0599
  953TIP3    H224275   0.097   3.195  13.742 -0.6153  1.0017 -0.6796
  954TIP3   OH224276   6.081   2.154  11.753 -0.1716 -0.2895  0.1390
  954TIP3    H124277   6.082   2.069  11.709  0.9376  0.0574 -0.5407
  954TIP3    H224278   6.167   2.161  11.795 -0.2774  0.4666  0.2494
  955TIP3   OH224279   0.496   2.463  12.956  0.1249 -0.2949 -0.6986
  955TIP3    H124280   0.424   2.464  13.019  0.4085 -0.8355 -0.3561
  955TIP3    H224281   0.519   2.555  12.943  0.1822 -0.1908  0.1231
  956TIP3   OH224282   2.337   2.919   2.409 -0.5256  0.2783 -0.0705
  956TIP3    H124283   2.337   2.883   2.320 -0.8120 -1.2757  0.5384
  956TIP3    H224284   2.249   2.957   2.419 -0.8429 -0.4379 -0.1054
  957TIP3   OH224285   1.023   0.546  14.653  0.3640  0.4644  0.1525
  957TIP3    H124286   1.002   0.574  14.564  1.1396  0.6283  0.0188
  957TIP3    H224287   0.959   0.592  14.708 -0.3046  0.1375 -0.3368
  958TIP3   OH224288   1.434   6.208   3.657  0.3211 -0.1924 -0.3605
  958TIP3    H124289   1.458   6.285   3.708 -0.2188 -0.9844  1.1875
  958TIP3    H224290   1.517   6.169   3.631  0.7063 -0.6478  1.3747
  959TIP3   OH224291   2.716   4.811  15.047 -0.1353  0.3602  0.2276
  959TIP3    H124292   2.793   4.801  14.992 -0.9636  1.2971 -1.1673
  959TIP3    H224293   2.658   4.870  14.998 -1.6838 -0.2001  1.2848
  960TIP3   OH224294   0.576   1.638  14.820 -0.0099  0.2798  0.0316
  960TIP3    H124295   0.510   1.667  14.757 -0.3254 -1.4713 -0.4991
  960TIP3    H224296   0.657   1.630  14.768 -0.0273 -0.1907  0.0780
  961TIP3   OH224297   5.109   6.587   5.648 -0.6296 -0.1551  0.4758
  961TIP3    H124298   5.114   6.657   5.583  0.3775 -0.1320  0.5705
  961TIP3    H224299   5.074   6.512   5.599  0.3458 -0.2071 -0.1616
  962TIP3   OH224300   0.945   5.931  17.088 -0.4670 -0.1105  0.0858
  962TIP3    H124301   0.925   5.846  17.048 -0.7734 -0.4158  0.8627
  962TIP3    H224302   0.862   5.979  17.085 -0.2190  0.2792 -0.6256
  963TIP3   OH224303   3.510   4.245   3.796  0.2573 -0.0475  0.4693
  963TIP3    H124304   3.519   4.150   3.790 -0.1308 -0.1879  1.7201
  963TIP3    H224305   3.429   4.258   3.846 -0.6380  0.9858 -1.1595
  964TIP3   OH224306   5.452   5.326   2.308  0.9056  0.1711 -0.0720
  964TIP3    H124307   5.451   5.422   2.301 -1.4221  0.1811 -0.2855
  964TIP3    H224308   5.484   5.296   2.223  1.1919  0.7505 -0.1719
  965TIP3   OH224309   6.114   4.964  15.012 -0.0676 -0.1259 -0.8010
  965TIP3    H124310   6.042   5.001  14.960  0.5362  0.6967 -1.0769
  965TIP3    H224311   6.191   4.975  14.956  0.3959 -0.3217 -0.2072
  966TIP3   OH224312   2.129   0.178  11.554  0.2381  0.4505 -0.4961
  966TIP3    H124313   2.114   0.267  11.521 -2.6552  0.1104 -0.3886
  966TIP3    H224314   2.151   0.127  11.476 -1.3312  0.6720 -1.1189
  967TIP3   OH224315   6.049   6.375  17.195 -0.7032  0.0086  0.4180
  967TIP3    H124316   6.126   6.349  17.245 -2.0111 -1.5006  1.7642
  967TIP3    H224317   6.025   6.297  17.145 -1.5298  0.3560  0.2553
  968TIP3   OH224318   1.335   5.171   5.380  0.7300 -0.3433  0.4121
  968TIP3    H124319   1.367   5.122   5.456  2.0165  0.3694  0.3527
  968TIP3    H224320   1.308   5.102   5.318  0.0880 -0.9315  1.3196
  969TIP3   OH224321   6.487   5.318   2.373 -0.4112  0.6287 -0.3963
  969TIP3    H124322   6.440   5.265   2.437  2.0244  0.8039  1.7048
  969TIP3    H224323   6.440   5.402   2.372 -0.9746  0.3420  0.5813
  970TIP3   OH224324   4.144   1.039  11.472  0.0619  0.2168  0.2989
  970TIP3    H124325   4.100   1.102  11.414  0.4425  0.1630 -0.0507
  970TIP3    H224326   4.172   0.969  11.414 -2.5138 -1.5341  0.9913
  971TIP3   OH224327   1.964   1.009  15.997  0.5515  0.3320 -0.2733
  971TIP3    H124328   1.910   0.933  15.974  1.9458 -0.3782 -1.3935
  971TIP3    H224329   1.908   1.063  16.052 -0.7417 -1.1399 -0.0827
  972TIP3   OH224330   6.383   0.311  14.126 -0.0311 -0.2164  0.0884
  972TIP3    H124331   6.413   0.398  14.152  0.1450 -0.3534  0.3530
  972TIP3    H224332   6.301   0.298  14.173  0.3067 -0.4795  0.6148
  973TIP3   OH224333   2.564   1.892   3.347 -0.0019 -0.0209  0.9869
  973TIP3    H124334   2.503   1.954   3.307 -0.7733 -0.4630  1.4573
  973TIP3    H224335   2.552   1.812   3.297  0.2064 -0.1074  1.0742
  974TIP3   OH224336   1.245   0.044  16.142 -0.2191  0.3198 -0.3543
  974TIP3    H124337   1.248  -0.047  16.172  1.6934 -0.0402 -1.4485
  974TIP3    H224338   1.161   0.077  16.174 -0.0562 -1.1877  1.8598
  975TIP3   OH224339   6.583   5.734   4.396  0.0370 -0.1167 -0.1114
  975TIP3    H124340   6.659   5.792   4.388  0.2044 -0.3655 -0.3503
  975TIP3    H224341   6.614   5.663   4.452  0.3021 -0.7343 -1.0144
  976TIP3   OH224342   3.037   4.888   5.276  0.2822  0.4963 -0.2370
  976TIP3    H124343   2.972   4.824   5.247  0.4809  0.4329 -0.5481
  976TIP3    H224344   2.998   4.929   5.353 -0.0809  0.3847 -0.3608
  977TIP3   OH224345   5.639   5.710   1.037  0.6552  0.6637  0.1097
  977TIP3    H124346   5.598   5.624   1.050  1.0974  0.3690 -0.4306
  977TIP3    H224347   5.722   5.691   0.993  1.3544  1.2587  1.1250
  978TIP3   OH224348   5.820   0.069   4.850  0.0496 -0.2033 -0.3248
  978TIP3    H124349   5.871   0.041   4.926  1.8022 -0.3856 -1.5002
  978TIP3    H224350   5.836   0.163   4.843 -0.6005 -0.0697 -0.1444
  979TIP3   OH224351   3.053   3.925   5.147 -0.0415  0.1446 -0.0627
  979TIP3    H124352   3.118   3.884   5.089 -0.5127 -3.3447  1.5970
  979TIP3    H224353   2.988   3.962   5.087  1.4649  0.2530 -1.7342
  980TIP3   OH224354   5.757   1.664  13.045 -0.4518  0.3548  0.0323
  980TIP3    H124355   5.794   1.729  13.105 -0.2968  0.3036 -0.0073
  980TIP3    H224356   5.802   1.680  12.962 -1.3343  1.0475 -0.3323
  981TIP3   OH224357   1.773   1.619  14.665 -0.2884  0.2471  0.0442
  981TIP3    H124358   1.730   1.535  14.649  0.8405 -0.8326  2.2623
  981TIP3    H224359   1.860   1.610  14.626 -0.0995  0.3212  0.4469
  982TIP3   OH224360   1.207   5.584  15.445  0.5257 -0.0671 -0.0401
  982TIP3    H124361   1.225   5.548  15.532  1.9278 -1.1761 -0.7605
  982TIP3    H224362   1.128   5.637  15.458  1.2647  0.6414  2.1207
  983TIP3   OH224363   5.768   3.466  14.165 -0.3677 -0.0684  0.1825
  983TIP3    H124364   5.765   3.376  14.199  2.5461 -0.1491  0.4907
  983TIP3    H224365   5.754   3.457  14.071  0.5497 -0.9769  0.1068
  984TIP3   OH224366   5.342   5.726  13.389 -0.9250  0.4018  0.0349
  984TIP3    H124367   5.265   5.691  13.345 -0.5765 -0.2820 -0.0334
  984TIP3    H224368   5.373   5.795  13.330 -0.5012 -0.4580 -0.7739
  985TIP3   OH224369   2.144   0.081   3.444  0.0583  0.3039 -0.2926
  985TIP3    H124370   2.114   0.058   3.532  0.3546 -1.4892 -0.6056
  985TIP3    H224371   2.083   0.037   3.385 -1.1872  2.8991 -1.0643
  986TIP3   OH224372   4.692   4.776  13.137 -0.4537 -0.8261  0.1418
  986TIP3    H124373   4.702   4.806  13.046 -3.0519  0.5239  0.1970
  986TIP3    H224374   4.597   4.779  13.152 -0.2419 -2.7753  2.3568
  987TIP3   OH224375   2.367   5.090  14.118 -0.3537  0.4522  0.1837
  987TIP3    H124376   2.388   5.178  14.086 -0.9205  0.5003 -0.0727
  987TIP3    H224377   2.443   5.064  14.170  1.2148 -0.1345 -2.2039
  988TIP3   OH224378   0.284   1.719   1.161 -0.5147 -0.1798  0.2406
  988TIP3    H124379   0.336   1.638   1.159 -2.3808 -1.4287  0.0140
  988TIP3    H224380   0.221   1.709   1.089 -0.5949  1.6277  0.0152
  989TIP3   OH224381   4.810   5.287  14.212 -0.7064  0.5413  0.2816
  989TIP3    H124382   4.845   5.247  14.292  0.1631 -0.5011 -0.5867
  989TIP3    H224383   4.715   5.282  14.222 -0.6092 -0.2086  0.9586
  990TIP3   OH224384   3.118   0.346  16.065 -0.3988 -0.4201 -0.8813
  990TIP3    H124385   3.144   0.271  16.012 -1.7591  0.2423 -2.5408
  990TIP3    H224386   3.070   0.308  16.138 -0.4286 -1.2054 -1.3016
  991TIP3   OH224387   4.743   2.167  12.931 -0.0510  0.2048 -0.1829
  991TIP3    H124388   4.678   2.216  12.880 -0.9058  0.0238  0.6956
  991TIP3    H224389   4.699   2.085  12.952 -0.7604  1.2537  2.9681
  992TIP3   OH224390   0.282   1.442  10.700  0.1204  0.0391  0.1932
  992TIP3    H124391   0.315   1.410  10.616 -0.2963 -0.6540  0.2911
  992TIP3    H224392   0.241   1.366  10.741 -2.4063  1.0167 -0.3054
  993TIP3   OH224393   6.524   4.109   1.996  0.3336  0.1472  0.2940
  993TIP3    H124394   6.463   4.129   1.925 -1.3914 -1.1014  1.3363
  993TIP3    H224395   6.493   4.162   2.070  1.1244  0.2272  0.5828
  994TIP3   OH224396   4.481   2.375   0.347 -0.4886  0.0922 -0.2583
  994TIP3    H124397   4.495   2.470   0.345  0.7876 -0.0917 -0.6906
  994TIP3    H224398   4.566   2.337   0.327 -0.9496 -1.1614  0.0346
  995TIP3   OH224399   3.667   6.641   3.668 -0.0073 -0.2136  0.1895
  995TIP3    H124400   3.747   6.591   3.685  0.0422 -0.0492  0.4520
  995TIP3    H224401   3.657   6.697   3.745  0.6377  1.0976 -0.6473
  996TIP3   OH224402   5.797   3.001  12.884 -0.0582 -0.3290  0.0298
  996TIP3    H124403   5.867   3.066  12.888 -0.5510  0.2722 -0.8489
  996TIP3    H224404   5.817   2.949  12.806 -0.9351  0.2775 -0.6253
  997TIP3   OH224405   3.997   5.595   0.385 -0.6904  0.2386  0.1155
  997TIP3    H124406   3.943   5.614   0.309 -1.6505 -0.9425  0.4734
  997TIP3    H224407   4.056   5.526   0.357  0.7502  1.5581 -0.2906
  998TIP3   OH224408   5.346   1.533   5.196  0.2305  0.7026  0.0536
  998TIP3    H124409   5.433   1.571   5.201 -0.2962  1.8756  1.0223
  998TIP3    H224410   5.360   1.439   5.207  1.2991  0.9693  1.2521
  999TIP3   OH224411   3.337   5.457   3.041 -0.4367  1.0665 -0.5062
  999TIP3    H124412   3.376   5.516   2.975 -0.5817 -0.9709 -2.5618
  999TIP3    H224413   3.373   5.371   3.019  0.0208  0.3615  2.5820
 1000TIP3   OH224414   3.513   0.025   3.501  0.6971  0.2162  0.1215
 1000TIP3    H124415   3.454   0.086   3.546  0.4124  0.7353 -0.9395
 1000TIP3    H224416   3.551  -0.027   3.572 -0.7725  0.0887  0.8643
 1001TIP3   OH224417   2.954   4.609   1.907  0.4002 -0.0181 -0.0529
 1001TIP3    H124418   3.015   4.664   1.857 -0.8888  0.6797 -0.9036
 1001TIP3    H224419   2.975   4.520   1.880  1.4990  0.1397  0.2006
 1002TIP3   OH224420   5.252   5.811  14.884 -0.2669  0.0452  0.3037
 1002TIP3    H124421   5.206   5.771  14.811  0.8342  0.1136 -0.4425
 1002TIP3    H224422   5.230   5.756  14.959 -1.0782 -0.2580 -0.1399
 1003TIP3   OH224423   1.436   1.299  15.633  0.3653 -0.2217  0.0307
 1003TIP3    H124424   1.380   1.328  15.705 -0.9582 -0.6924 -0.7706
 1003TIP3    H224425   1.469   1.381  15.594  1.5170  0.0333  1.4338
 1004TIP3   OH224426   4.909   6.301   0.377 -0.5222  0.5920 -0.0148
 1004TIP3    H124427   4.963   6.349   0.315 -0.0530  1.3752  0.9779
 1004TIP3    H224428   4.827   6.350   0.381 -0.7133  0.3034 -0.3245
 1005TIP3   OH224429   4.716   5.998   0.558 -0.0656  0.0640 -0.0476
 1005TIP3    H124430   4.623   6.006   0.538 -0.1127  0.7530  0.3973
 1005TIP3    H224431   4.758   5.983   0.474 -0.6458 -0.9720 -0.1714
 1006TIP3   OH224432   4.704   4.729  16.996  0.4099 -0.7626 -0.2428
 1006TIP3    H124433   4.676   4.759  16.909  0.5368 -0.3807 -0.1511
 1006TIP3    H224434   4.754   4.649  16.978  1.7827  0.1531 -0.6838
 1007TIP3   OH224435   6.689   5.563   4.603 -0.1523  0.7514  0.2678
 1007TIP3    H124436   6.643   5.497   4.552  2.2092 -0.9681  0.2122
 1007TIP3    H224437   6.661   5.548   4.693  1.8622 -1.8323  0.5815
 1008TIP3   OH224438   3.635   4.989  12.657  0.0529  0.2973 -0.2807
 1008TIP3    H124439   3.562   5.047  12.635  0.1360  0.3754 -0.3466
 1008TIP3    H224440   3.593   4.912  12.696 -0.0628  0.3589 -0.2840
 1009TIP3   OH224441   4.888   5.400  12.600  0.1767  0.2043 -0.3768
 1009TIP3    H124442   4.952   5.329  12.599  0.0498  0.0863 -1.0306
 1009TIP3    H224443   4.941   5.480  12.602  0.3140  0.0946  0.7885
 1010TIP3   OH224444   4.052   6.498   0.952 -0.4658 -0.1475 -0.0737
 1010TIP3    H124445   4.082   6.588   0.937  0.4606 -0.4776 -0.2725
 1010TIP3    H224446   4.115   6.461   1.014 -1.0797 -0.5369  0.3346
 1011TIP3   OH224447   6.065   0.977   4.687  0.7054  0.1908 -0.0581
 1011TIP3    H124448   6.087   0.885   4.704 -0.1572  0.1157  0.7458
 1011TIP3    H224449   5.975   0.975   4.656  0.5118  0.8001  0.4344
 1012TIP3   OH224450   4.373   1.371  11.870 -0.1976 -0.1956  0.2442
 1012TIP3    H124451   4.417   1.455  11.881  2.7290 -1.6337  0.5933
 1012TIP3    H224452   4.361   1.362  11.776  0.1688  0.2790  0.1498
 1013TIP3   OH224453   4.623   1.606  14.548  0.5875  0.5052 -0.5599
 1013TIP3    H124454   4.699   1.663  14.543  1.6522 -0.9323 -1.7044
 1013TIP3    H224455   4.656   1.526  14.591 -0.8482  0.6845  0.9931
 1014TIP3   OH224456   2.987   1.577  15.104  0.0273  0.3440  0.6479
 1014TIP3    H124457   2.929   1.590  15.179 -1.4570  1.1509 -0.5917
 1014TIP3    H224458   3.004   1.665  15.072 -1.6592 -0.0665 -1.6169
 1015TIP3   OH224459   3.525   1.476   0.984 -0.8750 -0.3365 -0.0483
 1015TIP3    H124460   3.567   1.391   0.996  0.9036  0.5371  0.3837
 1015TIP3    H224461   3.468   1.465   0.908 -2.0047 -2.3475  1.0197
 1016TIP3   OH224462   1.491   0.373  13.022 -0.6980 -0.3567  0.1921
 1016TIP3    H124463   1.517   0.284  12.996 -0.7959 -0.6609  1.0905
 1016TIP3    H224464   1.573   0.417  13.043 -0.6244 -0.1309 -0.5687
 1017TIP3   OH224465   2.416   0.911  15.092 -0.2784 -0.0421 -0.6344
 1017TIP3    H124466   2.481   0.980  15.080  1.8224 -1.5644  1.1374
 1017TIP3    H224467   2.460   0.831  15.064 -0.8462 -1.3155  1.8019
 1018TIP3   OH224468   3.045   4.625  14.123  0.0207 -0.1326  0.1748
 1018TIP3    H124469   3.079   4.608  14.035  1.8449 -2.9390  1.3055
 1018TIP3    H224470   3.114   4.676  14.166  1.0963 -2.2890  1.1710
 1019TIP3   OH224471   2.818   2.032  10.735 -1.1577  0.4715 -0.1961
 1019TIP3    H124472   2.741   2.003  10.783 -0.5241 -0.2194  0.4341
 1019TIP3    H224473   2.890   1.979  10.771 -0.7587 -0.5670 -2.3581
 1020TIP3   OH224474   1.770   5.337   4.356  0.6934  0.0268  0.1934
 1020TIP3    H124475   1.825   5.340   4.278  0.0773  0.3121 -0.2320
 1020TIP3    H224476   1.781   5.248   4.389 -0.4771 -0.6876 -1.2590
 1021TIP3   OH224477   4.000   4.785  14.636  0.5727 -1.2127  0.3380
 1021TIP3    H124478   4.072   4.775  14.698 -0.5049  0.2321  1.9109
 1021TIP3    H224479   4.008   4.875  14.604 -1.8410 -0.1437  2.3990
 1022TIP3   OH224480   2.711   2.574  12.938  0.2272  0.3019  0.2355
 1022TIP3    H124481   2.767   2.608  13.008 -0.8229  1.4212  0.5735
 1022TIP3    H224482   2.726   2.634  12.865 -0.2243  0.3664  0.1954
 1023TIP3   OH224483   3.986   4.636   3.561 -0.1966 -0.0832 -0.0463
 1023TIP3    H124484   3.893   4.625   3.581 -0.2316 -0.2297 -0.2902
 1023TIP3    H224485   4.028   4.649   3.646 -0.5985  1.1416 -0.0134
 1024TIP3   OH224486   6.344   5.164   1.787  0.0244  0.1578 -0.1686
 1024TIP3    H124487   6.293   5.189   1.864  0.5652 -0.1587  0.3016
 1024TIP3    H224488   6.340   5.068   1.786  0.1640  0.1544 -0.4357
 1025TIP3   OH224489   5.543   4.824   0.579 -0.0612  0.2059 -0.0458
 1025TIP3    H124490   5.534   4.743   0.528  0.3222  0.2552 -0.1921
 1025TIP3    H224491   5.598   4.881   0.525  0.3856  0.2425  0.4425
 1026TIP3   OH224492   3.601   3.455  14.547 -0.4940  0.4298 -0.2969
 1026TIP3    H124493   3.689   3.469  14.513 -0.5758  1.5019 -0.0789
 1026TIP3    H224494   3.557   3.405  14.479  0.9825 -2.3669  0.5967
 1027TIP3   OH224495   6.429   2.805   6.337  0.0335 -0.1977 -0.0196
 1027TIP3    H124496   6.495   2.852   6.389 -0.9435  0.9306  0.2524
 1027TIP3    H224497   6.440   2.713   6.362 -1.5423  0.4042  3.7012
 1028TIP3   OH224498   2.209   1.779   5.038 -0.1625 -0.3151  0.6160
 1028TIP3    H124499   2.165   1.732   4.967  0.8499 -1.0732  0.4804
 1028TIP3    H224500   2.161   1.862   5.044  0.2996  0.1921 -1.5944
 1029TIP3   OH224501   1.888   3.383  14.562  0.0293  0.0936 -0.2918
 1029TIP3    H124502   1.981   3.362  14.556  0.3840  0.1245  3.3466
 1029TIP3    H224503   1.858   3.342  14.642 -2.3086  2.7852  0.4088
 1030TIP3   OH224504   2.900   1.959  13.332 -0.3356  0.0533 -0.1417
 1030TIP3    H124505   2.845   2.017  13.385  1.0985  0.6954  0.7066
 1030TIP3    H224506   2.864   1.967  13.244 -1.6726  0.3445  0.4021
 1031TIP3   OH224507   3.557   0.722   3.018  0.5896  0.1210 -0.5521
 1031TIP3    H124508   3.483   0.661   3.013  0.5623  0.1414 -0.3756
 1031TIP3    H224509   3.630   0.670   3.051  0.5112  0.2343 -0.1950
 1032TIP3   OH224510   6.312   5.893   3.528  0.0955  0.2763  0.3314
 1032TIP3    H124511   6.355   5.979   3.532 -0.1503  0.3810  0.7996
 1032TIP3    H224512   6.373   5.838   3.480 -0.2088  0.9912 -0.9332
 1033TIP3   OH224513   3.358   2.836  11.422  0.7589  0.4693  0.2327
 1033TIP3    H124514   3.297   2.832  11.349 -0.0070  1.0334  0.8192
 1033TIP3    H224515   3.351   2.927  11.453  1.5772  0.4212  0.5751
 1034TIP3   OH224516   0.057   2.686  15.213 -0.3106 -0.3401  0.2677
 1034TIP3    H124517   0.075   2.756  15.150 -2.3150  1.5092  1.5811
 1034TIP3    H224518  -0.005   2.628  15.169 -0.4163  0.0116 -0.0446
 1035TIP3   OH224519   1.612   1.060   1.226 -0.2776 -0.3406 -0.7578
 1035TIP3    H124520   1.640   0.972   1.251  0.4184 -0.4890 -2.0088
 1035TIP3    H224521   1.635   1.115   1.301 -1.0741 -1.2735  0.1968
 1036TIP3   OH224522   0.275   1.443   1.656  0.1465  0.1917  0.2451
 1036TIP3    H124523   0.206   1.389   1.694 -0.3584 -0.5858 -1.6282
 1036TIP3    H224524   0.273   1.524   1.707 -2.3830  0.3329  0.0645
 1037TIP3   OH224525   4.523   6.012  15.225 -0.2394 -0.2988 -0.1700
 1037TIP3    H124526   4.465   6.022  15.300 -3.1020 -1.6577 -2.0360
 1037TIP3    H224527   4.570   5.930  15.242 -1.3452 -0.9434 -0.1065
 1038TIP3   OH224528   4.737   5.282  12.859 -0.1306 -0.3973  0.5400
 1038TIP3    H124529   4.691   5.283  12.943  0.9096 -2.4010  1.1973
 1038TIP3    H224530   4.817   5.233  12.876  1.4154  1.4497 -1.0106
 1039TIP3   OH224531   6.443   1.255  16.588  0.1038  0.4682  0.0414
 1039TIP3    H124532   6.476   1.343  16.572 -0.5653  0.5064 -1.2604
 1039TIP3    H224533   6.503   1.197  16.540  1.2920  0.0608  1.9055
 1040TIP3   OH224534   1.091   4.528  13.175 -0.6312  0.0525 -0.1104
 1040TIP3    H124535   0.998   4.506  13.182 -0.6696  0.3849  0.5686
 1040TIP3    H224536   1.099   4.610  13.224 -0.2443  0.8144 -1.4226
 1041TIP3   OH224537   1.787   1.550   5.596  0.0709 -0.7970 -0.0808
 1041TIP3    H124538   1.694   1.555   5.572  0.2072  0.9413 -0.3775
 1041TIP3    H224539   1.789   1.569   5.689  0.0604 -1.9157  0.1666
 1042TIP3   OH224540   6.145   2.687   3.291  0.2041 -0.1088 -0.5482
 1042TIP3    H124541   6.163   2.700   3.197 -0.0739 -1.8798 -0.8901
 1042TIP3    H224542   6.151   2.774   3.329 -1.0106  0.8721 -2.4458
 1043TIP3   OH224543   1.372   0.783   5.727  0.0990  0.4411  0.0662
 1043TIP3    H124544   1.389   0.720   5.656 -1.9166  1.0693 -1.0661
 1043TIP3    H224545   1.360   0.730   5.805 -0.6722 -0.5250 -0.6928
 1044TIP3   OH224546   0.099   0.650   3.041  0.3575 -0.2109 -0.1713
 1044TIP3    H124547   0.122   0.637   3.133  0.3033  0.1611 -0.1027
 1044TIP3    H224548   0.008   0.681   3.043  1.3879  3.1171 -0.1134
 1045TIP3   OH224549   2.408   5.826   4.247 -0.0810 -0.2174  0.2054
 1045TIP3    H124550   2.442   5.753   4.195  2.3912  1.0063 -0.0607
 1045TIP3    H224551   2.328   5.792   4.287  0.3432 -2.6631 -0.8484
 1046TIP3   OH224552   3.696   0.398  14.900  0.1855  0.3865  0.3094
 1046TIP3    H124553   3.609   0.406  14.940 -0.2854  1.9049 -0.9131
 1046TIP3    H224554   3.718   0.487  14.874  0.9293 -0.3765 -1.8288
 1047TIP3   OH224555   2.724   5.391   2.238 -0.2525  0.0508 -0.3853
 1047TIP3    H124556   2.688   5.479   2.241 -0.9151 -0.2130 -0.4695
 1047TIP3    H224557   2.680   5.344   2.309  0.5684 -0.0375  0.0744
 1048TIP3   OH224558   2.960   0.621  15.190  0.5610  0.1314 -0.3762
 1048TIP3    H124559   2.980   0.536  15.228  0.4833  0.0396 -0.5358
 1048TIP3    H224560   2.875   0.645  15.227  0.5897  0.1461 -0.3202
 1049TIP3   OH224561   4.216   6.275  12.559 -0.5455  0.1202  0.2909
 1049TIP3    H124562   4.260   6.239  12.483 -2.2702 -0.4644 -0.4733
 1049TIP3    H224563   4.225   6.370  12.550 -3.7500  0.3557 -2.7106
 1050TIP3   OH224564   5.018   4.655   0.544 -0.5544  0.4487  0.9880
 1050TIP3    H124565   4.964   4.712   0.490  2.4144  1.5997 -1.0589
 1050TIP3    H224566   5.071   4.714   0.597  1.1325 -0.3648  0.3255
 1051TIP3   OH224567   0.701   5.966  13.435 -0.5185 -0.5443 -0.5032
 1051TIP3    H124568   0.635   5.962  13.365 -2.6143 -1.3054  1.4084
 1051TIP3    H224569   0.667   5.908  13.503  2.5780 -1.6393  0.2621
 1052TIP3   OH224570   5.101   5.984  11.951 -0.1698  0.1451 -0.1864
 1052TIP3    H124571   5.192   5.994  11.922  0.0507  1.3840  0.8651
 1052TIP3    H224572   5.051   6.043  11.893 -0.2965 -0.3995 -0.6450
 1053TIP3   OH224573   2.954   4.123   2.282  0.0005  0.3085  0.4131
 1053TIP3    H124574   2.952   4.068   2.204  1.2951  1.0111 -0.1517
 1053TIP3    H224575   3.042   4.162   2.282 -1.0833  2.9900  0.3678
 1054TIP3   OH224576   1.826   0.641   6.399  0.0113  0.8971  0.7483
 1054TIP3    H124577   1.889   0.585   6.443 -0.4303  0.2647  0.5932
 1054TIP3    H224578   1.868   0.727   6.396  2.1796 -0.1115 -1.9849
 1055TIP3   OH224579   6.742   3.144  14.209  0.1840  0.0625  0.1018
 1055TIP3    H124580   6.785   3.061  14.187  0.9384  0.5670 -0.3285
 1055TIP3    H224581   6.743   3.194  14.128 -0.5806  0.3739  0.2718
 1056TIP3   OH224582   3.658   4.926   3.487 -0.0523 -0.6466 -0.0932
 1056TIP3    H124583   3.708   4.918   3.406 -1.4988 -0.8045 -1.0085
 1056TIP3    H224584   3.655   4.837   3.523  0.0791 -0.6853 -0.1779
 1057TIP3   OH224585   3.510   6.611   3.007 -0.2336 -0.0780  0.1033
 1057TIP3    H124586   3.471   6.698   3.016  0.7774  0.2781  1.3058
 1057TIP3    H224587   3.501   6.571   3.093  0.6373 -0.5822 -0.0234
 1058TIP3   OH224588   5.654   1.208  15.668  0.0677  0.3386 -0.4404
 1058TIP3    H124589   5.726   1.151  15.641  0.1084  0.5135 -0.7085
 1058TIP3    H224590   5.690   1.297  15.659 -0.0385  0.4097 -0.1570
 1059TIP3   OH224591   4.484   5.037   5.358 -0.2228  0.3458 -0.6464
 1059TIP3    H124592   4.464   4.949   5.389 -0.9592  1.2556  1.6601
 1059TIP3    H224593   4.520   5.082   5.434  3.2521  1.1956 -2.5400
 1060TIP3   OH224594   1.375   1.516   0.655  0.0719  0.5423 -0.2110
 1060TIP3    H124595   1.310   1.496   0.588  0.1422 -0.3582 -0.0270
 1060TIP3    H224596   1.449   1.459   0.634  0.9277  1.7625 -0.5882
 1061TIP3   OH224597   1.418   1.225   4.761 -0.7069  0.0081 -0.2330
 1061TIP3    H124598   1.464   1.288   4.818  0.6756 -0.9605 -0.2211
 1061TIP3    H224599   1.450   1.140   4.790  0.8840 -0.4981 -3.1041
 1062TIP3   OH224600   5.008   4.128  14.573 -0.4095  0.2066  0.3391
 1062TIP3    H124601   5.011   4.055  14.635  0.2226  1.3932  1.7783
 1062TIP3    H224602   4.915   4.145  14.559 -0.5578 -0.3910  0.5738
 1063TIP3   OH224603   2.923   5.045   0.908 -0.1460 -0.0082 -0.2695
 1063TIP3    H124604   2.889   4.958   0.885  1.2012 -0.1881 -1.6859
 1063TIP3    H224605   2.948   5.084   0.825 -0.9369  1.8666  0.3206
 1064TIP3   OH224606   5.648   6.260   3.398  0.3994  0.3268  0.0952
 1064TIP3    H124607   5.736   6.279   3.430  0.6653 -1.3298  0.4542
 1064TIP3    H224608   5.591   6.273   3.474  0.6060 -0.4781  0.3960
 1065TIP3   OH224609   1.139   4.351   1.675  0.2160 -0.4240 -0.1685
 1065TIP3    H124610   1.221   4.392   1.702  0.4412  0.3057 -1.8020
 1065TIP3    H224611   1.076   4.376   1.742  0.8278  0.9236 -0.0582
 1066TIP3   OH224612   2.602   0.051  16.006  0.3540 -0.0224 -0.1621
 1066TIP3    H124613   2.639  -0.023  15.958  0.7598 -1.4374  2.1432
 1066TIP3    H224614   2.507   0.039  15.997  0.4205 -0.1420 -0.7659
 1067TIP3   OH224615   3.661   2.607   6.419 -0.0589 -0.2834  0.1944
 1067TIP3    H124616   3.683   2.699   6.434  0.8323 -0.3196 -0.8086
 1067TIP3    H224617   3.745   2.562   6.412 -0.4332 -0.8075 -1.4475
 1068TIP3   OH224618   5.742   6.378   4.083  0.2185 -0.1253  0.1305
 1068TIP3    H124619   5.757   6.329   4.164  0.2941 -1.1228 -0.4695
 1068TIP3    H224620   5.648   6.395   4.082  0.0848 -0.8315  0.0417
 1069TIP3   OH224621   6.713   4.889  13.530  0.0862 -0.4488 -0.4424
 1069TIP3    H124622   6.774   4.956  13.500  0.7771 -1.3300 -1.0649
 1069TIP3    H224623   6.728   4.883  13.625  0.6641 -0.3561 -0.5269
 1070TIP3   OH224624   2.597   4.921  15.304  0.0021  0.4592 -0.3804
 1070TIP3    H124625   2.554   5.004  15.286 -1.5201  0.1880  1.6813
 1070TIP3    H224626   2.551   4.886  15.380  1.6030 -1.5593 -0.2578
 1071TIP3   OH224627   5.797   5.943  11.368 -0.2144  0.6889 -0.2106
 1071TIP3    H124628   5.826   5.889  11.294 -1.4553  0.9201 -0.8910
 1071TIP3    H224629   5.854   5.917  11.440  0.3270 -0.3089 -0.9709
 1072TIP3   OH224630   4.215   3.608  16.919 -0.1530  0.2593 -0.0033
 1072TIP3    H124631   4.294   3.627  16.970  1.0315 -1.3993 -1.1296
 1072TIP3    H224632   4.247   3.572  16.836 -2.0516 -2.1486  0.1659
 1073TIP3   OH224633   1.381   3.664   3.710 -0.5049  0.0205  0.0151
 1073TIP3    H124634   1.452   3.611   3.674 -0.1761  0.1354  0.4937
 1073TIP3    H224635   1.333   3.604   3.767  0.0879  0.3231  0.8505
 1074TIP3   OH224636   6.468   6.552   2.994 -0.7522  0.3649  0.6827
 1074TIP3    H124637   6.422   6.493   3.054 -1.4247 -0.6330 -0.7532
 1074TIP3    H224638   6.526   6.494   2.944 -1.6857  0.8317 -1.0022
 1075TIP3   OH224639   5.890   6.070   4.158  0.0378 -0.0282  0.4246
 1075TIP3    H124640   5.797   6.050   4.144  0.3158 -1.0735  0.0065
 1075TIP3    H224641   5.890   6.130   4.233 -1.0557  0.9724 -0.3199
 1076TIP3   OH224642   1.464   2.531   4.040  0.3884 -0.1315  0.1036
 1076TIP3    H124643   1.486   2.623   4.050 -0.1642 -0.0636  0.7309
 1076TIP3    H224644   1.536   2.484   4.082 -0.3854  0.0782  1.7175
 1077TIP3   OH224645   3.359   1.545   2.402  0.0913  0.0115 -0.4983
 1077TIP3    H124646   3.372   1.480   2.333  0.8633  1.0270 -1.3644
 1077TIP3    H224647   3.265   1.541   2.421  0.0300 -0.9465 -0.9380
 1078TIP3   OH224648   0.054   2.180   4.375  0.3894 -0.4497 -0.4239
 1078TIP3    H124649   0.127   2.123   4.351  3.1214  2.6736 -0.3025
 1078TIP3    H224650   0.012   2.203   4.292  1.3168 -0.1772 -0.8309
 1079TIP3   OH224651   5.900   0.444   4.977  0.2388  0.2054 -0.0443
 1079TIP3    H124652   5.933   0.415   5.063  1.2782 -0.6934 -0.7231
 1079TIP3    H224653   5.864   0.531   4.994 -0.8111 -0.4929  1.5797
 1080TIP3   OH224654   4.665   2.470  12.610  0.0993  0.2460 -0.0518
 1080TIP3    H124655   4.741   2.451  12.556  2.3073  2.7938  1.8804
 1080TIP3    H224656   4.668   2.405  12.681 -0.4802 -0.6142 -0.7967
 1081TIP3   OH224657   3.166   4.346  14.638 -0.0893  0.1286 -0.2746
 1081TIP3    H124658   3.200   4.333  14.726 -0.1581  0.0243 -0.2623
 1081TIP3    H224659   3.199   4.432  14.611  2.1777 -0.9286 -1.1694
 1082TIP3   OH224660   2.930   3.391   2.689  0.0789 -0.1394  0.1388
 1082TIP3    H124661   3.025   3.380   2.682  0.3473  2.0767 -0.1669
 1082TIP3    H224662   2.896   3.364   2.604  0.6742  1.1887 -0.5370
 1083TIP3   OH224663   3.333   2.876   0.906 -0.4308 -0.1919  0.0040
 1083TIP3    H124664   3.262   2.836   0.956 -0.9853  0.2638 -0.3936
 1083TIP3    H224665   3.288   2.926   0.837  0.3063 -2.3062 -2.1602
 1084TIP3   OH224666   1.600   4.897  15.128 -0.4073  0.5286  0.6339
 1084TIP3    H124667   1.533   4.892  15.196 -0.3834  1.2314  0.7161
 1084TIP3    H224668   1.599   4.810  15.087 -1.8953  0.7379  0.1427
 1085TIP3   OH224669   0.065   3.531   5.406  0.0082 -0.0289 -0.0736
 1085TIP3    H124670   0.155   3.504   5.426  0.1814 -0.2207 -1.0408
 1085TIP3    H224671   0.065   3.543   5.311 -0.7805  0.7633  0.0184
 1086TIP3   OH224672   4.569   6.539  16.124 -0.2873  0.8159  0.5157
 1086TIP3    H124673   4.477   6.557  16.138 -0.8003  1.5043 -2.9063
 1086TIP3    H224674   4.615   6.616  16.157 -1.1536  1.5230  0.0787
 1087TIP3   OH224675   0.572   5.160  15.179  0.6117  0.6354  0.3388
 1087TIP3    H124676   0.511   5.119  15.118  0.5160 -2.0435  2.0831
 1087TIP3    H224677   0.518   5.185  15.254  1.4671 -1.0301  1.5631
 1088TIP3   OH224678   0.601   0.222   4.454 -0.1442  0.5216 -0.4581
 1088TIP3    H124679   0.575   0.267   4.373  2.0707  2.3041 -0.2685
 1088TIP3    H224680   0.632   0.292   4.511  1.4970 -1.0310  0.6528
 1089TIP3   OH224681   6.461   3.525   0.416  0.1203 -0.5720  0.1649
 1089TIP3    H124682   6.420   3.463   0.355  0.2710 -0.6344  0.1279
 1089TIP3    H224683   6.435   3.611   0.383 -1.5258 -0.6191  1.1821
 1090TIP3   OH224684   3.884   2.441   6.348 -0.0842  0.1777  0.3854
 1090TIP3    H124685   3.902   2.348   6.335 -1.0394 -0.2310  1.7374
 1090TIP3    H224686   3.850   2.471   6.264  0.8158 -0.5204 -0.2570
 1091TIP3   OH224687   6.166   5.265   5.333  0.0088 -0.5364  0.3299
 1091TIP3    H124688   6.226   5.330   5.370 -0.8532  0.2849  0.3345
 1091TIP3    H224689   6.105   5.245   5.404 -2.0976  1.5819 -0.7178
 1092TIP3   OH224690   5.152   2.320   3.913  0.0979 -0.5408  0.2280
 1092TIP3    H124691   5.158   2.339   3.820  0.8075 -1.2009  0.1277
 1092TIP3    H224692   5.187   2.231   3.922  1.6113  0.1126  1.3372
 1093TIP3   OH224693   2.295   2.886  15.314 -0.1320  0.0320  0.2813
 1093TIP3    H124694   2.357   2.821  15.349 -0.1270  0.3342  0.8385
 1093TIP3    H224695   2.349   2.942  15.258 -0.0777 -0.2572  0.0406
 1094TIP3   OH224696   4.545   0.520   1.996  0.0684 -0.0976  0.3088
 1094TIP3    H124697   4.462   0.522   2.045 -0.2791 -0.9161 -0.2308
 1094TIP3    H224698   4.521   0.486   1.910  0.6279  1.5560 -0.5350
 1095TIP3   OH224699   3.929   5.789   0.567  0.0303  0.3671  0.9337
 1095TIP3    H124700   3.957   5.719   0.507  0.5917  0.5206  1.0072
 1095TIP3    H224701   3.837   5.770   0.584  0.4200 -0.9283  1.7426
 1096TIP3   OH224702   4.813   0.278  11.068  0.1272  0.2227  0.3742
 1096TIP3    H124703   4.729   0.281  11.023 -0.9571  3.9526  2.2351
 1096TIP3    H224704   4.865   0.348  11.027 -0.2283  2.4695  3.4198
 1097TIP3   OH224705   6.670   1.732  14.663  0.4718 -0.2268 -0.1056
 1097TIP3    H124706   6.696   1.695  14.579 -1.2720 -0.6839 -0.4791
 1097TIP3    H224707   6.726   1.688  14.727 -2.3259 -4.6744 -0.3464
 1098TIP3   OH224708   1.013   1.912  14.991 -0.0048  0.5497  0.6392
 1098TIP3    H124709   0.968   1.833  15.023 -1.0420  1.4794  1.5314
 1098TIP3    H224710   1.085   1.925  15.053 -0.4241  0.8490  1.0706
 1099TIP3   OH224711   3.174   2.818   5.880 -0.1744 -0.0483 -0.1522
 1099TIP3    H124712   3.255   2.828   5.829 -1.2101  0.1136 -1.8273
 1099TIP3    H224713   3.108   2.865   5.830 -1.3513 -0.2889  1.1215
 1100TIP3   OH224714   3.749   5.731  14.697 -0.3236 -0.0887  0.3176
 1100TIP3    H124715   3.818   5.730  14.763 -1.9476 -0.0039  2.1049
 1100TIP3    H224716   3.724   5.824  14.690 -1.4788 -0.3198  1.0852
 1101TIP3   OH224717   6.517   1.030  15.926 -0.3779 -0.0463 -0.4430
 1101TIP3    H124718   6.581   0.971  15.887 -0.7365 -1.1084  0.5271
 1101TIP3    H224719   6.447   0.972  15.958 -1.9337  1.0762 -1.6172
 1102TIP3   OH224720   1.112   2.104  12.357 -0.2269  0.8294  0.4558
 1102TIP3    H124721   1.168   2.095  12.434  0.7802 -1.1667 -0.4512
 1102TIP3    H224722   1.026   2.072  12.385  0.1570  0.0385  0.7316
 1103TIP3   OH224723   5.053   5.047   1.139 -0.5007 -0.2543 -0.4925
 1103TIP3    H124724   5.068   4.967   1.189 -1.6385  0.3260  0.8249
 1103TIP3    H224725   5.090   5.117   1.194 -0.0789  0.2164 -1.3401
 1104TIP3   OH224726   2.713   3.106  16.097  0.4979 -0.0391 -0.1877
 1104TIP3    H124727   2.700   3.105  16.002  1.7851  1.5087 -0.4319
 1104TIP3    H224728   2.800   3.144  16.108 -0.2124  1.1773  1.6704
 1105TIP3   OH224729   3.822   5.534  13.479  0.4291 -0.0551  0.6574
 1105TIP3    H124730   3.737   5.571  13.453  0.8448 -0.3798 -1.3203
 1105TIP3    H224731   3.811   5.512  13.572 -1.0671  1.4910  0.9050
 1106TIP3   OH224732   2.201   1.005   4.085 -0.1321 -0.5901 -0.5134
 1106TIP3    H124733   2.167   0.945   4.152  0.0866 -1.5395 -1.2386
 1106TIP3    H224734   2.283   1.037   4.123 -2.5896  3.3966  2.2387
 1107TIP3   OH224735   4.619   1.845   2.088 -0.6717  0.0208 -0.1390
 1107TIP3    H124736   4.671   1.769   2.114 -0.3097  0.7160  1.2331
 1107TIP3    H224737   4.661   1.876   2.007  0.5699  0.0996  0.5193
 1108TIP3   OH224738   2.883   2.767  13.368 -0.1440  0.6860 -0.6024
 1108TIP3    H124739   2.834   2.694  13.404  0.6937  0.4606  0.1052
 1108TIP3    H224740   2.816   2.831  13.343 -0.8122  0.2356  0.0123
 1109TIP3   OH224741   3.334   3.360  11.850 -0.5045  0.3117  0.0102
 1109TIP3    H124742   3.374   3.445  11.871 -1.0213  0.2285  1.3501
 1109TIP3    H224743   3.409   3.302  11.834 -0.0852  0.3981  1.5638
 1110TIP3   OH224744   3.554   1.719  13.043  0.3555 -0.0970 -0.2660
 1110TIP3    H124745   3.620   1.731  12.975  0.2942  1.0881 -0.1415
 1110TIP3    H224746   3.474   1.697  12.995  0.7040 -1.0220 -0.4490
 1111TIP3   OH224747   6.215   4.251   5.305 -0.0072  0.4450 -0.3846
 1111TIP3    H124748   6.183   4.263   5.216 -0.3182  0.1302 -0.3184
 1111TIP3    H224749   6.257   4.165   5.304  1.2538  1.0530 -0.5876
 1112TIP3   OH224750   6.017   0.215  11.033 -0.1274 -0.2358 -0.5084
 1112TIP3    H124751   6.061   0.189  10.952  0.4682  1.6282 -0.8255
 1112TIP3    H224752   5.930   0.245  11.004  0.4928  1.5495 -0.6793
 1113TIP3   OH224753   5.847   1.288  13.205  0.0717 -0.1355 -0.4332
 1113TIP3    H124754   5.910   1.346  13.161 -0.2788 -0.7743 -1.8552
 1113TIP3    H224755   5.762   1.321  13.179 -0.1554 -0.2569  0.1486
 1114TIP3   OH224756   5.318   2.111   5.677  0.1187 -0.0064 -0.5005
 1114TIP3    H124757   5.334   2.034   5.622  0.9456  0.7231 -1.3076
 1114TIP3    H224758   5.344   2.185   5.622  2.0213  0.6976  1.2493
 1115TIP3   OH224759   6.436   2.298   1.524 -0.4100  0.0236  0.1332
 1115TIP3    H124760   6.381   2.376   1.532 -1.3945 -0.5131 -1.0687
 1115TIP3    H224761   6.399   2.236   1.587 -0.3637  0.1210  0.2557
 1116TIP3   OH224762   3.164   0.895  13.505  0.0197 -0.5130  0.3638
 1116TIP3    H124763   3.132   0.805  13.496 -1.0486 -0.2285  1.1796
 1116TIP3    H224764   3.192   0.902  13.596 -0.8827  0.2708  0.5970
 1117TIP3   OH224765   1.467   1.995  11.885  0.1699  0.1362 -0.8134
 1117TIP3    H124766   1.452   1.910  11.845  0.6571  0.6212 -2.0957
 1117TIP3    H224767   1.549   2.026  11.846  0.4757  0.8028  0.3066
 1118TIP3   OH224768   0.071   6.184   4.109 -0.2509 -0.3906 -0.3712
 1118TIP3    H124769   0.109   6.176   4.021  0.8453  2.1265 -0.2106
 1118TIP3    H224770   0.134   6.139   4.166 -0.3524 -0.9828 -0.7135
 1119TIP3   OH224771   2.733   0.396   5.832  0.7444 -0.3630  0.2713
 1119TIP3    H124772   2.694   0.407   5.745 -1.9260 -0.0104  1.4288
 1119TIP3    H224773   2.710   0.476   5.879  0.9640 -1.1166  1.7203
 1120TIP3   OH224774   1.872   1.572   5.866  0.4936  0.2443 -0.9452
 1120TIP3    H124775   1.863   1.663   5.837  2.6158  0.4567 -1.0852
 1120TIP3    H224776   1.962   1.548   5.842  1.0930 -0.8403  2.0079
 1121TIP3   OH224777   2.431   2.629   5.756  0.5155  0.3477 -0.2126
 1121TIP3    H124778   2.408   2.721   5.769 -0.7253  0.4734 -2.7518
 1121TIP3    H224779   2.372   2.599   5.687  0.0705 -2.7147  1.3323
 1122TIP3   OH224780   5.234   0.280  15.586 -0.1058 -0.1142  0.2058
 1122TIP3    H124781   5.306   0.284  15.523 -0.4263 -1.9803 -0.3360
 1122TIP3    H224782   5.276   0.282  15.672  0.6866 -1.7617 -0.1024
 1123TIP3   OH224783   1.785   1.449   1.723  0.2113  0.3202  0.1575
 1123TIP3    H124784   1.789   1.378   1.787  1.7683  1.1711  1.0638
 1123TIP3    H224785   1.840   1.418   1.650  1.2273  0.7272  0.7288
 1124TIP3   OH224786   6.262   3.700   4.546 -0.1053  0.2193  0.2085
 1124TIP3    H124787   6.255   3.690   4.451 -2.1944 -1.4456  0.4456
 1124TIP3    H224788   6.215   3.624   4.582 -0.5929  1.5204  2.5670
 1125TIP3   OH224789   5.670   5.903  16.172  0.7224  0.1936 -0.1477
 1125TIP3    H124790   5.624   5.979  16.138 -2.5844 -1.3996  0.2791
 1125TIP3    H224791   5.691   5.926  16.263 -1.6237  0.1734  0.4715
 1126TIP3   OH224792   5.016   5.303   2.884 -0.3670  0.3543  0.6730
 1126TIP3    H124793   4.996   5.232   2.944 -0.0597  0.6424  1.1233
 1126TIP3    H224794   5.050   5.260   2.805 -0.5527 -0.0108  0.7927
 1127TIP3   OH224795   5.084   3.993  16.588 -0.7324 -0.0958  0.3811
 1127TIP3    H124796   5.110   4.083  16.611 -2.5171  0.4344  0.4274
 1127TIP3    H224797   5.009   3.974  16.645 -0.0151 -1.8729  0.8240
 1128TIP3   OH224798   6.470   5.185  14.044  0.0924  0.1148 -0.6209
 1128TIP3    H124799   6.537   5.251  14.061  0.1819  0.1718 -1.1899
 1128TIP3    H224800   6.471   5.130  14.122  1.1963 -0.2213 -0.8502
 1129TIP3   OH224801   3.859   2.455   3.264 -0.1485  0.5387  0.0300
 1129TIP3    H124802   3.860   2.549   3.244 -1.0355  0.5240 -0.0959
 1129TIP3    H224803   3.818   2.415   3.187  1.5338 -0.1248 -0.5738
 1130TIP3   OH224804   1.478   2.247   4.166 -0.0803  0.3223 -0.0659
 1130TIP3    H124805   1.504   2.299   4.241 -1.0364 -2.6288  2.5489
 1130TIP3    H224806   1.385   2.267   4.154 -0.4540 -0.6647  0.9551
 1131TIP3   OH224807   0.384   5.610  17.119  0.3434 -0.2751 -0.4025
 1131TIP3    H124808   0.441   5.575  17.051 -0.6230 -0.2603 -1.2515
 1131TIP3    H224809   0.296   5.582  17.093  0.0293 -0.9325  1.2604
 1132TIP3   OH224810   1.698   5.122   5.486 -0.4415 -0.3456 -0.0514
 1132TIP3    H124811   1.792   5.109   5.499 -0.6514  0.7445  3.9073
 1132TIP3    H224812   1.688   5.135   5.392  3.1362 -1.9044 -0.8136
 1133TIP3   OH224813   6.267   6.424  13.865 -0.0590  0.3998 -0.2473
 1133TIP3    H124814   6.231   6.497  13.915 -1.2831 -0.6895  0.5480
 1133TIP3    H224815   6.347   6.400  13.911  0.0033  0.8171 -0.1339
 1134TIP3   OH224816   5.270   2.164  16.805 -0.3273  0.1617  0.8082
 1134TIP3    H124817   5.326   2.242  16.810  0.5731 -0.4020 -0.0585
 1134TIP3    H224818   5.195   2.192  16.753  0.2611  0.3116  0.0212
 1135TIP3   OH224819   3.837   5.773  12.945  0.2203  0.0541  0.5895
 1135TIP3    H124820   3.752   5.815  12.956  0.5992  1.0890 -0.2726
 1135TIP3    H224821   3.900   5.839  12.973  0.7873 -0.3689  0.3396
 1136TIP3   OH224822   1.427   2.158  14.119  0.0973  0.1198 -0.0662
 1136TIP3    H124823   1.519   2.183  14.107  0.7520 -2.1139 -0.0633
 1136TIP3    H224824   1.392   2.153  14.030  0.0542  0.6595 -0.0834
 1137TIP3   OH224825   5.725   1.664  15.404  0.1777 -0.6253  0.0944
 1137TIP3    H124826   5.781   1.612  15.347 -1.1965 -1.4442 -0.5630
 1137TIP3    H224827   5.680   1.599  15.459  0.2612  0.0506  0.9822
 1138TIP3   OH224828   0.189   6.405   5.792  0.0031 -0.0772  0.6394
 1138TIP3    H124829   0.220   6.315   5.800 -1.8795 -0.7991  0.4874
 1138TIP3    H224830   0.115   6.410   5.853 -0.4372  1.1254  0.0347
 1139TIP3   OH224831   1.930   6.455   1.732 -1.2307  0.0322  0.6193
 1139TIP3    H124832   1.844   6.457   1.774 -2.0307 -0.6446 -0.8916
 1139TIP3    H224833   1.958   6.546   1.731 -2.0396  0.2957  0.9484
 1140TIP3   OH224834   1.790   1.867  12.585 -0.4747  0.3409  0.1205
 1140TIP3    H124835   1.842   1.789  12.564 -1.7141 -0.7991  1.1519
 1140TIP3    H224836   1.702   1.834  12.600 -1.5431  2.2412 -1.5658
 1141TIP3   OH224837   2.026   1.702   1.280 -0.0640 -0.3711  0.1219
 1141TIP3    H124838   2.046   1.695   1.373 -3.2231 -0.9874  0.8858
 1141TIP3    H224839   1.992   1.791   1.270 -1.0949 -0.7700 -0.0802
 1142TIP3   OH224840   5.289   2.882   0.468  0.1847  0.4325 -0.4888
 1142TIP3    H124841   5.301   2.834   0.386 -0.6569 -0.1640 -0.2846
 1142TIP3    H224842   5.200   2.859   0.496  0.2704  1.0430  0.3208
 1143TIP3   OH224843   3.772   0.981   2.139  0.3506 -0.3681  0.2891
 1143TIP3    H124844   3.811   1.050   2.192  1.5057 -1.4639  0.8917
 1143TIP3    H224845   3.833   0.908   2.144 -2.0529 -2.4258  1.8332
 1144TIP3   OH224846   5.035   0.342   5.918 -0.6620  0.4363 -0.4620
 1144TIP3    H124847   5.048   0.275   5.985 -0.0070 -0.5379 -1.5239
 1144TIP3    H224848   5.000   0.417   5.966 -1.4962 -0.6819  0.7498
 1145TIP3   OH224849   2.146   2.773   4.086 -0.3287 -0.1430  0.1313
 1145TIP3    H124850   2.113   2.707   4.147  0.0006  0.0165  0.4855
 1145TIP3    H224851   2.240   2.773   4.100  0.2161 -2.4226 -2.6560
 1146TIP3   OH224852   3.488   4.263  14.271  0.3629  0.0492 -0.0735
 1146TIP3    H124853   3.401   4.266  14.309  0.3784 -0.1816 -0.0199
 1146TIP3    H224854   3.522   4.177  14.294  1.3715  0.8538  1.6334
 1147TIP3   OH224855   5.305   2.079  12.976 -0.2638 -0.2952 -0.0807
 1147TIP3    H124856   5.330   2.171  12.990 -0.6250 -0.1601 -0.3170
 1147TIP3    H224857   5.224   2.068  13.024 -0.8832 -0.1476 -1.0601
 1148TIP3   OH224858   3.884   0.463  12.228  0.1604 -0.2168  0.4200
 1148TIP3    H124859   3.849   0.549  12.206 -0.6988 -0.8448 -0.7655
 1148TIP3    H224860   3.940   0.440  12.154  0.5830 -0.5795  0.8443
 1149TIP3   OH224861   2.683   2.399  11.765  0.5651  0.1262 -0.3108
 1149TIP3    H124862   2.611   2.382  11.704  0.7525 -3.5489  0.2470
 1149TIP3    H224863   2.759   2.415  11.709 -0.0338  0.7992 -0.9474
 1150TIP3   OH224864   0.628   0.106   5.453 -0.3100  0.4615 -0.4825
 1150TIP3    H124865   0.600   0.195   5.432 -0.3273  0.2717 -1.2847
 1150TIP3    H224866   0.558   0.071   5.508 -0.3626  0.8999 -0.2687
 1151TIP3   OH224867   3.620   0.856  12.999 -0.5842 -0.5660  0.3971
 1151TIP3    H124868   3.653   0.945  13.014  0.6365 -0.9421  0.0999
 1151TIP3    H224869   3.528   0.859  13.027 -0.6559  0.8666  0.0764
 1152TIP3   OH224870   1.611   0.850  12.472  0.0583  0.2262  0.0888
 1152TIP3    H124871   1.639   0.773  12.424 -0.4860 -0.2510  0.5114
 1152TIP3    H224872   1.615   0.922  12.409 -0.0099 -0.2635 -0.4738
 1153TIP3   OH224873   4.401   6.718  14.984 -0.0611 -0.5944 -0.0937
 1153TIP3    H124874   4.442   6.636  15.013  0.7010 -0.8562 -1.7964
 1153TIP3    H224875   4.457   6.787  15.021  0.7855 -0.9126 -0.7366
 1154TIP3   OH224876   0.488   4.169  15.882 -0.8582  0.3480 -0.1999
 1154TIP3    H124877   0.532   4.148  15.964  2.6921 -0.4078 -2.0926
 1154TIP3    H224878   0.486   4.264  15.879  1.9309  0.4894 -0.5029
 1155TIP3   OH224879   3.421   3.528   2.742 -0.1506  0.0423  0.0512
 1155TIP3    H124880   3.455   3.616   2.727 -0.8088  0.0060 -2.0159
 1155TIP3    H224881   3.453   3.504   2.829 -0.8242  2.7004  1.1210
 1156TIP3   OH224882   4.365   1.091   3.048  0.1028  0.0378 -0.4199
 1156TIP3    H124883   4.359   1.115   2.956  0.7804 -0.9429 -0.7317
 1156TIP3    H224884   4.452   1.053   3.058 -0.0761 -0.1496  0.5591
 1157TIP3   OH224885   6.533   4.740  16.420  0.3545  0.5322  0.3586
 1157TIP3    H124886   6.538   4.836  16.423  1.0643  0.5470 -0.6738
 1157TIP3    H224887   6.618   4.710  16.450  1.2382  0.3405 -2.0848
 1158TIP3   OH224888   2.700   5.808   5.043  0.2281 -0.4140 -0.3170
 1158TIP3    H124889   2.616   5.800   4.998  0.2014 -1.0461 -0.1735
 1158TIP3    H224890   2.679   5.791   5.135  0.4458 -0.1367 -0.2134
 1159TIP3   OH224891   6.455   3.851   3.354  0.8211 -0.6596  0.3294
 1159TIP3    H124892   6.504   3.920   3.399  2.9049 -0.3948 -2.1232
 1159TIP3    H224893   6.403   3.897   3.288 -1.7598 -1.0804  1.9361
 1160TIP3   OH224894   2.132   0.233  13.059 -0.6913  0.2508 -0.3611
 1160TIP3    H124895   2.114   0.315  13.013  1.3881  0.3666 -1.0446
 1160TIP3    H224896   2.070   0.171  13.021  0.0317  0.6817 -2.3335
 1161TIP3   OH224897   5.458   5.958   2.561 -0.2112  0.4245 -0.4658
 1161TIP3    H124898   5.472   5.900   2.636  0.5627  1.9925  0.6625
 1161TIP3    H224899   5.512   5.921   2.492 -1.1547 -1.2163 -0.3686
 1162TIP3   OH224900   2.074   5.530  15.213  0.3245 -0.5383 -0.5124
 1162TIP3    H124901   2.138   5.527  15.141  0.4246 -1.9095 -0.3884
 1162TIP3    H224902   2.036   5.617  15.206  0.2361 -0.6690 -2.3257
 1163TIP3   OH224903   3.411   6.624   1.623 -0.4544  0.1139  0.0349
 1163TIP3    H124904   3.489   6.575   1.598  0.4895  1.4525  0.2808
 1163TIP3    H224905   3.418   6.634   1.718 -0.4937  0.9386 -0.0445
 1164TIP3   OH224906   5.871   3.491  15.428  0.0577  0.5504  0.1660
 1164TIP3    H124907   5.854   3.415  15.373  0.7385  0.8538 -0.4829
 1164TIP3    H224908   5.932   3.460  15.494  0.0747  0.4473  0.1020
 1165TIP3   OH224909   3.340   0.622  13.618  0.0869  0.0722  0.0514
 1165TIP3    H124910   3.407   0.661  13.562  0.1321  0.7182  0.5511
 1165TIP3    H224911   3.358   0.656  13.705 -2.8172  2.9529 -0.2878
 1166TIP3   OH224912   2.500   5.491  11.135 -0.4276  0.3232  0.1290
 1166TIP3    H124913   2.470   5.545  11.062  1.0263  1.2507  0.1959
 1166TIP3    H224914   2.501   5.402  11.099 -0.7395  0.6218 -0.6532
 1167TIP3   OH224915   1.542   2.476  12.975 -0.3841  0.0350 -0.2326
 1167TIP3    H124916   1.515   2.440  12.891 -0.5033  0.1586 -0.2482
 1167TIP3    H224917   1.463   2.517  13.010 -0.0762  0.9309 -0.5519
 1168TIP3   OH224918   2.734   2.842  13.693 -0.0094 -0.3676 -0.0968
 1168TIP3    H124919   2.668   2.774  13.701 -0.2684 -0.3568 -1.6742
 1168TIP3    H224920   2.686   2.924  13.711  0.1259 -0.5341  1.0451
 1169TIP3   OH224921   1.045   5.544  10.696  0.1205  0.1834  0.7165
 1169TIP3    H124922   1.117   5.601  10.669  0.0343  0.2513  0.6326
 1169TIP3    H224923   1.061   5.462  10.650 -0.3078  0.4624  0.0674
 1170TIP3   OH224924   3.615   4.023  15.078  0.5625  0.0195  0.3007
 1170TIP3    H124925   3.705   4.047  15.056  0.4485  1.1810  0.9947
 1170TIP3    H224926   3.576   3.997  14.994  1.2255  0.6126 -0.2045
 1171TIP3   OH224927   2.746   6.368  16.514  0.0859  0.0493 -0.0533
 1171TIP3    H124928   2.801   6.445  16.503 -0.9028  1.2398  2.4611
 1171TIP3    H224929   2.661   6.394  16.480 -0.1241 -0.0954  0.3542
 1172TIP3   OH224930   4.625   4.402   4.227  0.7471 -0.1046 -0.2214
 1172TIP3    H124931   4.576   4.477   4.193  2.8124  0.1553 -2.8630
 1172TIP3    H224932   4.660   4.433   4.311  1.2936  1.7862 -1.0964
 1173TIP3   OH224933   1.640   3.076  11.979 -0.4548 -0.2774  0.2050
 1173TIP3    H124934   1.651   3.105  11.889 -0.8615  1.4390  0.6827
 1173TIP3    H224935   1.564   3.017  11.976 -0.3193 -0.4268 -0.5975
 1174TIP3   OH224936   0.631   2.587  10.298 -0.1080 -0.6563 -0.1212
 1174TIP3    H124937   0.684   2.655  10.340 -1.1149  0.1410 -0.1263
 1174TIP3    H224938   0.543   2.600  10.333 -0.5520 -1.2336 -0.9983
 1175TIP3   OH224939   4.585   5.878   1.963  0.3007  0.0970  0.4353
 1175TIP3    H124940   4.568   5.845   2.051 -2.7943 -0.9209 -0.3970
 1175TIP3    H224941   4.591   5.799   1.909 -0.9222  0.7120 -0.6609
 1176TIP3   OH224942   1.388   2.987   2.378 -0.7013 -0.0288 -0.0159
 1176TIP3    H124943   1.331   3.052   2.335 -1.1546  0.7327  1.6567
 1176TIP3    H224944   1.329   2.936   2.433 -0.1257 -0.9695 -0.2477
 1177TIP3   OH224945   5.089   2.102  16.376 -0.2331  0.3165 -0.1596
 1177TIP3    H124946   5.114   2.009  16.377  2.7439  1.0108 -0.6472
 1177TIP3    H224947   5.076   2.124  16.469 -0.1363 -0.3847  0.0251
 1178TIP3   OH224948   6.071   3.678  16.900  0.4788 -0.2082 -0.3009
 1178TIP3    H124949   6.064   3.632  16.816  1.6746 -0.5485 -0.2304
 1178TIP3    H224950   6.134   3.748  16.884 -0.1552  0.4408  0.0159
 1179TIP3   OH224951   0.065   5.032   5.508 -0.4662  0.3719 -0.3873
 1179TIP3    H124952   0.050   5.076   5.424  0.5902 -0.0366 -0.8101
 1179TIP3    H224953   0.031   5.093   5.574 -2.4125  0.1731 -1.1577
 1180TIP3   OH224954   3.785   1.553   2.529  0.2727 -0.4005  0.3610
 1180TIP3    H124955   3.690   1.568   2.525  0.0803 -1.3017  1.1024
 1180TIP3    H224956   3.798   1.472   2.481  0.3513 -1.4502  2.0736
 1181TIP3   OH224957   3.889   1.072   1.738  0.6808  0.4082  0.6321
 1181TIP3    H124958   3.956   1.005   1.721  0.4107  0.1377  0.6308
 1181TIP3    H224959   3.807   1.023   1.743  0.5064  0.7174  0.8191
 1182TIP3   OH224960   1.952   4.349   4.102 -0.7065  0.3786 -0.2773
 1182TIP3    H124961   2.024   4.370   4.161 -0.2209  1.6990 -1.2810
 1182TIP3    H224962   1.873   4.371   4.152 -0.6002 -2.6496  1.4618
 1183TIP3   OH224963   1.129   2.991  12.476 -0.0692 -0.3282 -0.4664
 1183TIP3    H124964   1.212   2.944  12.474 -0.3773 -0.8818 -0.6403
 1183TIP3    H224965   1.152   3.083  12.464  0.5682 -0.4015  0.1170
 1184TIP3   OH224966   6.017   3.438   6.080 -0.0031 -0.3004  0.0982
 1184TIP3    H124967   5.987   3.348   6.071  1.7836 -1.1570  1.9672
 1184TIP3    H224968   6.112   3.432   6.089  0.0849  1.6652  1.2342
 1185TIP3   OH224969   4.397   2.465   5.618  0.0891  0.0063 -0.1268
 1185TIP3    H124970   4.336   2.414   5.565 -1.2671  0.1883  1.1892
 1185TIP3    H224971   4.480   2.461   5.570 -0.2136 -2.5816 -0.5676
 1186TIP3   OH224972   4.256   2.711   1.096 -0.9381  0.5573  0.0135
 1186TIP3    H124973   4.176   2.660   1.080  1.0493 -2.5396 -0.9536
 1186TIP3    H224974   4.282   2.686   1.185 -0.6775  1.0209  0.0690
 1187TIP3   OH224975   1.283   6.208   3.153 -0.3031 -0.5585  0.3559
 1187TIP3    H124976   1.241   6.294   3.151  0.2525 -0.2758  0.7564
 1187TIP3    H224977   1.230   6.157   3.215  0.0759 -0.1255  1.0486
 1188TIP3   OH224978   2.738   6.389   0.146 -0.1586  0.2368 -0.2031
 1188TIP3    H124979   2.767   6.373   0.056  1.5013 -1.0317  0.5218
 1188TIP3    H224980   2.799   6.455   0.179 -1.1908  1.2138 -0.1943
 1189TIP3   OH224981   4.257   4.063  16.785  0.0686 -0.4283 -0.0600
 1189TIP3    H124982   4.319   3.989  16.786  1.4986  0.6803  2.6748
 1189TIP3    H224983   4.312   4.140  16.771 -0.9981  0.4062  0.2289
 1190TIP3   OH224984   3.810   3.402   6.811  0.1333 -0.0593  0.2809
 1190TIP3    H124985   3.838   3.474   6.756  0.3860  0.3172  0.8972
 1190TIP3    H224986   3.880   3.337   6.805  2.0549  1.5416  3.0953
 1191TIP3   OH224987   5.586   3.933   4.748 -0.0872  0.5743  0.3182
 1191TIP3    H124988   5.667   3.942   4.696  0.4495  0.1870  1.0718
 1191TIP3    H224989   5.544   3.854   4.713 -1.4676  2.1449 -1.8163
 1192TIP3   OH224990   5.581   2.657  15.800 -0.1755 -0.7341 -0.3083
 1192TIP3    H124991   5.556   2.599  15.728  2.3562 -0.7424 -1.2511
 1192TIP3    H224992   5.588   2.744  15.760  1.3027 -0.7498 -0.1128
 1193TIP3   OH224993   0.600   6.398  14.241 -0.5911  0.4736 -0.2658
 1193TIP3    H124994   0.609   6.317  14.190 -1.3271 -0.3748  0.9179
 1193TIP3    H224995   0.650   6.463  14.191 -0.6567 -0.5083 -1.6618
 1194TIP3   OH224996   0.990   1.212  12.019 -0.0851 -0.3095  0.1320
 1194TIP3    H124997   0.971   1.267  12.094  0.4586 -0.3991  0.3411
 1194TIP3    H224998   0.905   1.177  11.992 -0.1451 -1.3607  1.5456
 1195TIP3   OH224999   4.880   6.438  14.476 -0.3563 -0.0944 -0.3814
 1195TIP3    H125000   4.878   6.449  14.571 -1.0546 -0.3167 -0.3683
 1195TIP3    H225001   4.904   6.525  14.442 -1.9805  0.5045 -0.0840
 1196TIP3   OH225002   1.329   3.656  16.599 -0.1881  0.4724 -0.6012
 1196TIP3    H125003   1.293   3.693  16.519 -0.7142  0.2684 -0.4659
 1196TIP3    H225004   1.318   3.562  16.590  0.1372  0.4192 -0.4700
 1197TIP3   OH225005   3.652   4.570  16.767 -0.5501  0.1055  0.1732
 1197TIP3    H125006   3.597   4.527  16.703 -0.2485  0.0153 -0.0266
 1197TIP3    H225007   3.620   4.660  16.770 -0.4655  0.1514 -0.2204
 1198TIP3   OH225008   1.680   0.108  17.306  0.8566  0.3692  0.0328
 1198TIP3    H125009   1.678   0.138  17.397 -1.0734  0.2928  0.0535
 1198TIP3    H225010   1.606   0.047  17.299  0.8213  0.5594 -1.6370
 1199TIP3   OH225011   4.932   3.581  16.196  0.3129 -0.8572 -0.1824
 1199TIP3    H125012   5.002   3.516  16.196  0.7470 -0.3975 -0.5446
 1199TIP3    H225013   4.968   3.655  16.246  1.2526  0.5795 -2.7675
 1200TIP3   OH225014   4.655   6.399   2.453 -0.4050 -0.4746  0.1898
 1200TIP3    H125015   4.628   6.468   2.514  0.0541  0.5762 -0.7672
 1200TIP3    H225016   4.715   6.345   2.504 -2.0754 -1.2201  1.4851
 1201TIP3   OH225017   6.091   5.210   4.223 -0.3629  0.3484 -0.3125
 1201TIP3    H125018   6.152   5.146   4.187  0.6244  1.3732 -0.5098
 1201TIP3    H225019   6.097   5.285   4.163  0.3245  1.5735  1.2086
 1202TIP3   OH225020   4.298   6.572  14.574 -0.2492 -0.4135  0.6794
 1202TIP3    H125021   4.311   6.477  14.571  1.2004 -0.3539  2.7764
 1202TIP3    H225022   4.383   6.608  14.548 -1.0719  0.3661 -1.0518
 1203TIP3   OH225023   5.125   0.575  13.048 -0.2294  0.3203 -0.0751
 1203TIP3    H125024   5.083   0.497  13.085  2.9909 -0.4101  2.5941
 1203TIP3    H225025   5.081   0.589  12.965 -1.8100 -3.6166 -0.1211
 1204TIP3   OH225026   3.196   2.071   5.223  0.1268 -0.1005  0.2971
 1204TIP3    H125027   3.180   1.987   5.266 -1.2112 -0.8208 -1.4747
 1204TIP3    H225028   3.147   2.065   5.141  2.4087  1.2517 -1.2643
 1205TIP3   OH225029   6.196   3.044  11.753 -0.0727  1.0158  0.5303
 1205TIP3    H125030   6.257   3.060  11.681  0.1124  0.8245  0.6428
 1205TIP3    H225031   6.249   3.054  11.832 -0.0458  0.2673  0.6161
 1206TIP3   OH225032   3.363   0.687  11.888  0.1022 -0.1214 -0.4102
 1206TIP3    H125033   3.442   0.646  11.924  0.4054 -0.7822 -1.7579
 1206TIP3    H225034   3.389   0.713  11.799 -1.6257 -1.7332 -1.4474
 1207TIP3   OH225035   2.636   5.710  14.508  0.1138 -0.2357 -0.3302
 1207TIP3    H125036   2.669   5.746  14.590 -0.2694 -1.2826  0.2907
 1207TIP3    H225037   2.683   5.627  14.497  0.0375 -0.1902 -1.0876
 1208TIP3   OH225038   2.362   3.972   4.554 -0.3448  0.5630 -0.2988
 1208TIP3    H125039   2.400   4.049   4.513 -0.5417  0.2186 -1.1520
 1208TIP3    H225040   2.437   3.916   4.574 -0.3170  0.3269 -1.0500
 1209TIP3   OH225041   3.645   5.711   1.049  0.6853 -0.2630 -0.6673
 1209TIP3    H125042   3.605   5.703   0.963 -0.1723  0.6671 -0.3856
 1209TIP3    H225043   3.655   5.621   1.079 -1.1201 -0.5690 -0.8258
 1210TIP3   OH225044   1.374   5.199   4.063  0.3091 -0.0511  0.0598
 1210TIP3    H125045   1.461   5.234   4.045 -0.0439  1.5864  1.3309
 1210TIP3    H225046   1.381   5.163   4.152 -0.1307 -0.5302 -0.0979
 1211TIP3   OH225047   4.684   4.423  13.337 -0.5812  0.1293  0.3841
 1211TIP3    H125048   4.636   4.475  13.400  0.4868  0.3788  1.0141
 1211TIP3    H225049   4.682   4.334  13.373  0.3485  0.3368  0.9987
 1212TIP3   OH225050   4.398   1.618   6.322  0.1912  0.1854  0.1201
 1212TIP3    H125051   4.430   1.703   6.291 -0.6141  0.8050  0.9379
 1212TIP3    H225052   4.346   1.585   6.249 -0.4737  0.9485  0.2393
 1213TIP3   OH225053   2.304   4.784   6.119 -0.4041 -0.0454  0.2195
 1213TIP3    H125054   2.397   4.779   6.096 -0.3951 -1.8999  0.4577
 1213TIP3    H225055   2.285   4.877   6.126  2.0920  0.4173  2.6911
 1214TIP3   OH225056   5.094   5.919   4.720 -0.3976  0.2340  0.0227
 1214TIP3    H125057   5.144   5.839   4.699  0.0637  0.1483  1.3860
 1214TIP3    H225058   5.059   5.903   4.807 -3.5917 -0.0591 -1.2061
 1215TIP3   OH225059   4.930   1.652  16.333  0.8281  0.4194  0.0541
 1215TIP3    H125060   4.910   1.583  16.270 -0.7262  0.9395 -0.0623
 1215TIP3    H225061   4.893   1.620  16.416 -0.8812  1.5253 -0.2278
 1216TIP3   OH225062   4.335   4.347  15.933 -0.7071  0.4839  0.2831
 1216TIP3    H125063   4.398   4.379  15.869 -0.0587 -0.5717  0.3623
 1216TIP3    H225064   4.283   4.283  15.884 -0.1246 -0.4203  0.8174
 1217TIP3   OH225065   3.696   4.798   0.736 -0.8085 -0.5919 -0.0877
 1217TIP3    H125066   3.759   4.801   0.807  1.2542  1.0419 -1.8563
 1217TIP3    H225067   3.685   4.890   0.709 -2.2765 -1.0540 -1.2458
 1218TIP3   OH225068   6.095   1.695  13.139 -0.2992  0.5939  0.5280
 1218TIP3    H125069   6.130   1.663  13.056 -2.1789  1.0606 -0.5019
 1218TIP3    H225070   6.173   1.717  13.191  0.9459 -1.1542 -0.4907
 1219TIP3   OH225071   3.092   0.628  13.508  0.1345 -0.5104 -0.2513
 1219TIP3    H125072   3.177   0.619  13.550  1.0491 -1.1560 -2.1048
 1219TIP3    H225073   3.056   0.540  13.506 -0.4161 -0.2985  0.1988
 1220TIP3   OH225074   0.562   3.652   0.502  0.3574  0.2878  0.4796
 1220TIP3    H125075   0.633   3.588   0.489 -2.0237 -2.4655  0.0043
 1220TIP3    H225076   0.532   3.672   0.414  0.4109  1.3428  0.6891
 1221TIP3   OH225077   5.474   4.923   4.113 -0.0647 -0.7618  0.3230
 1221TIP3    H125078   5.468   4.907   4.207  3.1412  0.3979  0.8624
 1221TIP3    H225079   5.565   4.951   4.099 -1.1744  2.0246 -2.6651
 1222TIP3   OH225080   2.074   5.505  14.818 -0.4881 -0.5046  0.1820
 1222TIP3    H125081   1.980   5.498  14.831 -0.3400 -1.7791  0.7348
 1222TIP3    H225082   2.085   5.579  14.758 -1.8294 -0.3724  0.0710
 1223TIP3   OH225083   0.993   1.529  15.040  0.1708  0.4738 -0.3468
 1223TIP3    H125084   1.069   1.576  15.074  0.1835  0.4202 -0.3004
 1223TIP3    H225085   0.919   1.565  15.088  0.0508  1.1667 -1.0283
 1224TIP3   OH225086   3.741   3.408  15.226 -0.1393 -0.4845 -0.3807
 1224TIP3    H125087   3.808   3.404  15.158  0.2991  0.3533 -0.0193
 1224TIP3    H225088   3.724   3.502  15.236 -1.1925 -0.6788 -0.2961
 1225TIP3   OH225089   0.814   1.684   0.965 -0.4179 -0.2271 -0.0349
 1225TIP3    H125090   0.772   1.720   0.887 -0.8759  1.0665  0.7770
 1225TIP3    H225091   0.742   1.651   1.018 -0.0177 -2.2154 -0.6672
 1226TIP3   OH225092   1.613   6.222  16.536 -0.2027 -0.0839  0.5687
 1226TIP3    H125093   1.659   6.162  16.595 -0.3384  0.3826  1.1592
 1226TIP3    H225094   1.672   6.297  16.528  0.9247 -1.1037 -1.7915
 1227TIP3   OH225095   5.181   5.718  12.286 -0.4305  0.0012  0.2448
 1227TIP3    H125096   5.196   5.668  12.206  1.5444  1.9576 -0.7015
 1227TIP3    H225097   5.170   5.808  12.257 -0.1040  0.7055  2.1429
 1228TIP3   OH225098   0.637   3.580  13.466 -0.5753  0.1435  0.2759
 1228TIP3    H125099   0.572   3.514  13.441 -0.5198  1.0384 -2.4801
 1228TIP3    H225100   0.698   3.583  13.393  2.0104  0.1612  2.2903
 1229TIP3   OH225101   5.306   0.651  12.470  0.5740 -0.4854  0.4644
 1229TIP3    H125102   5.294   0.562  12.437 -0.9461 -0.2446  0.2814
 1229TIP3    H225103   5.220   0.676  12.505  1.9804 -0.6401  4.5034
 1230TIP3   OH225104   3.401   6.581   0.387  0.2115  0.1784 -0.2647
 1230TIP3    H125105   3.430   6.652   0.443  2.2807 -0.5269 -0.3418
 1230TIP3    H225106   3.482   6.536   0.362 -0.8633 -1.0082 -1.8072
 1231TIP3   OH225107   1.341   3.896   0.948 -0.1852  0.3811 -0.0302
 1231TIP3    H125108   1.390   3.949   1.010 -1.0795  0.9289  0.2221
 1231TIP3    H225109   1.398   3.821   0.930  0.6146  0.8599  0.4663
 1232TIP3   OH225110   6.642   1.854   2.226 -0.0563 -0.4859  0.1132
 1232TIP3    H125111   6.639   1.758   2.232  1.2107 -0.5516 -0.0751
 1232TIP3    H225112   6.594   1.884   2.303 -1.6113 -1.2441 -0.5083
 1233TIP3   OH225113   5.201   0.257  14.082  0.0125  0.2161  0.0298
 1233TIP3    H125114   5.126   0.221  14.036  0.2077 -0.8276  0.5066
 1233TIP3    H225115   5.229   0.187  14.141  0.4739  1.1053  0.8961
 1234TIP3   OH225116   5.445   0.795  12.963 -0.0874  0.1712 -0.0773
 1234TIP3    H125117   5.502   0.848  12.907 -0.2114  0.1665 -0.2080
 1234TIP3    H225118   5.435   0.713  12.915  1.3269 -0.5607  0.7969
 1235TIP3   OH225119   0.172   0.215   6.038  0.0629 -0.1691  0.5406
 1235TIP3    H125120   0.210   0.129   6.054 -0.2004 -0.6052 -1.0452
 1235TIP3    H225121   0.183   0.230   5.944 -0.3232  1.3219  0.7059
 1236TIP3   OH225122   1.541   0.941  16.456 -0.2881  0.2870 -0.0678
 1236TIP3    H125123   1.603   0.929  16.528 -1.2522 -0.3849  0.6908
 1236TIP3    H225124   1.474   0.874  16.472 -0.6024  0.2376 -1.5095
 1237TIP3   OH225125   3.634   6.547   4.790 -0.3055  0.0742  0.2334
 1237TIP3    H125126   3.567   6.552   4.721 -0.1590 -0.5729  0.0428
 1237TIP3    H225127   3.683   6.468   4.770  1.6233  1.4022 -0.6089
 1238TIP3   OH225128   3.751   1.414   5.480  0.9028 -0.4173 -0.6166
 1238TIP3    H125129   3.718   1.451   5.398  0.0598  0.8606  0.2688
 1238TIP3    H225130   3.751   1.319   5.465 -1.6316 -0.3839 -1.2379
 1239TIP3   OH225131   2.704   3.063   4.039  0.0525 -0.1201  0.2315
 1239TIP3    H125132   2.647   3.074   3.963 -1.3533 -1.9852  0.9436
 1239TIP3    H225133   2.697   3.146   4.086 -0.3108  0.4831 -0.8450
 1240TIP3   OH225134   6.016   6.343  16.124  0.3009 -0.6047 -1.2236
 1240TIP3    H125135   5.940   6.285  16.118  0.5792 -1.2663  0.8552
 1240TIP3    H225136   6.082   6.300  16.069 -0.6117 -0.3004 -2.6190
 1241TIP3   OH225137   5.787   6.537   1.029 -0.1854  0.1589  0.7457
 1241TIP3    H125138   5.872   6.525   0.988 -0.7402 -0.3941 -0.2776
 1241TIP3    H225139   5.800   6.507   1.119  1.2412  2.1156  1.2610
 1242TIP3   OH225140   4.180   0.234   5.369 -0.2638  0.4978  0.4694
 1242TIP3    H125141   4.194   0.254   5.276 -0.6310 -0.2425  0.2531
 1242TIP3    H225142   4.095   0.274   5.390 -1.0818 -0.9242 -0.0093
 1243TIP3   OH225143   0.115   1.903  13.293  0.3433 -0.3448  0.1328
 1243TIP3    H125144   0.042   1.851  13.261 -0.4202  0.4137  0.5926
 1243TIP3    H225145   0.188   1.842  13.300  0.0533 -0.8887 -1.3535
 1244TIP3   OH225146   3.897   0.883   4.649  0.2948  0.2098 -0.5118
 1244TIP3    H125147   3.956   0.939   4.599 -0.4480 -0.4041 -2.1425
 1244TIP3    H225148   3.925   0.794   4.629  0.5838 -0.0468  0.9507
 1245TIP3   OH225149   4.823   0.167   2.929 -0.4275 -0.0163  0.5538
 1245TIP3    H125150   4.740   0.124   2.908 -1.5519  2.5994 -0.8363
 1245TIP3    H225151   4.806   0.214   3.010 -0.4200  0.7821  0.0984
 1246TIP3   OH225152   6.378   4.797  12.995 -0.1134 -0.8364  0.4361
 1246TIP3    H125153   6.387   4.892  12.990 -3.4601 -0.3043  1.5345
 1246TIP3    H225154   6.342   4.772  12.910 -0.7803 -0.8353  0.7089
 1247TIP3   OH225155   4.231   5.435  16.963  0.4127  0.1316  0.2509
 1247TIP3    H125156   4.301   5.497  16.947  1.2720 -1.1099 -1.0761
 1247TIP3    H225157   4.159   5.465  16.907  0.4318  0.5220  0.4318
 1248TIP3   OH225158   5.892   6.628   5.364 -0.0073 -0.0553 -0.1921
 1248TIP3    H125159   5.953   6.687   5.407  0.5847 -0.6312 -0.2354
 1248TIP3    H225160   5.938   6.544   5.359 -1.3007 -0.8827  1.0095
 1249TIP3   OH225161   3.281   6.709  15.699 -0.5187  1.0077  0.0605
 1249TIP3    H125162   3.275   6.764  15.620 -0.7562 -1.1150 -1.4941
 1249TIP3    H225163   3.374   6.687  15.705 -0.2431  2.3587  1.3031
 1250TIP3   OH225164   2.913   3.783   4.637 -1.3953 -0.0936 -0.3516
 1250TIP3    H125165   2.825   3.785   4.602 -2.8757 -0.1799  2.9821
 1250TIP3    H225166   2.921   3.865   4.687 -0.0767 -0.6907  0.4851
 1251TIP3   OH225167   3.673   1.271   0.682  0.0213 -0.1904 -0.1621
 1251TIP3    H125168   3.634   1.331   0.618  0.2406  0.6148  0.4467
 1251TIP3    H225169   3.607   1.264   0.751  0.5052  0.3606  0.3721
 1252TIP3   OH225170   3.999   3.087   3.828  0.1654 -0.2102 -0.3729
 1252TIP3    H125171   3.997   3.011   3.770  2.2344 -0.6985  0.0993
 1252TIP3    H225172   4.092   3.103   3.843 -0.2802  0.8532  1.5904
 1253TIP3   OH225173   2.470   5.868   1.578 -0.3350 -0.1104 -0.0536
 1253TIP3    H125174   2.542   5.806   1.591 -1.8778 -1.7405  1.1554
 1253TIP3    H225175   2.509   5.953   1.598  1.4832 -0.8095 -0.3625
 1254TIP3   OH225176   4.353   6.484   1.362 -0.1477 -0.3700  0.3423
 1254TIP3    H125177   4.329   6.559   1.416 -2.1810 -1.2750  0.7975
 1254TIP3    H225178   4.338   6.408   1.418 -0.3249 -1.2287 -0.8309
 1255TIP3   OH225179   3.219   1.522   1.437 -0.3484  0.5987  0.1186
 1255TIP3    H125180   3.180   1.536   1.350 -1.3902  1.8603  0.7687
 1255TIP3    H225181   3.292   1.584   1.440  0.4058 -0.2428 -0.2635
 1256TIP3   OH225182   0.436   4.349   3.322  0.2427 -0.3061  0.2082
 1256TIP3    H125183   0.425   4.290   3.397  0.6461  0.3611  0.8066
 1256TIP3    H225184   0.439   4.437   3.361 -3.7578  0.5379 -0.8638
 1257TIP3   OH225185   6.443   5.615   4.189 -0.0755 -0.0006  0.2905
 1257TIP3    H125186   6.515   5.563   4.154  0.3330 -1.9320  3.5699
 1257TIP3    H225187   6.486   5.687   4.236 -0.4047  0.2566  0.2017
 1258TIP3   OH225188   0.403   6.286  10.980  0.4003 -0.0126  0.0110
 1258TIP3    H125189   0.309   6.290  10.959  0.2580 -3.3453 -0.6354
 1258TIP3    H225190   0.415   6.196  11.013  2.6482  1.5353  4.1680
 1259TIP3   OH225191   0.111   1.522  15.250 -0.2657  0.4067  0.2858
 1259TIP3    H125192   0.092   1.429  15.236  0.8113  0.4134 -1.4748
 1259TIP3    H225193   0.038   1.568  15.209  0.2680  0.3345 -0.7967
 1260TIP3   OH225194   5.049   0.382  13.603 -0.1212  0.1493  0.3711
 1260TIP3    H125195   5.142   0.391  13.628 -0.2867  1.8061  0.5521
 1260TIP3    H225196   5.020   0.302  13.646  1.1166 -0.1570  0.6778
 1261TIP3   OH225197   5.214   2.853  15.593 -0.4730  0.0213  0.6564
 1261TIP3    H125198   5.175   2.938  15.573  0.5139  0.1140 -1.1227
 1261TIP3    H225199   5.140   2.794  15.606 -1.1730  0.7699  0.1232
 1262TIP3   OH225200   6.478   3.592  14.983 -0.2404  0.7148 -0.5130
 1262TIP3    H125201   6.427   3.523  15.026 -0.0207  0.7119 -0.2505
 1262TIP3    H225202   6.507   3.553  14.901  2.3463 -0.5707  0.8932
 1263TIP3   OH225203   1.213   5.862   0.324  0.3151  0.6185 -0.6003
 1263TIP3    H125204   1.295   5.826   0.357 -0.8464  0.3330  2.3638
 1263TIP3    H225205   1.194   5.935   0.383 -1.6175  0.5483 -1.0660
 1264TIP3   OH225206   0.931   5.854   4.402 -0.4307  0.0373  0.5739
 1264TIP3    H125207   0.867   5.867   4.472 -0.7446 -0.4163  0.3707
 1264TIP3    H225208   0.921   5.932   4.347 -0.6891  0.0490  0.6343
 1265TIP3   OH225209   2.600   3.346  17.309  0.2455 -0.4104 -0.6987
 1265TIP3    H125210   2.679   3.390  17.339 -0.3238  1.0922 -1.2699
 1265TIP3    H225211   2.627   3.256  17.291  1.4773 -0.2920  0.4667
 1266TIP3   OH225212   0.722   3.859   0.314 -0.0729 -0.1508  0.4507
 1266TIP3    H125213   0.781   3.902   0.251  0.0736  2.1507  2.0265
 1266TIP3    H225214   0.716   3.769   0.284  2.0708  0.2269 -1.3485
 1267TIP3   OH225215   0.013   1.214   1.198 -0.5119  0.5219 -0.0506
 1267TIP3    H125216   0.035   1.188   1.287  0.1856 -0.1627 -0.4115
 1267TIP3    H225217   0.039   1.139   1.144  0.5077  1.5215 -0.9917
 1268TIP3   OH225218   2.909   5.119   6.010 -0.5329 -0.2425  0.3716
 1268TIP3    H125219   2.987   5.148   6.057 -0.5762  0.4656  0.0161
 1268TIP3    H225220   2.854   5.197   6.004 -0.3507 -0.1964 -1.1975
 1269TIP3   OH225221   0.485   0.263  11.924  0.8515  0.1266  0.2285
 1269TIP3    H125222   0.509   0.235  11.836 -0.6678 -0.6614  0.0330
 1269TIP3    H225223   0.446   0.186  11.965 -1.4784  1.3217  0.4213
 1270TIP3   OH225224   4.565   6.173  12.604  0.1990 -0.4141 -0.3395
 1270TIP3    H125225   4.635   6.238  12.610 -0.2536 -0.0625  2.3287
 1270TIP3    H225226   4.552   6.160  12.510  0.2558  3.4106 -1.0073
 1271TIP3   OH225227   3.057   6.254   0.068  0.5261  0.0421 -0.1643
 1271TIP3    H125228   3.116   6.308   0.119  0.9411 -1.1057  0.6179
 1271TIP3    H225229   3.004   6.208   0.133  0.8825 -1.2427 -0.7364
 1272TIP3   OH225230   1.222   2.721   4.026  0.2208 -0.3786  0.1305
 1272TIP3    H125231   1.192   2.758   4.109 -0.8721  1.0271 -0.8384
 1272TIP3    H225232   1.307   2.761   4.011  1.1399 -1.8151  1.2777
 1273TIP3   OH225233   4.891   1.222   6.229  0.1420 -0.7490  0.3629
 1273TIP3    H125234   4.972   1.269   6.209 -0.7504  0.2862 -0.9233
 1273TIP3    H225235   4.840   1.283   6.282 -0.7753 -0.4461 -0.8239
 1274TIP3   OH225236   5.327   3.258  13.733  0.1645 -0.1081 -0.5124
 1274TIP3    H125237   5.347   3.273  13.641  0.2117 -0.0464 -0.4926
 1274TIP3    H225238   5.278   3.337  13.759 -1.6669 -1.0181 -1.0222
 1275TIP3   OH225239   2.341   3.679   1.470 -0.1669  0.3650  0.7130
 1275TIP3    H125240   2.335   3.708   1.561 -0.8360 -0.4076  0.9271
 1275TIP3    H225241   2.404   3.738   1.430 -0.9475  1.6441  1.3077
 1276TIP3   OH225242   2.658   2.725   1.329 -0.0538 -0.2914  0.2998
 1276TIP3    H125243   2.696   2.802   1.287  1.8913 -0.6543  1.2628
 1276TIP3    H225244   2.582   2.758   1.376  1.6694  1.4308  2.0579
 1277TIP3   OH225245   1.622   5.673   3.908  0.0444  0.5599  0.4282
 1277TIP3    H125246   1.615   5.582   3.880 -0.7321  0.0289  2.2339
 1277TIP3    H225247   1.707   5.678   3.953 -0.0139  0.6740  0.5260
 1278TIP3   OH225248   6.279   6.163   4.585  0.0834 -0.0750 -0.2095
 1278TIP3    H125249   6.228   6.106   4.642  0.5032 -2.6645 -2.2531
 1278TIP3    H225250   6.217   6.191   4.517  0.4323  0.0162 -0.4940
 1279TIP3   OH225251   3.404   0.345  12.091 -0.5757 -0.0510 -0.3459
 1279TIP3    H125252   3.317   0.337  12.130 -0.8588  0.2446 -0.9042
 1279TIP3    H225253   3.426   0.256  12.062  1.1839 -1.1401  3.6060
 1280TIP3   OH225254   0.051   4.943  12.459  0.3176 -0.2603  0.4589
 1280TIP3    H125255  -0.041   4.917  12.447  0.0791 -0.6004  2.6101
 1280TIP3    H225256   0.054   5.035  12.431 -0.4212 -0.5427 -0.6101
 1281TIP3   OH225257   6.489   0.981   2.291  0.0144 -0.0091  0.1135
 1281TIP3    H125258   6.518   0.922   2.223 -0.4895  0.3314 -0.4090
 1281TIP3    H225259   6.394   0.982   2.283 -0.0314  0.2424  0.6416
 1282TIP3   OH225260   1.683   3.943  14.181 -0.6888 -0.4808  0.2605
 1282TIP3    H125261   1.628   3.868  14.203 -2.0373  0.1036 -0.9604
 1282TIP3    H225262   1.621   4.015  14.168  0.3514  0.1616 -1.3267
 1283TIP3   OH225263   5.410   1.629   4.479 -0.1327  0.0939 -0.0354
 1283TIP3    H125264   5.368   1.654   4.398  0.3979 -1.6182 -0.8973
 1283TIP3    H225265   5.438   1.538   4.465 -0.9423 -0.6255  2.4153
 1284TIP3   OH225266   4.085   3.852  13.933  0.3704 -0.1287 -0.5411
 1284TIP3    H125267   4.018   3.869  13.999  0.9329 -0.0986  0.0307
 1284TIP3    H225268   4.165   3.840  13.983  0.7189 -0.5674 -1.1948
 1285TIP3   OH225269   2.436   2.218   3.117 -0.0674 -0.9455 -0.5388
 1285TIP3    H125270   2.468   2.252   3.200  0.9403  0.5363 -1.4858
 1285TIP3    H225271   2.404   2.130   3.137  0.4656 -0.7429  1.3290
 1286TIP3   OH225272   2.042   5.426   4.416 -0.3517  0.5570 -0.0518
 1286TIP3    H125273   1.973   5.481   4.451 -0.4804  0.1880  0.2728
 1286TIP3    H225274   2.110   5.426   4.483  0.5740  2.0286 -0.9348
 1287TIP3   OH225275   5.453   1.217  14.141 -0.2923  0.0185  0.2870
 1287TIP3    H125276   5.404   1.167  14.076  0.7304  0.4382 -0.8535
 1287TIP3    H225277   5.390   1.281  14.175 -0.8356 -0.1974 -0.3047
 1288TIP3   OH225278   4.888   3.756   6.508  0.1299 -0.3967 -0.5132
 1288TIP3    H125279   4.968   3.714   6.476  0.2231 -2.1841  1.8379
 1288TIP3    H225280   4.817   3.704   6.471  0.2232 -2.0216  1.4583
 1289TIP3   OH225281   1.262   4.909   4.955 -0.2009 -0.4397 -0.5185
 1289TIP3    H125282   1.317   4.970   4.906  1.6714 -2.3396 -0.9125
 1289TIP3    H225283   1.185   4.897   4.900  1.2647 -1.5372 -2.4500
 1290TIP3   OH225284   0.039   3.432   3.513  0.1555 -0.0642 -0.6342
 1290TIP3    H125285  -0.007   3.409   3.432  0.5638  0.1655 -0.9349
 1290TIP3    H225286   0.046   3.528   3.510 -2.1608  0.2184  0.9431
 1291TIP3   OH225287   5.364   1.590   2.621  0.0307 -0.1848  0.3084
 1291TIP3    H125288   5.292   1.635   2.576  1.0030  0.1457 -0.9624
 1291TIP3    H225289   5.385   1.647   2.695  0.8167  1.1822 -0.9171
 1292TIP3   OH225290   3.432   0.216   1.007 -0.0379  0.1517 -0.4650
 1292TIP3    H125291   3.469   0.257   0.929 -0.9699  2.1983  0.1026
 1292TIP3    H225292   3.436   0.284   1.074  1.0996 -1.6582  1.4450
 1293TIP3   OH225293   6.231   1.227   3.974 -0.3005 -0.7819 -0.4842
 1293TIP3    H125294   6.316   1.186   3.986 -0.0393  0.1047  1.0409
 1293TIP3    H225295   6.251   1.315   3.941 -0.5613 -0.3151  0.5714
 1294TIP3   OH225296   4.987   4.462  15.094  0.0542 -0.5095 -0.2472
 1294TIP3    H125297   5.037   4.393  15.136  0.1476 -0.5953 -0.4996
 1294TIP3    H225298   4.964   4.427  15.008 -1.4848 -0.9550  0.3147
 1295TIP3   OH225299   2.379   3.724   2.092 -0.2125 -1.0012  0.7393
 1295TIP3    H125300   2.413   3.661   2.155  0.9581  0.4649  1.6497
 1295TIP3    H225301   2.403   3.688   2.006  1.4986 -1.2600  1.2754
 1296TIP3   OH225302   5.696   3.451  11.846  0.1462  0.5109  0.3274
 1296TIP3    H125303   5.734   3.463  11.759  0.0235  0.7923  0.3107
 1296TIP3    H225304   5.613   3.406  11.829 -0.5652  1.8504  0.1644
 1297TIP3   OH225305   1.351   0.307  12.177 -0.2012 -0.0812  0.6727
 1297TIP3    H125306   1.295   0.234  12.203  0.6048 -1.2736 -0.7222
 1297TIP3    H225307   1.419   0.310  12.244  0.0364 -0.9696  0.4897
 1298TIP3   OH225308   4.348   2.121  16.554  0.4829  0.4137  0.7224
 1298TIP3    H125309   4.386   2.054  16.498  1.3538  0.5731  1.0926
 1298TIP3    H225310   4.375   2.204  16.513 -1.3661  0.5709 -0.2571
 1299TIP3   OH225311   5.286   4.250   0.238 -0.0740  0.8970  0.1916
 1299TIP3    H125312   5.332   4.248   0.322  0.6944  0.0497 -0.2278
 1299TIP3    H225313   5.255   4.160   0.226 -1.9292  1.4470  0.4849
 1300TIP3   OH225314   1.033   5.753   0.893 -0.6610  0.7193 -0.4109
 1300TIP3    H125315   1.109   5.788   0.938 -0.4241 -1.2893  0.8604
 1300TIP3    H225316   1.069   5.699   0.823 -0.8657 -0.6433  0.5087
 1301TIP3   OH225317   2.278   4.371  11.683  0.1225  0.2928 -0.4100
 1301TIP3    H125318   2.240   4.359  11.596 -1.7595  0.6748  0.3239
 1301TIP3    H225319   2.203   4.371  11.742  1.2551  1.3119  1.0894
 1302TIP3   OH225320   6.299   1.075   3.614  0.0316  0.3365 -0.0070
 1302TIP3    H125321   6.389   1.105   3.627  0.2865 -0.0162 -0.8899
 1302TIP3    H225322   6.245   1.154   3.620  0.3306  0.4694  1.0945
 1303TIP3   OH225323   5.934   0.928   3.889 -0.1680  0.4188  0.3347
 1303TIP3    H125324   5.950   0.848   3.839 -1.5704  0.6638 -0.5671
 1303TIP3    H225325   5.843   0.921   3.917  0.5343  0.3191  2.8784
 1304TIP3   OH225326   2.025   3.689  12.055  0.0951  1.1273  0.2337
 1304TIP3    H125327   1.978   3.760  12.012  1.3813  1.8048 -0.1081
 1304TIP3    H225328   2.054   3.633  11.984 -1.5579 -0.2117  0.5425
 1305TIP3   OH225329   3.940   4.143  13.722  0.3562  0.2137  0.1368
 1305TIP3    H125330   3.990   4.123  13.643  0.9525  2.0442  0.0066
 1305TIP3    H225331   4.006   4.170  13.786 -0.2639  0.3476  0.7302
 1306TIP3   OH225332   4.417   4.932  14.729  0.4590 -0.0462 -0.3852
 1306TIP3    H125333   4.324   4.910  14.720  0.4243 -0.7918  1.3706
 1306TIP3    H225334   4.463   4.869  14.674 -0.0641  0.1289 -1.0238
 1307TIP3   OH225335   5.761   2.211   6.491 -0.2141  0.3006  0.1423
 1307TIP3    H125336   5.746   2.296   6.449  0.5045  1.9712  2.9887
 1307TIP3    H225337   5.842   2.178   6.451 -0.4795  0.9345 -0.9737
 1308TIP3   OH225338   4.468   2.122  12.162 -0.2276  0.2314  0.0537
 1308TIP3    H125339   4.487   2.174  12.240 -0.8469 -1.1642  1.1923
 1308TIP3    H225340   4.373   2.110  12.164 -0.1897 -0.2347 -0.6345
 1309TIP3   OH225341   6.697   5.058  13.780 -0.7041  0.0762 -0.2414
 1309TIP3    H125342   6.714   5.005  13.857 -0.2874 -1.1876 -1.1626
 1309TIP3    H225343   6.774   5.115  13.772  2.0656 -3.5158 -2.6692
 1310TIP3   OH225344   5.879   4.235   2.741  0.4893  1.0476 -0.7757
 1310TIP3    H125345   5.851   4.230   2.832  0.1186  0.7482 -0.9055
 1310TIP3    H225346   5.919   4.321   2.732 -0.9022  1.7184 -0.7402
 1311TIP3   OH225347   6.136   4.525  16.461 -0.0631  0.5279 -0.5004
 1311TIP3    H125348   6.155   4.451  16.518 -1.7182 -1.0612 -1.8795
 1311TIP3    H225349   6.098   4.591  16.519 -1.5050 -0.9565  0.3142
 1312TIP3   OH225350   5.554   2.551   3.249 -0.4372 -0.5099  0.1860
 1312TIP3    H125351   5.636   2.510   3.222  0.1395  0.5918  0.2081
 1312TIP3    H225352   5.581   2.632   3.292 -1.3353 -1.5878  3.0539
 1313TIP3   OH225353   2.582   5.356   2.917 -0.3267 -0.0285 -0.2420
 1313TIP3    H125354   2.550   5.442   2.890 -0.8158 -0.4288 -0.9645
 1313TIP3    H225355   2.660   5.375   2.969 -0.8924  0.8852  0.2972
 1314TIP3   OH225356   6.205   2.660  17.066 -0.7970  0.0944 -0.2955
 1314TIP3    H125357   6.125   2.655  17.117  0.1421  0.0235  1.2303
 1314TIP3    H225358   6.266   2.708  17.122 -0.4935  2.4200 -2.4162
 1315TIP3   OH225359   2.596   1.922   4.360 -0.1826 -0.6965  0.1257
 1315TIP3    H125360   2.552   1.944   4.442 -1.7457 -1.2602 -0.5153
 1315TIP3    H225361   2.593   1.826   4.357 -1.1319 -0.6581 -1.0604
 1316TIP3   OH225362   0.041   1.209   2.468 -0.1576  0.5814  0.8553
 1316TIP3    H125363  -0.019   1.265   2.418  0.5975  0.5250 -0.1322
 1316TIP3    H225364   0.102   1.175   2.403 -0.9130 -1.8641  1.3126
 1317TIP3   OH225365   6.194   1.123  16.656  0.1947  0.2776  0.0709
 1317TIP3    H125366   6.159   1.150  16.741 -0.4504  0.5185 -0.2629
 1317TIP3    H225367   6.278   1.168  16.649 -0.8606  2.3075 -0.4858
 1318TIP3   OH225368   4.517   5.415  17.139 -0.4835 -0.0493  0.5119
 1318TIP3    H125369   4.603   5.456  17.149 -0.4629 -0.2468  1.1863
 1318TIP3    H225370   4.471   5.471  17.077  0.9297 -1.1942 -1.7054
 1319TIP3   OH225371   0.610   2.874   0.298 -0.2889 -0.5287  0.2504
 1319TIP3    H125372   0.558   2.836   0.227  1.0804  0.6491 -1.4493
 1319TIP3    H225373   0.698   2.838   0.287  0.7018  1.9769 -0.5725
 1320TIP3   OH225374   3.527   1.080  11.422 -0.0458 -0.2467  0.0986
 1320TIP3    H125375   3.496   1.166  11.448 -1.4331 -0.8093  0.3734
 1320TIP3    H225376   3.620   1.080  11.447 -0.9062 -0.2162  3.8391
 1321TIP3   OH225377   3.900   5.042   3.942 -0.0137  0.1968  0.1322
 1321TIP3    H125378   3.869   5.046   4.032  0.3511  0.6807  0.2361
 1321TIP3    H225379   3.995   5.035   3.949 -0.0513 -0.7432 -0.1983
 1322TIP3   OH225380   0.574   1.725   0.321  0.0677  0.0176 -0.0797
 1322TIP3    H125381   0.543   1.635   0.338 -0.5653  0.2632  0.1129
 1322TIP3    H225382   0.543   1.775   0.397 -0.5457  0.6189 -0.7134
 1323TIP3   OH225383   2.611   3.319  12.678  0.5376 -0.5388  0.0752
 1323TIP3    H125384   2.564   3.252  12.628  0.3523  0.6915 -1.4769
 1323TIP3    H225385   2.589   3.300  12.770 -1.2626 -1.2933 -0.4557
 1324TIP3   OH225386   0.157   5.514  14.119  0.1111 -0.8102 -0.2519
 1324TIP3    H125387   0.099   5.551  14.053  0.3074  0.5243  0.2751
 1324TIP3    H225388   0.162   5.582  14.187  0.6413 -1.7583  0.6963
 1325TIP3   OH225389   6.268   0.953  13.715  0.0935 -0.7185 -0.0679
 1325TIP3    H125390   6.330   0.995  13.656  0.8894 -0.2687  1.0548
 1325TIP3    H225391   6.255   0.865  13.678 -0.7102  0.0960 -1.7988
 1326TIP3   OH225392   3.281   1.510   4.509  0.3809 -0.6760  0.0926
 1326TIP3    H125393   3.308   1.419   4.497 -0.4435 -0.7562 -1.4160
 1326TIP3    H225394   3.198   1.517   4.463  0.0435  0.6624  0.8460
 1327TIP3   OH225395   0.213   3.978   2.944 -0.0794  0.3084  0.1134
 1327TIP3    H125396   0.256   3.997   3.027 -2.8612 -1.2601  2.0797
 1327TIP3    H225397   0.145   4.045   2.936 -1.4037 -0.9519  0.4108
 1328TIP3   OH225398   3.990   1.395   0.204  0.0513  0.2036  0.2977
 1328TIP3    H125399   4.008   1.483   0.236  0.7976  0.4165 -0.6495
 1328TIP3    H225400   4.075   1.350   0.210  0.2295  0.2497 -1.2952
 1329TIP3   OH225401   1.859   2.802   1.843 -1.0440  0.6596 -0.0755
 1329TIP3    H125402   1.905   2.753   1.776 -0.0654  1.1127  0.2538
 1329TIP3    H225403   1.897   2.890   1.840 -0.8621  0.6484  1.1624
 1330TIP3   OH225404   1.173   0.528  16.128  1.1635  0.2341 -0.3315
 1330TIP3    H125405   1.214   0.591  16.068  0.4366  0.5835 -0.4754
 1330TIP3    H225406   1.225   0.533  16.208  2.2631 -0.3749 -0.9912
 1331TIP3   OH225407   0.494   3.102  16.340 -0.2955 -0.7713  0.0057
 1331TIP3    H125408   0.482   3.168  16.408  1.2654 -1.5908  1.1298
 1331TIP3    H225409   0.416   3.046  16.347 -0.1923 -0.8014  1.0734
 1332TIP3   OH225410   2.944   5.895  13.662 -0.5790 -0.3419 -0.1939
 1332TIP3    H125411   2.886   5.894  13.585 -0.6420  1.5973 -0.2171
 1332TIP3    H225412   3.032   5.898  13.625 -0.5090 -1.5797 -0.1609
 1333TIP3   OH225413   6.009   3.726   3.232 -0.1030 -0.0569 -0.3087
 1333TIP3    H125414   5.967   3.649   3.193 -1.1553 -0.1461  0.9226
 1333TIP3    H225415   5.965   3.801   3.190 -1.1508 -0.1527  0.5575
 1334TIP3   OH225416   0.314   0.946  16.679  0.6908  0.0960  0.5064
 1334TIP3    H125417   0.352   0.858  16.675 -1.1934 -0.7336 -2.7476
 1334TIP3    H225418   0.385   1.004  16.649  1.1678 -0.6874  0.0731
 1335TIP3   OH225419   5.720   2.363  14.618 -0.3889  0.8218 -0.0496
 1335TIP3    H125420   5.689   2.273  14.613  0.3660  0.5872 -0.7020
 1335TIP3    H225421   5.735   2.377  14.712 -0.4046  0.2320  0.0480
 1336TIP3   OH225422   4.553   0.442  12.940  0.7083 -0.1182 -0.2739
 1336TIP3    H125423   4.616   0.511  12.960  1.3363 -0.7261 -0.0928
 1336TIP3    H225424   4.483   0.454  13.005 -0.4072  1.8117 -1.7486
 1337TIP3   OH225425   6.138   4.081  15.137  0.0630  0.1800 -0.0329
 1337TIP3    H125426   6.216   4.031  15.163  0.0425  1.1641  2.0791
 1337TIP3    H225427   6.086   4.087  15.216 -0.8861  1.8710 -0.7452
 1338TIP3   OH225428   5.301   6.088   4.754  0.5485 -0.3317 -0.2409
 1338TIP3    H125429   5.226   6.032   4.736  0.3626 -0.0660 -0.2970
 1338TIP3    H225430   5.371   6.028   4.779  0.3304 -0.5818 -0.2355
 1339TIP3   OH225431   3.942   4.183  11.561  0.5947  0.7225  0.3986
 1339TIP3    H125432   3.988   4.150  11.638 -2.1847 -1.5329  1.2496
 1339TIP3    H225433   4.001   4.162  11.488  1.7165 -0.3634  1.5530
 1340TIP3   OH225434   0.017   4.276  13.671  0.1387 -0.7603  0.6022
 1340TIP3    H125435   0.006   4.360  13.716  0.8994  0.2799 -1.0474
 1340TIP3    H225436   0.103   4.245  13.700  1.4364  0.7609 -1.2939
 1341TIP3   OH225437   3.160   1.147   5.780 -0.1011  0.0388  0.3377
 1341TIP3    H125438   3.218   1.096   5.836  0.2288  0.2758  0.2189
 1341TIP3    H225439   3.209   1.156   5.698  0.1375  1.1110  0.5786
 1342TIP3   OH225440   4.821   5.682   1.590  0.7606  0.5474  0.0560
 1342TIP3    H125441   4.856   5.597   1.562  0.1156  0.1454  0.4415
 1342TIP3    H225442   4.860   5.745   1.529  0.9050 -0.0780 -0.5150
 1343TIP3   OH225443   0.254   1.153  11.787 -0.0572  0.8587  0.3660
 1343TIP3    H125444   0.316   1.211  11.743  0.2150 -1.1603 -2.1631
 1343TIP3    H225445   0.172   1.201  11.788  0.3018  1.5402 -1.0889
 1344TIP3   OH225446   1.605   1.998  11.283 -0.3899  0.4127 -0.0786
 1344TIP3    H125447   1.691   1.981  11.321 -0.8455  0.0745  0.8180
 1344TIP3    H225448   1.551   2.027  11.356 -1.3374 -0.4387 -0.4132
 1345TIP3   OH225449   5.222   4.266  16.558  0.1873  0.5355  0.7332
 1345TIP3    H125450   5.311   4.232  16.552 -0.6882 -1.8907 -4.4565
 1345TIP3    H225451   5.214   4.327  16.485 -2.2523  1.0845  1.3458
 1346TIP3   OH225452   6.630   4.000  17.205 -0.7129 -0.5349 -0.0064
 1346TIP3    H125453   6.675   3.952  17.135  1.0550  0.1753  0.5647
 1346TIP3    H225454   6.589   4.074  17.159  1.7607  0.8415 -0.2265
 1347TIP3   OH225455   1.028   5.877  16.140  0.4517  0.0004  0.2292
 1347TIP3    H125456   0.950   5.869  16.085  1.0686  0.8888 -0.7933
 1347TIP3    H225457   1.092   5.922  16.086  0.9086  1.4099  1.8425
 1348TIP3   OH225458   5.846   6.425   4.591  0.0783  0.3036  0.7283
 1348TIP3    H125459   5.934   6.454   4.566  1.1803 -1.1837  2.6216
 1348TIP3    H225460   5.855   6.395   4.681 -2.5141  0.5527  1.1428
 1349TIP3   OH225461   1.200   1.455   4.433 -0.2486 -0.4786  0.8171
 1349TIP3    H125462   1.197   1.367   4.471  1.0428 -0.6599  0.5509
 1349TIP3    H225463   1.264   1.448   4.363 -2.3154 -0.0627 -1.2361
 1350TIP3   OH225464   0.147   2.470   6.465 -0.7947 -0.3721  0.2423
 1350TIP3    H125465   0.226   2.507   6.426 -0.1536 -0.9451  0.9635
 1350TIP3    H225466   0.133   2.387   6.419 -1.1946 -0.1066 -0.1302
 1351TIP3   OH225467   1.335   1.279   3.183 -0.8471  0.5152 -0.2785
 1351TIP3    H125468   1.383   1.323   3.112 -1.1628 -0.5031 -1.1567
 1351TIP3    H225469   1.361   1.326   3.262  0.2112  1.1201 -0.9574
 1352TIP3   OH225470   1.919   3.635  13.871  0.0174 -0.2029 -0.0247
 1352TIP3    H125471   1.900   3.607  13.961 -0.4072 -0.6114 -0.2357
 1352TIP3    H225472   1.838   3.617  13.823 -0.8468  2.6810  0.1106
 1353TIP3   OH225473   2.093   2.926  11.059  0.4339 -0.0488 -0.4526
 1353TIP3    H125474   2.180   2.938  11.097 -0.0738  0.3593  0.6294
 1353TIP3    H225475   2.101   2.847  11.007  0.8722 -1.3445  1.4812
 1354TIP3   OH225476   2.146   2.507  14.299  0.7818 -0.8118 -0.2657
 1354TIP3    H125477   2.210   2.473  14.360 -0.7680 -0.9934  1.3253
 1354TIP3    H225478   2.075   2.541  14.354 -0.7570 -1.1342 -1.9393
 1355TIP3   OH225479   0.821   6.191  14.493 -0.0143  0.2845  0.8016
 1355TIP3    H125480   0.830   6.158  14.583  0.6578  0.2849  0.7364
 1355TIP3    H225481   0.849   6.282  14.497 -1.1979  0.6755  0.8350
 1356TIP3   OH225482   0.259   4.741   6.161 -0.6233  0.0793  0.4272
 1356TIP3    H125483   0.350   4.747   6.192  0.3569  0.3622 -2.2060
 1356TIP3    H225484   0.206   4.762   6.238  1.4885 -0.9910  2.2889
 1357TIP3   OH225485   0.818   5.121  12.094 -0.0773 -0.4469 -0.2900
 1357TIP3    H125486   0.895   5.130  12.151 -0.5009  2.6793 -0.0404
 1357TIP3    H225487   0.745   5.105  12.154 -0.0273 -0.6424 -0.2806
 1358TIP3   OH225488   0.602   0.609  15.170  0.2832  0.0666 -0.2339
 1358TIP3    H125489   0.685   0.561  15.167 -0.2879 -0.9593 -0.1813
 1358TIP3    H225490   0.555   0.581  15.091 -0.0431  0.5909 -0.2335
 1359TIP3   OH225491   1.173   6.123   3.708  0.3127  0.8361 -0.1704
 1359TIP3    H125492   1.171   6.114   3.803 -0.7028 -1.4077 -0.3346
 1359TIP3    H225493   1.261   6.155   3.689  0.9734  0.1038  1.4452
 1360TIP3   OH225494   5.814   1.698   5.726 -0.0173 -0.2797 -0.3223
 1360TIP3    H125495   5.818   1.613   5.769 -0.0776  0.0233  0.2833
 1360TIP3    H225496   5.888   1.746   5.761 -1.1395  0.6309  0.8713
 1361TIP3   OH225497   3.469   4.553  13.132 -0.1751  0.4804 -0.3691
 1361TIP3    H125498   3.434   4.640  13.150  0.7493  0.4896  1.6171
 1361TIP3    H225499   3.393   4.502  13.104 -1.2616  1.2111  1.1028
 1362TIP3   OH225500   5.988   5.020   1.223  0.4132  0.4258  0.4333
 1362TIP3    H125501   6.016   5.023   1.315  0.0835 -2.5061  0.7105
 1362TIP3    H225502   5.898   4.988   1.227  0.6633 -0.5035 -0.9393
 1363TIP3   OH225503   0.242   6.595  14.429 -0.0749 -0.2853  0.1504
 1363TIP3    H125504   0.280   6.574  14.344  2.6334  0.4595  1.0707
 1363TIP3    H225505   0.229   6.690  14.427  1.4814 -0.0174  1.0475
 1364TIP3   OH225506   5.847   2.468  12.170  0.2109 -0.3374 -0.4117
 1364TIP3    H125507   5.864   2.510  12.086 -0.0155 -0.8314 -0.7110
 1364TIP3    H225508   5.853   2.538  12.234  0.4032  0.0400 -0.8407
 1365TIP3   OH225509   2.687   3.485  11.439 -0.1394  0.0589 -0.9314
 1365TIP3    H125510   2.674   3.398  11.476  3.0816 -0.6942 -1.3065
 1365TIP3    H225511   2.625   3.488  11.365 -0.5527 -1.7704 -0.7171
 1366TIP3   OH225512   5.493   3.779   2.841  0.5740 -0.6640  0.2947
 1366TIP3    H125513   5.494   3.870   2.814 -1.3389 -0.1807  1.6675
 1366TIP3    H225514   5.585   3.752   2.837  1.5660  2.0101  2.1081
 1367TIP3   OH225515   5.360   5.694  14.088  0.5003 -0.3844  0.8205
 1367TIP3    H125516   5.374   5.748  14.010  2.4210 -0.4401  1.0792
 1367TIP3    H225517   5.279   5.728  14.127 -0.8491 -0.7619 -1.4859
 1368TIP3   OH225518   1.931   3.747   0.511 -0.3246  0.1135 -0.4054
 1368TIP3    H125519   1.960   3.803   0.583  0.1601  1.3468 -1.5237
 1368TIP3    H225520   2.012   3.713   0.473 -0.5082  0.5286 -1.1833
 1369TIP3   OH225521   0.573   1.786   2.142  0.4031 -0.2677 -0.0944
 1369TIP3    H125522   0.591   1.859   2.084 -0.4892 -0.3441 -0.4746
 1369TIP3    H225523   0.523   1.724   2.089  1.1295 -1.1495  0.2265
 1370TIP3   OH225524   6.129   2.781   1.092 -0.1588 -0.3585 -0.6772
 1370TIP3    H125525   6.099   2.786   1.183  0.3912 -0.5068 -0.4851
 1370TIP3    H225526   6.220   2.752   1.099 -0.0096 -0.0252 -1.2604
 1371TIP3   OH225527   4.950   1.888  10.749 -0.4433  0.0281  0.3489
 1371TIP3    H125528   4.944   1.983  10.736 -0.7736  0.1258  1.1457
 1371TIP3    H225529   5.041   1.867  10.728  0.1179  0.8101  1.8116
 1372TIP3   OH225530   3.547   1.516  12.113 -0.8117 -0.0151 -0.4533
 1372TIP3    H125531   3.584   1.507  12.201 -1.5277 -1.3924 -0.2586
 1372TIP3    H225532   3.593   1.451  12.061 -1.0166  0.1867 -0.8880
 1373TIP3   OH225533   4.805   5.514  12.342 -0.2710 -0.0482 -0.2981
 1373TIP3    H125534   4.874   5.476  12.397  0.1992  1.2249  0.0208
 1373TIP3    H225535   4.850   5.534  12.260 -1.2054 -2.9856 -1.6839
 1374TIP3   OH225536   5.839   3.045  16.276 -0.1325 -0.2925 -0.4355
 1374TIP3    H125537   5.868   3.050  16.367 -0.0265  0.5097 -0.5008
 1374TIP3    H225538   5.815   2.953  16.263 -1.5130 -0.1463  0.8134
 1375TIP3   OH225539   6.547   6.301   0.193 -0.3555 -0.1729 -0.6124
 1375TIP3    H125540   6.606   6.376   0.198  1.5845 -1.4927 -1.8955
 1375TIP3    H225541   6.588   6.243   0.129 -1.6909 -2.3861  0.4100
 1376TIP3   OH225542   2.106   4.803  12.505  0.7434 -0.4892 -0.5996
 1376TIP3    H125543   2.125   4.868  12.438 -0.7734  0.0112 -0.5890
 1376TIP3    H225544   2.010   4.802  12.511  0.7855 -1.7612  0.3496
 1377TIP3   OH225545   4.544   1.409  14.350 -0.6665  0.0178  0.2657
 1377TIP3    H125546   4.577   1.486  14.396 -0.6946 -0.7614  1.6178
 1377TIP3    H225547   4.480   1.444  14.287 -1.1019  1.0400  1.2559
 1378TIP3   OH225548   1.358   3.644   3.314  0.5701 -0.5916  0.0854
 1378TIP3    H125549   1.349   3.727   3.361 -2.4920 -0.1247 -1.0994
 1378TIP3    H225550   1.331   3.577   3.378  1.9218 -0.6225  0.6703
 1379TIP3   OH225551   0.260   1.892   6.557  0.0764 -0.1314  0.7508
 1379TIP3    H125552   0.335   1.914   6.502 -0.3050 -1.7336 -0.4775
 1379TIP3    H225553   0.298   1.859   6.638  0.6474  2.1396  1.4853
 1380TIP3   OH225554   2.489   2.486  13.095  0.5232 -0.6729 -0.2013
 1380TIP3    H125555   2.478   2.401  13.053  0.6879 -0.3468 -0.9310
 1380TIP3    H225556   2.559   2.529  13.045 -1.4885  1.0273 -1.7749
 1381TIP3   OH225557   2.758   5.301  15.527 -0.1106  0.7669  0.1244
 1381TIP3    H125558   2.736   5.356  15.603  1.1194  1.3177  0.1207
 1381TIP3    H225559   2.777   5.215  15.564  2.2596  1.4723  0.7374
 1382TIP3   OH225560   1.439   4.753  13.385  0.4873 -0.3607  0.7292
 1382TIP3    H125561   1.491   4.687  13.338  1.3013  1.6450 -1.4121
 1382TIP3    H225562   1.371   4.703  13.429  1.6654 -2.7088  0.0706
 1383TIP3   OH225563   2.581   2.392  12.780  0.5087  0.0101 -0.0137
 1383TIP3    H125564   2.645   2.321  12.781  0.8017  0.2538  1.3814
 1383TIP3    H225565   2.624   2.463  12.828 -0.1719  0.7695 -0.5082
 1384TIP3   OH225566   5.840   1.139  13.939  0.4840 -0.1313  0.2908
 1384TIP3    H125567   5.885   1.208  13.891 -0.6317  1.1706  1.0305
 1384TIP3    H225568   5.809   1.182  14.019 -0.8313 -1.3129  0.4507
 1385TIP3   OH225569   6.382   3.116  15.501  0.2028  0.1083 -0.3056
 1385TIP3    H125570   6.404   3.209  15.497 -1.4130  0.5534  0.2888
 1385TIP3    H225571   6.432   3.083  15.575 -0.3716  0.8864  0.4688
 1386TIP3   OH225572   1.312   0.283   0.572 -0.0432 -0.3219 -0.0311
 1386TIP3    H125573   1.367   0.212   0.606  0.3544 -0.2610 -0.5331
 1386TIP3    H225574   1.286   0.332   0.649 -1.9573 -2.1317  0.5933
 1387TIP3   OH225575   4.198   0.709   3.784  0.1387  0.2872 -1.1515
 1387TIP3    H125576   4.275   0.752   3.747  0.4547  1.1424  0.4336
 1387TIP3    H225577   4.163   0.772   3.847 -0.7359 -0.8604 -0.4511
 1388TIP3   OH225578   2.265   2.349  15.987  0.1311  0.2119 -0.3495
 1388TIP3    H125579   2.305   2.272  15.945 -1.0420  0.0144 -1.1446
 1388TIP3    H225580   2.204   2.383  15.921 -1.5989  0.0320  1.0924
 1389TIP3   OH225581   4.544   6.492   1.915 -0.0365  0.4257  1.0352
 1389TIP3    H125582   4.568   6.416   1.969  0.2617  0.1338  0.5040
 1389TIP3    H225583   4.450   6.504   1.931 -0.5818 -1.3255 -0.3706
 1390TIP3   OH225584   4.565   0.305  10.915  0.2407  0.1835 -0.3759
 1390TIP3    H125585   4.560   0.370  10.845 -1.3915 -1.2151 -1.6458
 1390TIP3    H225586   4.545   0.222  10.872  1.3798 -1.0541  1.3687
 1391TIP3   OH225587   3.267   3.719  13.247  0.3556 -1.0185 -0.3105
 1391TIP3    H125588   3.245   3.762  13.329  0.8450 -1.5119  0.0890
 1391TIP3    H225589   3.286   3.628  13.272  3.6762 -0.4747 -0.4763
 1392TIP3   OH225590   1.833   5.709  14.987 -0.0186 -0.2728 -0.4578
 1392TIP3    H125591   1.908   5.753  14.946  0.4457 -1.1750 -0.6006
 1392TIP3    H225592   1.759   5.766  14.969  0.6743  0.7831 -0.0848
 1393TIP3   OH225593   0.236   6.030   2.662 -0.3702  0.4104  0.1284
 1393TIP3    H125594   0.201   5.941   2.665 -1.8590  0.9907  0.9792
 1393TIP3    H225595   0.311   6.028   2.722 -0.6955 -0.1534  0.5295
 1394TIP3   OH225596   2.242   4.930  10.943  0.3638  0.0670 -0.4817
 1394TIP3    H125597   2.218   4.837  10.945 -0.7358  0.3424  0.8453
 1394TIP3    H225598   2.337   4.931  10.954  0.5719 -0.9345 -1.9292
 1395TIP3   OH225599   1.285   2.073   0.910 -0.5859  0.0251 -0.3006
 1395TIP3    H125600   1.330   2.154   0.935 -1.0066  0.6563 -1.4669
 1395TIP3    H225601   1.355   2.009   0.897 -0.2650  0.1257  0.8757
 1396TIP3   OH225602   4.038   1.542   1.028  0.8578 -1.2234 -0.6504
 1396TIP3    H125603   3.996   1.627   1.043 -0.7212 -1.9880 -0.5977
 1396TIP3    H225604   4.122   1.550   1.074 -0.0323 -0.3238  0.9466
 1397TIP3   OH225605   3.639   0.413  13.068  0.0892 -0.4335 -0.3571
 1397TIP3    H125606   3.570   0.444  13.010 -0.4773 -0.3987  0.3179
 1397TIP3    H225607   3.718   0.415  13.015 -0.6474 -1.7679 -1.5746
 1398TIP3   OH225608   3.260   2.112   1.516 -0.3589 -0.2620  0.4446
 1398TIP3    H125609   3.318   2.187   1.499 -0.5621 -0.2178 -0.0662
 1398TIP3    H225610   3.242   2.117   1.610  0.3234 -0.1747  0.5744
 1399TIP3   OH225611   2.902   4.305  17.318  0.6228  0.2369  0.0360
 1399TIP3    H125612   2.929   4.229  17.369 -0.3002  0.0232  0.2294
 1399TIP3    H225613   2.918   4.380  17.376  2.3001  0.3026 -0.4531
 1400TIP3   OH225614   2.991   0.279  15.123 -0.2392 -0.2802 -0.0208
 1400TIP3    H125615   2.986   0.213  15.191  1.1432 -0.6210 -0.2349
 1400TIP3    H225616   2.900   0.308  15.112 -0.5991 -0.7818  1.3888
 1401TIP3   OH225617   1.677   3.974   2.711 -0.0953 -0.1899 -0.2869
 1401TIP3    H125618   1.649   3.911   2.645  0.9402 -1.6455  0.6060
 1401TIP3    H225619   1.600   3.986   2.767 -1.1205  1.3825 -1.9176
 1402TIP3   OH225620   6.422   5.455   3.945 -0.2633 -0.4353  0.1366
 1402TIP3    H125621   6.435   5.530   4.004  0.4858 -0.2681 -0.2339
 1402TIP3    H225622   6.448   5.379   3.996  0.3845 -0.2897  0.0354
 1403TIP3   OH225623   1.951   4.925  14.443  0.0972 -0.2183  1.0567
 1403TIP3    H125624   2.034   4.944  14.400 -0.7758  1.4817 -0.0175
 1403TIP3    H225625   1.902   4.872  14.380 -1.0056  1.8944  0.0138
 1404TIP3   OH225626   1.742   1.383  16.287  0.3614 -0.3510  0.9325
 1404TIP3    H125627   1.714   1.417  16.372  0.2517 -3.0709  2.0842
 1404TIP3    H225628   1.791   1.304  16.308 -0.4983 -1.6572 -1.5845
 1405TIP3   OH225629   4.351   6.704   2.752 -0.9277  0.2917 -0.0101
 1405TIP3    H125630   4.305   6.623   2.774 -0.8252  0.2667  0.1114
 1405TIP3    H225631   4.339   6.713   2.658 -0.3739 -0.2174 -0.1388
 1406TIP3   OH225632   5.647   5.054   4.832 -0.3166  0.0572 -0.2944
 1406TIP3    H125633   5.649   5.068   4.926 -0.8666 -0.7810 -0.1473
 1406TIP3    H225634   5.568   5.098   4.802 -1.2136 -1.3410 -0.0577
 1407TIP3   OH225635   6.697   5.638  15.071 -0.0918 -0.5089  0.0842
 1407TIP3    H125636   6.705   5.704  15.140  0.9952  1.3057 -1.6608
 1407TIP3    H225637   6.783   5.637  15.029 -0.1440 -2.9157 -0.1253
 1408TIP3   OH225638   3.417   1.516  15.413  0.1910  0.0588 -0.8352
 1408TIP3    H125639   3.329   1.487  15.391 -0.5794  1.6095  0.0518
 1408TIP3    H225640   3.468   1.498  15.334 -0.3897 -2.7377 -0.6726
 1409TIP3   OH225641   5.315   2.956   3.443 -0.3443 -0.3840  0.5777
 1409TIP3    H125642   5.316   2.874   3.493  0.5435 -1.4580 -1.0714
 1409TIP3    H225643   5.371   2.937   3.367 -1.7132  1.0971 -0.8663
 1410TIP3   OH225644   5.478   4.428   1.001  0.6908  0.3455 -0.2634
 1410TIP3    H125645   5.526   4.499   1.045  0.8529  0.2337 -0.2567
 1410TIP3    H225646   5.404   4.471   0.959  1.8849  0.8353 -1.9573
 1411TIP3   OH225647   0.933   5.344  16.650 -0.0900  0.1425  0.2766
 1411TIP3    H125648   0.853   5.391  16.628 -0.1104 -0.0029  0.0384
 1411TIP3    H225649   0.920   5.315  16.740 -0.4474 -0.1747  0.1246
 1412TIP3   OH225650   3.019   2.575  15.818  0.1193  0.7045  0.0971
 1412TIP3    H125651   3.077   2.535  15.753 -1.2958 -1.4228  0.0389
 1412TIP3    H225652   2.936   2.587  15.772 -0.5214  0.3655  1.1189
 1413TIP3   OH225653   2.211   6.234  16.463  0.3986  0.0045  0.2029
 1413TIP3    H125654   2.161   6.280  16.396  1.8159 -0.1391 -1.0076
 1413TIP3    H225655   2.179   6.143  16.458 -1.1235  0.4370  1.3563
 1414TIP3   OH225656   6.531   6.374   2.193  0.4049 -0.1251  0.0049
 1414TIP3    H125657   6.568   6.426   2.265  0.9307 -0.6230  0.1061
 1414TIP3    H225658   6.551   6.283   2.217  1.1040 -0.2656 -1.0591
 1415TIP3   OH225659   5.788   2.988  14.897  0.6675 -0.0351 -0.3257
 1415TIP3    H125660   5.731   3.055  14.857  3.1092  2.5172  0.1774
 1415TIP3    H225661   5.732   2.910  14.902 -2.0219  1.5953 -1.9683
 1416TIP3   OH225662   1.460   5.080   5.883  0.5829 -0.2559  0.0318
 1416TIP3    H125663   1.364   5.082   5.881  0.5251 -0.9380  1.2175
 1416TIP3    H225664   1.482   5.054   5.973  1.8792 -0.3615 -0.2917
 1417TIP3   OH225665   6.040   1.023  16.167  0.2276  0.2477 -0.1485
 1417TIP3    H125666   5.960   1.068  16.140  0.0106 -1.1883 -2.0966
 1417TIP3    H225667   6.011   0.958  16.231 -0.1690 -0.2162 -0.7907
 1418TIP3   OH225668   4.199   1.635   3.580 -0.0163  0.2575 -0.1141
 1418TIP3    H125669   4.212   1.541   3.595 -0.8744 -0.0734 -1.3119
 1418TIP3    H225670   4.248   1.654   3.500  0.4247  0.9142  0.3019
 1419TIP3   OH225671   3.580   1.206   2.192  0.0342  0.4870  0.8067
 1419TIP3    H125672   3.642   1.171   2.128 -1.8474  0.0287 -0.8643
 1419TIP3    H225673   3.548   1.128   2.238  0.3845  0.6791  1.3779
 1420TIP3   OH225674   3.716   5.967  10.881 -0.4392  0.0508 -0.2626
 1420TIP3    H125675   3.810   5.962  10.862  0.2653 -2.9394  2.9039
 1420TIP3    H225676   3.702   6.058  10.908  1.6476  0.4514 -0.3131
 1421TIP3   OH225677   6.481   4.591  16.195  0.6169 -0.3727  0.1412
 1421TIP3    H125678   6.484   4.658  16.264  0.6400 -0.8553  0.6206
 1421TIP3    H225679   6.388   4.578  16.179  0.6185  0.1466 -0.3337
 1422TIP3   OH225680   2.494   6.087   0.122 -0.0735 -0.4872  0.0314
 1422TIP3    H125681   2.469   6.179   0.135 -3.5408 -0.9045 -2.3203
 1422TIP3    H225682   2.564   6.072   0.185  2.5479  4.4296 -1.1492
 1423TIP3   OH225683   5.527   5.198  14.347 -0.4025 -0.1416 -0.7164
 1423TIP3    H125684   5.508   5.206  14.253  0.2793 -1.8937 -1.0554
 1423TIP3    H225685   5.507   5.284  14.383 -2.4579  0.0505 -2.1487
 1424TIP3   OH225686   4.384   6.127   4.643  0.0885  0.3250 -0.5445
 1424TIP3    H125687   4.428   6.058   4.593  1.2964  0.5215  0.2064
 1424TIP3    H225688   4.337   6.081   4.712  1.7375  0.2626  0.5964
 1425TIP3   OH225689   3.328   5.384   2.419  0.5431  0.0843 -0.4244
 1425TIP3    H125690   3.357   5.320   2.483  2.2798  0.4862 -0.7545
 1425TIP3    H225691   3.358   5.468   2.453 -0.0457  0.5027 -0.9103
 1426TIP3   OH225692   4.490   2.492  17.304 -0.5214 -0.1277  0.6787
 1426TIP3    H125693   4.423   2.514  17.239 -1.0337  0.8174  1.4887
 1426TIP3    H225694   4.450   2.422  17.357 -0.8512  0.3678  1.0991
 1427TIP3   OH225695   4.642   1.347  11.365  0.1511  0.1911  0.0204
 1427TIP3    H125696   4.689   1.429  11.381 -1.7665  0.9006  2.6223
 1427TIP3    H225697   4.711   1.280  11.363  1.7470  1.7481 -2.0604
 1428TIP3   OH225698   4.564   1.014   5.699 -0.0418  0.0435 -0.2931
 1428TIP3    H125699   4.613   1.073   5.642  0.0701  0.6178  0.3885
 1428TIP3    H225700   4.527   1.071   5.767 -1.3843 -0.4162 -0.6033
 1429TIP3   OH225701   2.232   4.901   4.194 -0.4197  0.5602 -0.0075
 1429TIP3    H125702   2.157   4.945   4.153 -0.8550  0.0153  0.1874
 1429TIP3    H225703   2.252   4.955   4.271  0.6982  1.8453 -1.1537
 1430TIP3   OH225704   1.530   1.551  16.926  0.3236  0.1984 -0.4232
 1430TIP3    H125705   1.581   1.516  16.999  0.9730  1.4639 -0.2396
 1430TIP3    H225706   1.596   1.586  16.866 -0.2994  2.6700  0.2201
 1431TIP3   OH225707   4.884   0.510  14.823  0.5415  0.1071 -0.8343
 1431TIP3    H125708   4.942   0.582  14.848 -0.3151 -0.2319  2.5601
 1431TIP3    H225709   4.858   0.470  14.905 -1.8221 -1.9083 -2.4141
 1432TIP3   OH225710   1.745   1.849  10.753  0.6540  0.2419  0.1612
 1432TIP3    H125711   1.683   1.855  10.826  0.1495 -2.1456 -0.0122
 1432TIP3    H225712   1.728   1.928  10.701 -0.3582  0.9759  1.5595
 1433TIP3   OH225713   3.868   4.226  16.526  0.1790 -0.1614 -0.0877
 1433TIP3    H125714   3.812   4.158  16.486 -0.7645  0.2983  0.4117
 1433TIP3    H225715   3.955   4.186  16.530  0.0686 -0.6313 -1.5659
 1434TIP3   OH225716   6.639   4.638  13.390 -0.5537 -0.5383  0.3791
 1434TIP3    H125717   6.639   4.708  13.325  0.1622 -0.0717  0.8639
 1434TIP3    H225718   6.678   4.678  13.468 -2.1603 -0.8373  1.3728
 1435TIP3   OH225719   3.452   1.698  10.281 -0.3642  0.4498 -0.0450
 1435TIP3    H125720   3.418   1.753  10.351 -0.2823  0.3594  0.0672
 1435TIP3    H225721   3.376   1.649  10.249 -0.5057  0.8874 -0.3871
 1436TIP3   OH225722   0.091   1.116  11.425 -0.1644  0.0322 -0.8474
 1436TIP3    H125723   0.054   1.151  11.506  1.9002  1.2385 -0.3764
 1436TIP3    H225724   0.033   1.043  11.403 -0.9164 -0.1973  1.5748
 1437TIP3   OH225725   4.780   4.553  15.567  0.2480 -0.4002  0.3178
 1437TIP3    H125726   4.845   4.591  15.626  0.1254  2.6450 -1.3048
 1437TIP3    H225727   4.701   4.604  15.582 -0.5683 -1.3350 -0.6134
 1438TIP3   OH225728   2.272   1.968   0.283 -0.0450  0.4434 -0.2540
 1438TIP3    H125729   2.265   1.874   0.296  2.2066  0.4756  1.8037
 1438TIP3    H225730   2.218   2.006   0.352  3.3580  0.5638  2.5954
 1439TIP3   OH225731   4.012   4.153  12.919  0.3223 -0.4514 -0.6488
 1439TIP3    H125732   3.928   4.114  12.943  0.1026  0.8052  0.8629
 1439TIP3    H225733   4.010   4.239  12.961  2.3157 -0.3518 -0.6763
 1440TIP3   OH225734   5.320   1.690   4.004 -0.2802 -0.0451 -0.0079
 1440TIP3    H125735   5.269   1.771   4.011 -0.1930  0.1523 -1.3293
 1440TIP3    H225736   5.403   1.717   3.963 -0.0347 -0.7196  0.0261
 1441TIP3   OH225737   5.603   5.507  14.745  0.0079  0.2897  0.6210
 1441TIP3    H125738   5.619   5.452  14.668  0.7311 -0.4730  1.2967
 1441TIP3    H225739   5.517   5.546  14.730 -1.0281 -1.8799  0.6044
 1442TIP3   OH225740   2.670   6.372   3.654  0.4151  0.5024 -0.6230
 1442TIP3    H125741   2.677   6.346   3.745  0.9327 -2.9273 -1.5215
 1442TIP3    H225742   2.759   6.365   3.619  0.2444  1.8262 -1.4371
 1443TIP3   OH225743   6.681   4.679   3.239  0.0932 -0.1737  0.2808
 1443TIP3    H125744   6.715   4.729   3.165 -1.1526  1.1760  0.5694
 1443TIP3    H225745   6.746   4.690   3.308 -0.4448  1.6234  0.5446
 1444TIP3   OH225746   3.363   2.381   3.492  0.2823 -0.0218  0.0190
 1444TIP3    H125747   3.270   2.362   3.502  0.7355 -1.7140  1.7755
 1444TIP3    H225748   3.369   2.438   3.415 -1.8658 -2.4773 -2.1440
 1445TIP3   OH225749   5.640   4.966  11.241 -0.5204  0.6631  0.3718
 1445TIP3    H125750   5.562   4.982  11.295 -0.3404 -0.7980  1.1090
 1445TIP3    H225751   5.609   4.906  11.173  0.2819 -1.2372  1.6140
 1446TIP3   OH225752   1.023   6.467   4.697  0.3308 -0.0860  0.3330
 1446TIP3    H125753   1.003   6.382   4.735  0.8918  0.3790  1.7264
 1446TIP3    H225754   1.089   6.449   4.630 -0.7054 -0.9268 -0.4943
 1447TIP3   OH225755   4.094   2.533  14.012 -1.2450 -0.0102  0.6779
 1447TIP3    H125756   4.165   2.584  13.975  0.0673  0.2064  3.2604
 1447TIP3    H225757   4.115   2.442  13.991 -1.4102  0.1997 -0.4410
 1448TIP3   OH225758   0.930   6.149   4.216  0.1298  0.3486 -0.2665
 1448TIP3    H125759   0.934   6.242   4.197  0.1989  0.2737 -0.6385
 1448TIP3    H225760   0.985   6.108   4.149  0.3499  0.0672  0.0817
 1449TIP3   OH225761   1.520   1.104  14.341 -0.5807 -0.4226  0.5830
 1449TIP3    H125762   1.510   1.029  14.282  0.7925 -0.0198 -0.2197
 1449TIP3    H225763   1.547   1.066  14.424  1.8769 -0.7807 -0.2914
 1450TIP3   OH225764   2.812   2.832  16.764  0.5129  0.0106 -0.6186
 1450TIP3    H125765   2.817   2.900  16.697  4.1371 -0.1548 -0.7016
 1450TIP3    H225766   2.865   2.760  16.730  1.9455 -0.3465  2.0589
 1451TIP3   OH225767   2.275   5.254   5.340 -0.0680 -0.1029  0.1024
 1451TIP3    H125768   2.274   5.274   5.246  0.8172 -0.0912  0.0822
 1451TIP3    H225769   2.329   5.323   5.379  0.4067 -0.6660  0.4727
 1452TIP3   OH225770   6.594   0.891  16.496 -0.2042  0.5926 -0.2708
 1452TIP3    H125771   6.651   0.958  16.534 -0.1903  0.9672 -0.9410
 1452TIP3    H225772   6.543   0.938  16.430  0.6256 -0.3000 -1.5682
 1453TIP3   OH225773   6.104   0.463  11.086 -0.2245  0.0928 -0.0900
 1453TIP3    H125774   6.065   0.376  11.089 -0.6023  0.2750  0.8363
 1453TIP3    H225775   6.030   0.523  11.083 -0.0737  0.4565  1.9901
 1454TIP3   OH225776   4.344   5.208  17.055  0.4781 -0.1454 -0.5615
 1454TIP3    H125777   4.426   5.256  17.068  0.3501  0.1751 -0.9100
 1454TIP3    H225778   4.285   5.272  17.015 -0.4825  0.0996  1.1814
 1455TIP3   OH225779   2.771   6.362  16.828  0.2598  0.3527 -0.0324
 1455TIP3    H125780   2.822   6.317  16.761 -1.8305 -0.0854 -1.4311
 1455TIP3    H225781   2.817   6.445  16.842  2.8680 -1.1503  0.8818
 1456TIP3   OH225782   1.570   2.054  16.194  0.0192  0.0718 -0.4782
 1456TIP3    H125783   1.660   2.043  16.224 -0.5880  0.1326  1.4577
 1456TIP3    H225784   1.570   2.139  16.150  0.5450  0.8691  1.0051
 1457TIP3   OH225785   6.450   6.599  14.585  0.2761  0.4829 -0.3226
 1457TIP3    H125786   6.531   6.552  14.603  0.1686  0.5372  0.3240
 1457TIP3    H225787   6.479   6.687  14.562  0.4532  0.2231 -1.1407
 1458TIP3   OH225788   5.526   0.664   6.358  0.7214 -0.3370  0.0122
 1458TIP3    H125789   5.438   0.628   6.354  0.0613  1.2898 -1.4092
 1458TIP3    H225790   5.583   0.592   6.331 -0.0126 -1.7653  2.0993
 1459TIP3   OH225791   2.133   6.258   0.229  0.1553 -0.4483 -0.2507
 1459TIP3    H125792   2.134   6.354   0.221  0.3425 -0.5618 -2.2596
 1459TIP3    H225793   2.194   6.240   0.300 -0.0091  0.9320  0.2826
 1460TIP3   OH225794   6.664   6.663  12.649 -0.1856 -0.1259  0.0815
 1460TIP3    H125795   6.736   6.601  12.661  0.0949  0.3040  0.6374
 1460TIP3    H225796   6.597   6.635  12.711 -0.6357 -0.7081 -0.6457
 1461TIP3   OH225797   0.504   0.343   5.377  0.0500  0.1832 -0.0957
 1461TIP3    H125798   0.419   0.305   5.357  0.4619 -1.0238  0.3606
 1461TIP3    H225799   0.485   0.433   5.402 -1.0607 -0.0015 -0.2345
 1462TIP3   OH225800   5.098   3.062  15.858  0.3873  0.2275  0.2781
 1462TIP3    H125801   5.058   3.149  15.854 -0.5653 -0.1921  0.3344
 1462TIP3    H225802   5.025   3.003  15.880  1.0183 -0.5826  0.2488
 1463TIP3   OH225803   0.881   0.478   4.473 -0.8139 -0.6961 -0.0306
 1463TIP3    H125804   0.922   0.395   4.495 -0.3531 -0.3722  0.3646
 1463TIP3    H225805   0.795   0.474   4.516 -1.1704 -1.3376 -0.7845
 1464TIP3   OH225806   4.046   5.089  16.778  0.7641  0.1435  0.0276
 1464TIP3    H125807   3.966   5.097  16.830  1.0549  0.9003  0.3692
 1464TIP3    H225808   4.081   5.003  16.800  0.8471  0.4260  1.0507
 1465TIP3   OH225809   3.682   6.684  16.037  0.1966 -0.1073  0.0907
 1465TIP3    H125810   3.614   6.743  16.004  2.0198  2.1410  0.0889
 1465TIP3    H225811   3.654   6.662  16.125 -0.4897  0.8977  0.1403
 1466TIP3   OH225812   2.138   4.095   2.958 -0.3907  0.3280  0.4425
 1466TIP3    H125813   2.184   4.140   2.887 -0.1117 -0.2295  0.2639
 1466TIP3    H225814   2.066   4.048   2.915  0.9322 -1.6223  0.2065
 1467TIP3   OH225815   1.970   6.216   1.567 -0.0259  0.1457 -0.0224
 1467TIP3    H125816   1.961   6.303   1.605 -1.8278  0.5076 -1.1468
 1467TIP3    H225817   1.915   6.160   1.621  1.9396 -0.5866  1.3426
 1468TIP3   OH225818   0.422   3.598   1.837 -0.4231 -0.3587  0.3853
 1468TIP3    H125819   0.443   3.614   1.745 -0.6985 -1.7476  0.0661
 1468TIP3    H225820   0.370   3.518   1.837 -0.5107 -0.3331  1.7465
 1469TIP3   OH225821   1.499   1.951   0.528 -0.4737  0.0985  0.1119
 1469TIP3    H125822   1.561   1.920   0.462  0.1772  0.3319  0.5977
 1469TIP3    H225823   1.446   2.017   0.484 -0.6233 -0.3687 -0.4120
 1470TIP3   OH225824   1.604   5.236   3.772 -0.5445 -0.2111 -0.4458
 1470TIP3    H125825   1.575   5.146   3.782  1.7993 -0.8142  1.9587
 1470TIP3    H225826   1.677   5.231   3.710 -0.2551 -0.0327 -0.1253
 1471TIP3   OH225827   0.638   5.111   0.944 -0.1637 -0.2831 -0.1414
 1471TIP3    H125828   0.635   5.177   0.874 -1.1782  0.6650  0.7633
 1471TIP3    H225829   0.551   5.113   0.983  0.3841 -0.7996  1.1545
 1472TIP3   OH225830   4.831   6.718  15.017 -0.4845  0.4845 -0.5151
 1472TIP3    H125831   4.794   6.692  15.102 -0.0891  2.1574  0.2269
 1472TIP3    H225832   4.922   6.689  15.021 -0.3516  0.9215 -0.1644
 1473TIP3   OH225833   4.851   1.231   4.422 -0.1572  0.2791 -0.5154
 1473TIP3    H125834   4.773   1.183   4.449 -0.4811  0.5342 -0.9908
 1473TIP3    H225835   4.911   1.163   4.389 -0.0299  0.0438  0.1878
 1474TIP3   OH225836   2.243   5.854   2.786  0.1512  0.4561  0.4054
 1474TIP3    H125837   2.221   5.933   2.738 -0.0812 -0.8720 -1.8178
 1474TIP3    H225838   2.334   5.866   2.814 -0.0396  1.6820  0.5270
 1475TIP3   OH225839   4.442   5.496  16.082  0.0528 -0.1815 -0.1996
 1475TIP3    H125840   4.449   5.586  16.052  1.2260 -0.4988 -0.9429
 1475TIP3    H225841   4.418   5.446  16.004  0.7561 -0.6898 -0.0982
 1476TIP3   OH225842   2.848   2.025  13.905 -0.3120  0.2915 -0.3619
 1476TIP3    H125843   2.936   2.045  13.874 -0.1730 -0.7596 -0.6527
 1476TIP3    H225844   2.825   1.942  13.863 -1.3027  0.3704 -0.0120
 1477TIP3   OH225845   6.156   0.977   0.477  0.1376  0.0081 -0.2249
 1477TIP3    H125846   6.167   0.916   0.405  1.4280 -0.3725  0.2597
 1477TIP3    H225847   6.241   0.977   0.522  0.1098  1.9512 -0.0594
 1478TIP3   OH225848   1.152   3.868  14.755 -0.6392  0.4255  0.2297
 1478TIP3    H125849   1.108   3.796  14.710  0.8250 -1.0228  0.9721
 1478TIP3    H225850   1.242   3.866  14.722  0.0286  0.3888  1.9351
 1479TIP3   OH225851   1.520   5.265   0.538 -1.2135 -0.1154 -0.1511
 1479TIP3    H125852   1.592   5.328   0.542 -1.8301  0.5066  1.6763
 1479TIP3    H225853   1.499   5.260   0.445 -0.0898  1.1481 -0.5114
 1480TIP3   OH225854   4.253   0.589   2.010  0.8383 -0.3182 -0.2601
 1480TIP3    H125855   4.285   0.680   2.014  0.5835 -0.2656  0.7542
 1480TIP3    H225856   4.160   0.595   2.030  0.1971 -0.5144 -2.9066
 1481TIP3   OH225857   2.486   5.495   4.490 -0.1224 -0.1723 -0.0252
 1481TIP3    H125858   2.425   5.514   4.419  0.4821 -0.7839 -0.7352
 1481TIP3    H225859   2.516   5.406   4.472 -0.0852 -0.4083  1.1068
 1482TIP3   OH225860   5.273   6.129   3.291  0.3707 -0.9844 -0.0171
 1482TIP3    H125861   5.238   6.171   3.213 -1.3776 -1.0253  0.6940
 1482TIP3    H225862   5.291   6.039   3.264  0.0865 -0.9110 -0.4641
 1483TIP3   OH225863   2.923   6.688   5.854 -0.0855 -0.5252 -0.7448
 1483TIP3    H125864   2.879   6.772   5.853  0.1088 -0.4061  0.0150
 1483TIP3    H225865   2.922   6.659   5.763 -0.9204 -0.1074 -0.8748
 1484TIP3   OH225866   4.528   5.489   1.053 -0.0905 -0.0601  0.5793
 1484TIP3    H125867   4.616   5.522   1.032 -1.1938  1.5491 -1.8504
 1484TIP3    H225868   4.525   5.403   1.012  0.3072 -0.0863  0.5966
 1485TIP3   OH225869   3.318   2.263   0.212 -0.4892 -0.4301  0.2809
 1485TIP3    H125870   3.291   2.344   0.169 -1.2490 -1.2398 -0.8387
 1485TIP3    H225871   3.369   2.292   0.288  0.1658  1.0663 -0.6788
 1486TIP3   OH225872   3.113   4.257   6.642 -0.3271 -0.4433 -0.6657
 1486TIP3    H125873   3.051   4.184   6.643 -1.3132  0.2711 -2.9551
 1486TIP3    H225874   3.165   4.244   6.721 -1.5804 -2.6353 -0.0830
 1487TIP3   OH225875   1.263   4.739   2.026 -0.0237  0.4750 -0.0191
 1487TIP3    H125876   1.289   4.648   2.039  1.3397  1.1221  2.4742
 1487TIP3    H225877   1.197   4.755   2.094 -1.6795  0.8812 -1.6438
 1488TIP3   OH225878   6.108   5.484   0.833 -0.0211  0.4815  0.4169
 1488TIP3    H125879   6.145   5.474   0.921 -1.5109  0.7942  1.1064
 1488TIP3    H225880   6.070   5.399   0.813  0.1755  0.4588  0.1260
 1489TIP3   OH225881   6.375   3.253   5.126 -0.2645 -0.1333 -0.1079
 1489TIP3    H125882   6.335   3.339   5.139  1.3596  0.8974 -1.5204
 1489TIP3    H225883   6.365   3.235   5.033  1.8997 -0.0975 -0.4097
 1490TIP3   OH225884   0.610   2.201   2.951  0.6508  0.0334 -0.2976
 1490TIP3    H125885   0.588   2.244   2.869  0.2983 -1.0096 -0.7631
 1490TIP3    H225886   0.585   2.263   3.019 -1.9661 -0.3061 -0.8687
 1491TIP3   OH225887   1.621   3.703  14.284  0.6906  0.0047  0.2834
 1491TIP3    H125888   1.662   3.679  14.366  1.3749 -2.0496 -0.5990
 1491TIP3    H225889   1.527   3.697  14.300  0.7032  2.0716  1.5443
 1492TIP3   OH225890   3.556   5.867  15.448  0.2716  0.1649 -1.0050
 1492TIP3    H125891   3.522   5.781  15.424 -0.4717  0.4092 -0.8496
 1492TIP3    H225892   3.649   5.863  15.425  0.3861 -0.8923 -0.4053
 1493TIP3   OH225893   2.846   1.477  14.048 -0.2186 -0.1250  0.1758
 1493TIP3    H125894   2.889   1.563  14.043  1.5451 -0.9460  0.4374
 1493TIP3    H225895   2.845   1.447  13.957  3.1866 -1.6196  0.4632
 1494TIP3   OH225896   2.096   0.453  12.115  0.3202 -0.3604  0.4425
 1494TIP3    H125897   2.019   0.451  12.171  1.5698 -2.2140  2.2251
 1494TIP3    H225898   2.060   0.458  12.026 -1.7989 -0.1016  1.2534
 1495TIP3   OH225899   1.436   4.756  12.518  0.1000 -0.2439  0.0143
 1495TIP3    H125900   1.454   4.720  12.605 -1.5714  1.4875  1.1726
 1495TIP3    H225901   1.436   4.851  12.532 -2.1370  0.0267 -1.4436
 1496TIP3   OH225902   4.403   5.352  15.858  0.3490  0.4767  0.2108
 1496TIP3    H125903   4.345   5.416  15.818 -3.1711 -1.9057  1.0320
 1496TIP3    H225904   4.436   5.299  15.785 -2.2619 -0.9092 -0.0832
 1497TIP3   OH225905   0.472   2.846   5.269 -0.4441 -1.0372 -0.4277
 1497TIP3    H125906   0.539   2.883   5.211 -0.4656  0.0866  0.2215
 1497TIP3    H225907   0.490   2.752   5.271  1.0654 -0.7637 -0.3366
 1498TIP3   OH225908   4.101   5.677  14.357 -0.6269  0.6558 -0.1714
 1498TIP3    H125909   4.038   5.607  14.338 -0.0524  0.1601 -0.2702
 1498TIP3    H225910   4.174   5.661  14.297 -1.2103  2.3528 -1.4204
 1499TIP3   OH225911   1.235   4.879  14.013 -0.5137 -0.0440  0.1772
 1499TIP3    H125912   1.195   4.833  13.940 -1.3227 -2.1715  1.8520
 1499TIP3    H225913   1.171   4.946  14.037 -1.1209 -0.5958  0.1330
 1500TIP3   OH225914   1.507   5.917   4.617  0.1712  0.0823 -0.0691
 1500TIP3    H125915   1.504   5.821   4.608  0.0041  0.2039 -1.4976
 1500TIP3    H225916   1.555   5.931   4.699  1.8436 -1.2148 -0.7423
 1501TIP3   OH225917   6.419   5.483  14.391  0.3652  0.3763  0.0368
 1501TIP3    H125918   6.399   5.575  14.371 -0.3630  1.1480  3.6528
 1501TIP3    H225919   6.424   5.479  14.486  1.9564 -3.0843 -0.0312
 1502TIP3   OH225920   3.235   0.928   2.561  0.0307  0.1640 -0.1433
 1502TIP3    H125921   3.231   0.975   2.645 -1.0816  1.5677 -0.9226
 1502TIP3    H225922   3.204   0.992   2.497  0.1764 -1.1079 -1.5319
 1503TIP3   OH225923   5.685   0.091   3.325  0.3049  0.5620  0.3877
 1503TIP3    H125924   5.707  -0.001   3.314 -0.4973  0.4095  0.0333
 1503TIP3    H225925   5.760   0.138   3.288  0.3981  0.0504 -0.0828
 1504TIP3   OH225926   3.359   1.255  15.602 -0.1109  0.0604  0.4088
 1504TIP3    H125927   3.340   1.231  15.692  3.3164  0.2466  1.3218
 1504TIP3    H225928   3.437   1.310  15.607  0.8338 -0.7400 -2.7356
 1505TIP3   OH225929   6.465   5.694   3.385 -0.3520 -0.5526  0.0012
 1505TIP3    H125930   6.450   5.601   3.405  0.6770 -0.3236  2.2397
 1505TIP3    H225931   6.556   5.709   3.413 -0.2755  0.9882 -0.9715
 1506TIP3   OH225932   6.542   2.482   6.172  0.2148 -0.7137  0.3537
 1506TIP3    H125933   6.554   2.463   6.265 -1.1617  0.0397  0.6952
 1506TIP3    H225934   6.467   2.429   6.146  0.8540 -1.2548 -0.4544
 1507TIP3   OH225935   2.928   4.863  15.929 -0.2852 -0.3428 -0.3403
 1507TIP3    H125936   2.887   4.925  15.989 -0.3375 -2.0392  1.4777
 1507TIP3    H225937   2.866   4.857  15.856 -0.4462  1.4308 -0.3916
 1508TIP3   OH225938   6.002   1.872  12.916 -0.2261  0.3592  0.2807
 1508TIP3    H125939   6.074   1.818  12.947 -1.0540 -0.6931  0.4100
 1508TIP3    H225940   6.029   1.899  12.828  0.6865  0.6877  0.6457
 1509TIP3   OH225941   0.188   1.062  17.085 -1.0073  0.0314 -0.5671
 1509TIP3    H125942   0.253   1.078  17.153  0.7576 -1.5343 -1.7773
 1509TIP3    H225943   0.229   0.996  17.028 -2.6611  0.7983 -2.7710
 1510TIP3   OH225944   1.763   0.367   4.987 -0.2754 -0.4900 -0.2444
 1510TIP3    H125945   1.809   0.361   5.071 -2.0393  0.4787  0.8400
 1510TIP3    H225946   1.671   0.352   5.009 -0.7515 -0.4544 -2.0597
 1511TIP3   OH225947   1.103   4.394  13.471 -0.1502 -0.1759 -0.3325
 1511TIP3    H125948   1.154   4.474  13.486  1.0714 -1.0924  0.5837
 1511TIP3    H225949   1.027   4.402  13.529  0.5883 -0.2113  0.6535
 1512TIP3   OH225950   3.203   2.660   5.574 -0.3328 -0.3680 -0.6863
 1512TIP3    H125951   3.128   2.675   5.517  0.5096  0.3352 -1.6693
 1512TIP3    H225952   3.198   2.568   5.598  0.0793 -1.1085 -3.1486
 1513TIP3   OH225953   4.977   2.080  11.666  0.4439  0.4774 -0.2585
 1513TIP3    H125954   5.036   2.026  11.614 -0.9877  0.9836 -2.5296
 1513TIP3    H225955   5.009   2.169  11.653 -2.4494  1.2031 -4.2027
 1514TIP3   OH225956   2.073   5.045  11.166 -0.0613 -0.7195 -0.6094
 1514TIP3    H125957   2.139   5.067  11.100  0.2970  0.9757  0.2600
 1514TIP3    H225958   2.020   4.977  11.125  1.2301 -0.9805 -1.9465
 1515TIP3   OH225959   1.800   6.441   5.436 -0.2482  0.2788  0.0980
 1515TIP3    H125960   1.769   6.360   5.478 -1.6684  1.1185  0.7533
 1515TIP3    H225961   1.847   6.411   5.359 -1.2655 -1.1784 -0.0058
 1516TIP3   OH225962   4.278   2.954   2.234  0.4977 -0.4922 -0.0961
 1516TIP3    H125963   4.254   2.999   2.316 -2.1522 -3.6274  1.0698
 1516TIP3    H225964   4.230   3.001   2.166  2.0004  1.5774  0.1555
 1517TIP3   OH225965   0.212   3.135  13.597  0.1169  0.0254  0.2760
 1517TIP3    H125966   0.150   3.151  13.527  1.8298  1.2892 -1.0292
 1517TIP3    H225967   0.269   3.066  13.563  0.6449  0.2854  0.6171
 1518TIP3   OH225968   0.290   5.843  17.231 -0.0431 -0.0655 -0.7943
 1518TIP3    H125969   0.307   5.841  17.325 -1.1961  0.9746 -0.5407
 1518TIP3    H225970   0.337   5.767  17.197  1.4312  0.2487  0.4350
 1519TIP3   OH225971   4.836   1.711  11.583 -0.0462 -0.2256  0.2112
 1519TIP3    H125972   4.834   1.802  11.552  4.8577  0.3439  0.7671
 1519TIP3    H225973   4.856   1.718  11.677  0.2972 -1.8566  0.2887
 1520TIP3   OH225974   1.329   1.033  10.573  0.7049 -0.1961  0.3160
 1520TIP3    H125975   1.421   1.057  10.589  1.2028 -1.6214 -0.2808
 1520TIP3    H225976   1.300   0.995  10.656  0.5464  0.5052  0.5941
 1521TIP3   OH225977   5.622   1.016  17.324  0.0443  0.4321 -0.0536
 1521TIP3    H125978   5.689   0.953  17.352  0.2840  1.7527  2.6676
 1521TIP3    H225979   5.634   1.024  17.229  2.8884 -0.3425  0.1688
 1522TIP3   OH225980   5.610   2.990   5.108 -0.0543 -0.4089 -0.5064
 1522TIP3    H125981   5.653   3.073   5.127  0.0159  0.0814 -2.5715
 1522TIP3    H225982   5.657   2.956   5.032  0.3085 -2.6743  0.6358
 1523TIP3   OH225983   4.056   4.276  16.977 -0.2924 -0.2480 -0.1750
 1523TIP3    H125984   4.084   4.193  16.938 -0.4569 -0.4968  0.2243
 1523TIP3    H225985   3.963   4.282  16.955 -0.4152 -0.4499  0.2750
 1524TIP3   OH225986   4.512   0.312   1.141  0.4149 -0.3264 -0.2118
 1524TIP3    H125987   4.476   0.381   1.197  0.4129 -0.7876  0.3627
 1524TIP3    H225988   4.588   0.279   1.190 -0.3654 -1.6419  0.1484
 1525TIP3   OH225989   0.023   4.026  11.254 -0.0692  0.0256  0.9362
 1525TIP3    H125990  -0.047   4.044  11.191 -1.0896 -2.1691  1.3707
 1525TIP3    H225991   0.104   4.039  11.204 -0.8174  0.2703 -0.2511
 1526TIP3   OH225992   0.807   0.940  11.103 -0.0841  0.2472 -0.0295
 1526TIP3    H125993   0.873   0.996  11.062  0.3714 -0.7293 -0.6657
 1526TIP3    H225994   0.806   0.861  11.050 -1.6704  0.1687  0.0673
 1527TIP3   OH225995   4.054   6.546  14.224  0.3965  0.7021 -0.4960
 1527TIP3    H125996   3.995   6.534  14.298 -0.2027 -0.0775 -1.0909
 1527TIP3    H225997   4.031   6.632  14.188  1.4248  1.5853  0.8501
 1528TIP3   OH225998   0.669   0.127   0.171  0.5302  0.2509  0.0450
 1528TIP3    H125999   0.625   0.088   0.246  0.3932 -0.2780 -0.3038
 1528TIP3    H226000   0.637   0.077   0.096  0.0529  1.2805 -0.4640
 1529TIP3   OH226001   2.216   1.808   3.412  0.3621  0.3479  0.0952
 1529TIP3    H126002   2.127   1.787   3.441  0.7841 -1.3596  0.2467
 1529TIP3    H226003   2.262   1.831   3.493  0.5908 -0.8438  0.3176
 1530TIP3   OH226004   6.090   4.705  16.673 -0.0075  0.5882  0.2719
 1530TIP3    H126005   6.114   4.633  16.732  1.3948  1.2883  0.5939
 1530TIP3    H226006   6.003   4.730  16.702 -0.3714 -0.7227  0.3994
 1531TIP3   OH226007   1.419   4.562   3.884  0.0158 -0.0610  0.1694
 1531TIP3    H126008   1.486   4.606   3.937  0.8083  0.6981 -1.3997
 1531TIP3    H226009   1.441   4.469   3.888  0.2154  0.0165  0.9441
 1532TIP3   OH226010   4.355   1.093  16.239 -0.3885  0.1055  0.2203
 1532TIP3    H126011   4.308   1.030  16.294 -0.6848  1.2848  1.3731
 1532TIP3    H226012   4.299   1.103  16.162  0.2577 -1.9230 -0.5923
 1533TIP3   OH226013   4.894   0.011   2.699  0.1533 -0.0114  0.5686
 1533TIP3    H126014   4.877   0.064   2.777  1.1512  1.2753 -0.0491
 1533TIP3    H226015   4.989   0.002   2.697  0.2140  0.8204 -1.0292
 1534TIP3   OH226016   0.943   5.077  15.977 -0.6324  0.3793 -0.3882
 1534TIP3    H126017   0.898   5.144  15.924 -0.1807  1.1747  0.2169
 1534TIP3    H226018   0.971   5.011  15.913 -1.4687  0.5414 -0.9421
 1535TIP3   OH226019   3.180   4.610   5.776  0.0197 -0.0669  0.2301
 1535TIP3    H126020   3.247   4.551   5.811 -0.0222 -1.2424 -1.4975
 1535TIP3    H226021   3.100   4.583   5.819  0.2021 -0.5263  0.2902
 1536TIP3   OH226022   4.310   1.593   4.477 -0.4338 -0.4081 -0.8514
 1536TIP3    H126023   4.399   1.570   4.504 -0.4445 -0.2249 -0.6567
 1536TIP3    H226024   4.294   1.678   4.519 -1.2426 -1.1122  0.3116
 1537TIP3   OH226025   6.393   5.730   2.854  0.3436  0.6448 -0.4958
 1537TIP3    H126026   6.393   5.825   2.864  0.4893  0.6485 -0.5174
 1537TIP3    H226027   6.486   5.706   2.854  0.2844  0.3287  1.0789
 1538TIP3   OH226028   2.141   1.151  15.849  0.2852  0.3517 -0.2625
 1538TIP3    H126029   2.098   1.153  15.763 -1.0645  0.4248  0.4010
 1538TIP3    H226030   2.085   1.096  15.903 -0.3807  2.4801  1.3444
 1539TIP3   OH226031   2.128   1.784   5.603 -0.3156 -0.3850  0.2351
 1539TIP3    H126032   2.152   1.780   5.696  1.9299  0.6188 -0.2234
 1539TIP3    H226033   2.208   1.758   5.557 -0.8598  0.7230 -1.4415
 1540TIP3   OH226034   4.253   2.578  11.917  0.7136  0.1269 -0.7118
 1540TIP3    H126035   4.274   2.610  12.005  0.8677  0.8422 -1.0074
 1540TIP3    H226036   4.314   2.624  11.859  0.5185 -0.2382 -1.2103
 1541TIP3   OH226037   3.062   4.062  14.210 -0.1304  0.2712 -0.3386
 1541TIP3    H126038   3.063   4.156  14.195 -2.2604  0.5019  0.6599
 1541TIP3    H226039   3.052   4.024  14.122  0.3387  0.9656 -0.7064
 1542TIP3   OH226040   1.023   4.731   5.141 -0.3557  0.2083 -0.3775
 1542TIP3    H126041   1.104   4.683   5.155  0.2100  0.7446 -1.6131
 1542TIP3    H226042   0.965   4.702   5.211  0.9045 -0.1691  0.5507
 1543TIP3   OH226043   2.767   5.978  11.460  0.2349 -0.5040  0.2060
 1543TIP3    H126044   2.684   5.945  11.494  1.1179 -3.3609 -0.1658
 1543TIP3    H226045   2.741   6.045  11.396 -1.8358 -1.6058 -0.2273
 1544TIP3   OH226046   4.357   3.089  17.099 -0.1136 -0.4393 -0.1268
 1544TIP3    H126047   4.429   3.037  17.134 -0.3448 -1.3624 -0.9758
 1544TIP3    H226048   4.302   3.026  17.052 -0.8509  0.4418 -0.4851
 1545TIP3   OH226049   4.731   5.390  14.518 -0.1713  0.0209  0.3599
 1545TIP3    H126050   4.716   5.484  14.507 -0.1686 -0.0639 -0.4659
 1545TIP3    H226051   4.643   5.352  14.517 -0.2966  0.1515  2.3689
 1546TIP3   OH226052   4.556   0.910   0.708 -0.2894  0.2474  0.2496
 1546TIP3    H126053   4.554   0.935   0.616 -1.6019  0.6531  0.3623
 1546TIP3    H226054   4.482   0.850   0.718 -1.0614  1.3385  1.3323
 1547TIP3   OH226055   2.709   0.003   5.311 -0.2132 -0.0896  0.1207
 1547TIP3    H126056   2.690   0.081   5.259  2.3555  0.1845 -0.5392
 1547TIP3    H226057   2.718  -0.067   5.247 -0.1195 -0.4093  0.4829
 1548TIP3   OH226058   3.453   2.873   2.648  0.0058 -0.0333 -0.4893
 1548TIP3    H126059   3.360   2.851   2.641  0.2027 -0.9103 -0.3751
 1548TIP3    H226060   3.456   2.967   2.631 -0.8952 -0.0094 -0.5653
 1549TIP3   OH226061   0.580   2.397   3.194  0.1278  0.1336 -0.7437
 1549TIP3    H126062   0.526   2.452   3.137 -0.1155  0.3288 -0.3343
 1549TIP3    H226063   0.516   2.349   3.248  0.3330 -0.6720 -1.2006
 1550TIP3   OH226064   6.417   1.789   3.713 -0.1696  0.1795  0.0447
 1550TIP3    H126065   6.377   1.831   3.790  0.4447 -0.4492  0.7308
 1550TIP3    H226066   6.424   1.858   3.648  1.0983  1.2347  1.2516
 1551TIP3   OH226067   6.434   4.257  12.931 -0.3193 -0.1300 -1.0765
 1551TIP3    H126068   6.484   4.337  12.916 -1.8835  1.7112  2.3881
 1551TIP3    H226069   6.353   4.269  12.880 -0.3606  0.2917 -0.9115
 1552TIP3   OH226070   2.980   0.245  15.642  0.2913  0.2763  0.1035
 1552TIP3    H126071   2.897   0.288  15.619 -1.5758 -0.8682  3.7996
 1552TIP3    H226072   3.046   0.313  15.635 -1.3554  1.8452 -0.8720
 1553TIP3   OH226073   3.329   5.250  16.508 -0.0080 -0.2144  0.2541
 1553TIP3    H126074   3.352   5.218  16.595  1.2252 -3.1491 -1.0137
 1553TIP3    H226075   3.233   5.244  16.505 -0.0019 -0.9391  1.1421
 1554TIP3   OH226076   3.768   3.377  13.023 -0.3723 -0.2261 -0.2374
 1554TIP3    H126077   3.779   3.397  13.116 -0.9973  1.4274 -0.4860
 1554TIP3    H226078   3.857   3.368  12.990 -0.0151  2.1202 -0.0461
 1555TIP3   OH226079   4.695   4.801   4.266 -0.3185 -0.2878  0.1901
 1555TIP3    H126080   4.606   4.818   4.299 -0.2628 -1.2470  0.8539
 1555TIP3    H226081   4.687   4.814   4.171 -1.0532  0.1206  0.2969
 1556TIP3   OH226082   6.700   5.844  10.816 -0.4224  0.2804  0.2480
 1556TIP3    H126083   6.710   5.920  10.759  0.4242  0.9533  1.2602
 1556TIP3    H226084   6.609   5.816  10.804 -0.8255  1.6278  0.0858
 1557TIP3   OH226085   0.266   2.116  12.802 -0.1744 -0.5127 -0.1838
 1557TIP3    H126086   0.283   2.051  12.871 -2.8232  0.8994  1.9952
 1557TIP3    H226087   0.328   2.186  12.819  0.6819 -1.1284 -0.6850
 1558TIP3   OH226088   1.025   6.386   1.234  0.2764 -0.3274 -0.0792
 1558TIP3    H126089   1.051   6.466   1.279 -1.6529  0.1533  0.2654
 1558TIP3    H226090   0.935   6.402   1.205 -0.1797 -2.3769  0.0241
 1559TIP3   OH226091   0.381   4.456   4.224  0.5096 -0.3494 -0.3108
 1559TIP3    H126092   0.327   4.423   4.296  0.5093  0.0738 -0.1146
 1559TIP3    H226093   0.468   4.419   4.240  0.5401 -0.1587 -0.0197
 1560TIP3   OH226094   1.170   3.264   1.548 -0.5176  0.0754 -0.2014
 1560TIP3    H126095   1.081   3.288   1.524 -1.3289 -0.5488  2.0003
 1560TIP3    H226096   1.171   3.168   1.546 -0.6765 -0.0373  2.1441
 1561TIP3   OH226097   6.734   4.009  13.346  0.1190  0.4723 -0.0041
 1561TIP3    H126098   6.731   4.077  13.413  0.1118 -1.3381  1.9195
 1561TIP3    H226099   6.793   3.943  13.381  0.9662 -0.0721 -2.2867
 1562TIP3   OH226100   6.051   6.019  16.538 -0.1366 -0.2175  0.3859
 1562TIP3    H126101   6.057   5.923  16.543 -2.0197 -0.3761  0.2036
 1562TIP3    H226102   6.001   6.036  16.459 -0.4766  0.8939  0.8173
 1563TIP3   OH226103   0.533   4.078  14.823 -0.2788 -0.4228 -0.8412
 1563TIP3    H126104   0.605   4.138  14.802  0.3058 -0.6735  0.3667
 1563TIP3    H226105   0.542   4.006  14.761  1.3653 -1.1217  0.1508
 1564TIP3   OH226106   1.345   0.676  15.607  0.4838  0.0758  0.2723
 1564TIP3    H126107   1.414   0.617  15.638  1.4717 -0.0987 -2.0487
 1564TIP3    H226108   1.277   0.671  15.674  2.2902 -0.5197  2.1452
 1565TIP3   OH226109   0.040   3.361  11.247  0.1139  0.4570  0.4891
 1565TIP3    H126110   0.130   3.350  11.278 -0.4280  0.0179  2.0262
 1565TIP3    H226111   0.040   3.321  11.160  1.2796 -0.0283  0.6797
 1566TIP3   OH226112   0.507   6.733   5.196  0.4750 -0.2732 -0.3114
 1566TIP3    H126113   0.450   6.762   5.267  0.8829 -0.1717 -0.0217
 1566TIP3    H226114   0.583   6.790   5.202  0.3126  0.0552 -1.1238
 1567TIP3   OH226115   4.323   5.451   2.853  0.1272  0.1562 -0.5864
 1567TIP3    H126116   4.365   5.524   2.898  0.2581 -0.2351 -0.0621
 1567TIP3    H226117   4.370   5.373   2.885  1.2991 -0.0245 -2.5590
 1568TIP3   OH226118   4.442   3.419   2.628  0.2720  0.2490  0.1465
 1568TIP3    H126119   4.468   3.327   2.623 -0.1363  0.1913 -1.1869
 1568TIP3    H226120   4.385   3.432   2.553 -1.0638  1.1715  1.2605
 1569TIP3   OH226121   0.216   1.568  16.095 -0.1781  1.0959  0.2065
 1569TIP3    H126122   0.192   1.620  16.171 -0.4211 -0.0244  0.9170
 1569TIP3    H226123   0.135   1.526  16.068 -0.3287  2.2863 -1.3418
 1570TIP3   OH226124   4.364   5.023  11.060 -0.6145  0.7212 -0.1907
 1570TIP3    H126125   4.448   4.976  11.064 -1.0063 -0.0551 -0.7669
 1570TIP3    H226126   4.341   5.038  11.152 -1.3238 -1.8252  0.1243
 1571TIP3   OH226127   3.805   0.606   6.229 -0.2759 -0.1261 -0.0075
 1571TIP3    H126128   3.829   0.659   6.306  0.8752  0.8571 -0.9914
 1571TIP3    H226129   3.830   0.517   6.253 -0.2492  0.1128  0.8974
 1572TIP3   OH226130   2.504   1.195   0.065  0.2206  0.0046 -0.2355
 1572TIP3    H126131   2.524   1.114   0.017 -2.0274 -1.1020  0.5513
 1572TIP3    H226132   2.476   1.165   0.151 -3.1349  1.3484 -0.7309
 1573TIP3   OH226133   6.503   4.295  13.266 -0.0402 -0.3960 -0.1171
 1573TIP3    H126134   6.471   4.379  13.233 -0.6359 -0.5797 -0.0065
 1573TIP3    H226135   6.443   4.230  13.230  0.3126 -0.7623 -0.0543
 1574TIP3   OH226136   0.274   4.301   3.647  0.9862 -0.0368 -0.4056
 1574TIP3    H126137   0.280   4.232   3.712 -1.3228 -1.3004 -1.4043
 1574TIP3    H226138   0.180   4.314   3.634  1.3337  0.3714 -3.2226
 1575TIP3   OH226139   6.159   2.385  13.121 -0.4015  0.0519 -0.0508
 1575TIP3    H126140   6.093   2.315  13.118  0.0184 -0.3269 -0.4630
 1575TIP3    H226141   6.229   2.349  13.175 -0.6754  0.5902  0.6853
 1576TIP3   OH226142   0.465   6.529   1.554  0.0525 -0.2678  0.0197
 1576TIP3    H126143   0.452   6.549   1.461 -0.7318 -0.3228  0.1132
 1576TIP3    H226144   0.555   6.559   1.572  0.4967 -0.9637 -0.9376
 1577TIP3   OH226145   1.401   2.974  16.401  0.1812 -0.4577  0.2056
 1577TIP3    H126146   1.374   2.896  16.353  0.2795  0.2425 -1.0320
 1577TIP3    H226147   1.321   3.005  16.444 -0.2641 -0.2619 -0.7366
 1578TIP3   OH226148   2.223   3.451  16.959  0.4170 -0.4463  0.4942
 1578TIP3    H126149   2.233   3.367  17.003 -0.5468 -0.0679  1.4821
 1578TIP3    H226150   2.151   3.494  17.005  0.5086  0.6827 -0.3687
 1579TIP3   OH226151   1.729   2.601   5.627  0.3963  0.4427 -0.9331
 1579TIP3    H126152   1.748   2.648   5.708  0.1942 -0.7550 -0.1692
 1579TIP3    H226153   1.810   2.555   5.606 -0.2939 -1.2644 -0.0036
 1580TIP3   OH226154   4.736   0.721   5.412  0.3139 -0.6699  0.1936
 1580TIP3    H126155   4.778   0.804   5.392  1.6680 -1.0485  1.3038
 1580TIP3    H226156   4.698   0.734   5.499 -0.3351 -0.9067 -0.0491
 1581TIP3   OH226157   1.838   4.461  14.318 -0.4268  0.0204 -0.2538
 1581TIP3    H126158   1.802   4.458  14.407 -0.2284 -2.5521 -0.1715
 1581TIP3    H226159   1.796   4.537  14.278 -0.6833  1.1408  1.9477
 1582TIP3   OH226160   2.198   3.525   5.731 -0.0241  0.9332 -0.0295
 1582TIP3    H126161   2.264   3.589   5.759 -0.8118  1.1552  1.4362
 1582TIP3    H226162   2.209   3.452   5.792  1.4402 -0.8125 -2.2019
 1583TIP3   OH226163   1.848   3.112   2.860 -0.1092 -0.0844  0.5266
 1583TIP3    H126164   1.832   3.137   2.951 -0.0468  1.8063  0.0757
 1583TIP3    H226165   1.780   3.158   2.810 -0.2291 -1.1995 -0.3883
 1584TIP3   OH226166   2.160   5.765   4.887 -0.2765 -0.0991 -0.0026
 1584TIP3    H126167   2.243   5.811   4.877 -0.5526  0.5235  0.4960
 1584TIP3    H226168   2.125   5.797   4.970 -1.1244 -0.1714 -0.3231
 1585TIP3   OH226169   0.150   6.146   3.428 -0.0074  0.0389 -0.1036
 1585TIP3    H126170   0.232   6.097   3.425  0.4366  0.7831 -0.4588
 1585TIP3    H226171   0.089   6.088   3.472  0.9092 -0.2316  0.8645
 1586TIP3   OH226172   5.340   3.421   3.328 -0.4464 -0.2080 -0.1443
 1586TIP3    H126173   5.396   3.498   3.322  0.0634 -0.6835 -1.8727
 1586TIP3    H226174   5.393   3.357   3.375 -0.2136 -0.0731 -0.2187
 1587TIP3   OH226175   5.003   1.648   5.171  0.0909  0.3584  0.7331
 1587TIP3    H126176   4.992   1.560   5.134 -0.4954 -0.8677  3.5139
 1587TIP3    H226177   4.922   1.694   5.148 -0.7981 -0.7790  1.4276
 1588TIP3   OH226178   4.833   6.012   3.701 -0.3774 -0.0272  0.4298
 1588TIP3    H126179   4.821   5.989   3.793 -1.5876 -0.9531  0.0681
 1588TIP3    H226180   4.828   6.107   3.699 -0.1188  0.0169  1.3367
 1589TIP3   OH226181   6.546   5.280   3.755  0.6076  0.7756 -0.1271
 1589TIP3    H126182   6.613   5.331   3.710  1.5403  0.6120  1.0226
 1589TIP3    H226183   6.510   5.339   3.820 -0.2367  0.7976 -0.6046
 1590TIP3   OH226184   1.942   0.699  15.866 -0.0621  0.3457 -0.2275
 1590TIP3    H126185   1.878   0.735  15.927 -1.0878  0.5382 -1.3861
 1590TIP3    H226186   1.890   0.670  15.791  1.0661 -0.7615 -0.6113
 1591TIP3   OH226187   0.298   6.678   2.922  0.3005 -0.2090  0.4365
 1591TIP3    H126188   0.388   6.666   2.951  0.9740  0.7653 -1.1178
 1591TIP3    H226189   0.255   6.723   2.995  1.0700 -0.6245  1.1696
 1592TIP3   OH226190   0.702   3.764   3.447 -0.4051 -0.1215 -0.0778
 1592TIP3    H126191   0.671   3.676   3.427  2.1330 -1.0439 -0.3204
 1592TIP3    H226192   0.626   3.821   3.431 -2.6383 -2.3735  1.7180
 1593TIP3   OH226193   3.462   4.954   6.109 -0.0516  0.2477  0.1358
 1593TIP3    H126194   3.385   4.907   6.077 -1.5171  1.2998  1.8757
 1593TIP3    H226195   3.490   5.008   6.035  0.2186 -1.5199 -1.1241
 1594TIP3   OH226196   2.479   3.743   0.617 -0.0307  0.1944  0.3051
 1594TIP3    H126197   2.457   3.744   0.524  0.8987 -3.2860 -0.1162
 1594TIP3    H226198   2.569   3.776   0.621  0.6462 -1.4077 -0.4152
 1595TIP3   OH226199   6.135   3.257  13.169  0.0946  0.1270 -0.3610
 1595TIP3    H126200   6.086   3.333  13.202 -0.5882 -0.5911  0.3054
 1595TIP3    H226201   6.151   3.203  13.246 -0.0183 -0.7442 -0.9337
 1596TIP3   OH226202   3.603   0.590  11.522 -0.1318  0.1189 -0.6572
 1596TIP3    H126203   3.653   0.672  11.525  0.0009  0.0518 -0.9938
 1596TIP3    H226204   3.648   0.532  11.583 -1.2643  0.8619  0.9742
 1597TIP3   OH226205   5.555   1.247  12.717  0.0802 -0.3556 -0.3823
 1597TIP3    H126206   5.635   1.232  12.767  0.4525 -1.5552 -1.2961
 1597TIP3    H226207   5.516   1.325  12.757  1.2919 -0.2140  0.5795
 1598TIP3   OH226208   5.785   5.584  12.476 -0.1683 -0.1211 -0.5819
 1598TIP3    H126209   5.711   5.524  12.469 -0.8162  0.8348 -3.0891
 1598TIP3    H226210   5.745   5.671  12.479  0.8152  0.3207  0.1658
 1599TIP3   OH226211   4.001   1.724   2.754 -0.3559 -0.2592  0.0211
 1599TIP3    H126212   3.942   1.784   2.799  0.3342  0.8375 -0.4916
 1599TIP3    H226213   3.984   1.740   2.661  1.9123  1.3488 -0.1949
 1600TIP3   OH226214   2.331   6.096   1.923 -0.3381 -0.2200 -1.0545
 1600TIP3    H126215   2.275   6.029   1.963  1.1599  0.0886  1.9120
 1600TIP3    H226216   2.271   6.162   1.891 -1.7575 -0.9513 -0.0255
 1601TIP3   OH226217   2.135   1.212  12.903 -0.4388 -0.4275 -1.3508
 1601TIP3    H126218   2.216   1.223  12.854 -0.1435 -0.1634 -0.7999
 1601TIP3    H226219   2.074   1.275  12.863 -0.5146 -0.9283 -2.0483
 1602TIP3   OH226220   2.653   4.745   4.600  0.0248 -0.0691 -0.2214
 1602TIP3    H126221   2.689   4.789   4.523  2.2070 -0.3797  0.5295
 1602TIP3    H226222   2.638   4.655   4.573  0.9622 -0.2230 -0.2586
 1603TIP3   OH226223   1.945   0.974  13.095  0.1786 -0.1182  0.7893
 1603TIP3    H126224   1.868   0.994  13.148 -0.4274 -0.0789 -0.0915
 1603TIP3    H226225   1.911   0.924  13.022  0.8947  0.4734  0.0371
 1604TIP3   OH226226   2.564   6.472   0.702 -0.0318 -0.0043  0.0938
 1604TIP3    H126227   2.498   6.416   0.742 -0.3776  1.7011  2.0705
 1604TIP3    H226228   2.638   6.414   0.684 -1.1651 -1.4737  0.0737
 1605TIP3   OH226229   5.740   3.314   3.537 -0.6541 -0.1202 -0.0726
 1605TIP3    H126230   5.709   3.403   3.554  0.2564 -0.1287  1.9629
 1605TIP3    H226231   5.697   3.260   3.604  1.1245 -0.6478  0.7183
 1606TIP3   OH226232   4.587   4.075   0.651  0.2424  0.3953  0.0421
 1606TIP3    H126233   4.608   3.992   0.694  0.2477 -0.2698 -1.2230
 1606TIP3    H226234   4.668   4.127   0.659  0.5269 -0.0490  0.0512
 1607TIP3   OH226235   4.124   3.748  11.815  0.1346 -0.0246 -0.5863
 1607TIP3    H126236   4.179   3.672  11.795  1.0488  0.0605  1.3536
 1607TIP3    H226237   4.172   3.822  11.778  1.8894  0.1547  1.7925
 1608TIP3   OH226238   0.645   6.742   1.365 -0.4511  0.2394 -0.7775
 1608TIP3    H126239   0.679   6.693   1.440 -0.7167  1.2335  0.0167
 1608TIP3    H226240   0.721   6.755   1.309 -0.5643 -1.9648 -1.5535
 1609TIP3   OH226241   4.597   6.130  14.284 -0.1480 -0.2483 -0.0330
 1609TIP3    H126242   4.621   6.038  14.280 -2.2716 -0.8535 -0.2978
 1609TIP3    H226243   4.592   6.150  14.377 -0.9353 -0.7816  0.0454
 1610TIP3   OH226244   5.465   2.276   1.674  0.2058  0.0810 -0.0672
 1610TIP3    H126245   5.416   2.202   1.710 -1.4129  0.3210 -1.6322
 1610TIP3    H226246   5.421   2.353   1.711  0.7740  0.2855  0.1914
 1611TIP3   OH226247   4.428   3.842  15.532 -0.3678 -0.3687 -0.0708
 1611TIP3    H126248   4.375   3.920  15.551 -1.5515 -1.7553  3.0637
 1611TIP3    H226249   4.408   3.820  15.441 -0.6635  2.4262 -0.7734
 1612TIP3   OH226250   2.747   0.874   5.521 -0.8570  0.1759  0.4561
 1612TIP3    H126251   2.665   0.890   5.569  1.2956  0.8194  4.3190
 1612TIP3    H226252   2.801   0.950   5.542  0.7334 -0.1548 -2.1214
 1613TIP3   OH226253   2.609   4.562   0.543 -0.3274 -0.2680 -0.4752
 1613TIP3    H126254   2.580   4.594   0.458  0.8438  2.1224 -0.0635
 1613TIP3    H226255   2.702   4.543   0.530  0.1488  1.2160  0.4899
 1614TIP3   OH226256   3.145   1.781  14.765  0.0408  0.1704 -0.0469
 1614TIP3    H126257   3.223   1.824  14.728  1.1342 -0.3063  1.5951
 1614TIP3    H226258   3.131   1.825  14.849 -1.8197  0.5889 -0.5318
 1615TIP3   OH226259   0.384   1.272  12.082  0.2395 -0.4205 -0.1431
 1615TIP3    H126260   0.309   1.304  12.132  0.1306  0.4380 -0.8209
 1615TIP3    H226261   0.347   1.242  11.999  0.5116 -1.0541 -0.0347
 1616TIP3   OH226262   6.568   6.068   4.120  0.4235  0.5116 -0.4408
 1616TIP3    H126263   6.663   6.072   4.133  0.8033 -0.8845 -2.3137
 1616TIP3    H226264   6.556   6.001   4.052 -2.0406 -0.4507  0.8276
 1617TIP3   OH226265   5.559   6.292   0.912 -0.3076 -0.4661  0.3806
 1617TIP3    H126266   5.646   6.332   0.914 -0.8098  0.8469 -1.5155
 1617TIP3    H226267   5.522   6.321   0.829 -1.5368 -3.1936 -0.1179
 1618TIP3   OH226268   2.583   5.020   5.129 -0.0855  0.1557 -0.2217
 1618TIP3    H126269   2.490   5.042   5.144 -0.0569 -0.4285  0.9286
 1618TIP3    H226270   2.612   5.083   5.063 -1.0413  1.0129  0.1460
 1619TIP3   OH226271   3.163   2.050  14.642  0.1339 -0.0568 -0.5656
 1619TIP3    H126272   3.165   2.137  14.681  2.1452 -0.1197 -0.3908
 1619TIP3    H226273   3.081   2.046  14.594  0.0295  1.9469 -0.6136
 1620TIP3   OH226274   2.571   1.998   3.758 -0.5931 -0.0705 -0.8162
 1620TIP3    H126275   2.602   1.935   3.693  0.3182 -0.7719  0.2517
 1620TIP3    H226276   2.486   2.027   3.725  0.2312  0.2906 -2.7695
 1621TIP3   OH226277   3.532   0.959   3.862  0.3036  0.6595 -0.0821
 1621TIP3    H126278   3.553   0.919   3.777  0.9640 -0.0731  0.4195
 1621TIP3    H226279   3.459   1.018   3.842  0.1952  0.2154 -1.0899
 1622TIP3   OH226280   1.978   3.668  14.384 -0.1807  0.0823 -0.1662
 1622TIP3    H126281   1.959   3.617  14.463 -0.6597  0.8439  0.2277
 1622TIP3    H226282   2.074   3.666  14.377 -0.1396 -0.0691  0.3914
 1623TIP3   OH226283   2.754   0.647   2.249 -0.6266  0.4281 -0.1627
 1623TIP3    H126284   2.844   0.663   2.221 -1.1408  1.7795 -1.1225
 1623TIP3    H226285   2.733   0.721   2.306 -0.5555 -0.8200  1.5645
 1624TIP3   OH226286   4.617   6.361   3.330 -0.3317 -0.2089  0.3982
 1624TIP3    H126287   4.664   6.280   3.312  1.0515  0.5564  0.3432
 1624TIP3    H226288   4.562   6.376   3.253  0.9773 -0.0476 -0.5418
 1625TIP3   OH226289   2.146   3.700   4.960 -0.2992  0.0573 -0.2900
 1625TIP3    H126290   2.224   3.729   4.913 -0.0134 -0.1673  0.0346
 1625TIP3    H226291   2.131   3.611   4.928 -0.1125 -0.0911  0.0246
 1626TIP3   OH226292   4.333   1.126  12.030  0.3882  0.6119  0.1067
 1626TIP3    H126293   4.370   1.173  11.956  0.3072 -0.7694 -0.8571
 1626TIP3    H226294   4.367   1.036  12.021 -0.1617  0.2486  1.3642
 1627TIP3   OH226295   1.189   3.621   5.173 -0.2869  0.5434  0.8553
 1627TIP3    H126296   1.122   3.689   5.177 -1.0145 -0.1653  0.9259
 1627TIP3    H226297   1.148   3.550   5.123  0.6045  0.3150  0.4360
 1628TIP3   OH226298   4.435   6.138   2.815  0.6823 -0.2236 -0.4444
 1628TIP3    H126299   4.347   6.119   2.846  1.6278 -0.1655  2.5247
 1628TIP3    H226300   4.452   6.228   2.842  1.2017  0.2390 -2.1843
 1629TIP3   OH226301   1.132   2.337  14.167 -0.1615  0.2267  0.1200
 1629TIP3    H126302   1.193   2.273  14.129 -0.8812 -1.2957  1.3679
 1629TIP3    H226303   1.154   2.338  14.260 -1.8791 -0.2614  0.5839
 1630TIP3   OH226304   2.077   3.847   4.372 -0.0611 -0.0748  0.1277
 1630TIP3    H126305   2.106   3.910   4.438  1.3419  0.3852 -0.8704
 1630TIP3    H226306   2.153   3.789   4.360 -0.3351 -0.2334 -0.9600
 1631TIP3   OH226307   5.201   1.294   2.196  0.2258 -0.0830 -0.1908
 1631TIP3    H126308   5.278   1.240   2.178  0.1906 -0.2399  0.1094
 1631TIP3    H226309   5.146   1.284   2.119  0.1393 -0.6247 -0.0679
 1632TIP3   OH226310   0.652   0.012  15.664  0.1362  0.2542 -0.2020
 1632TIP3    H126311   0.670  -0.048  15.592 -0.1365 -1.9991  1.4932
 1632TIP3    H226312   0.631  -0.045  15.738 -1.2294  2.4836  1.2539
 1633TIP3   OH226313   2.185   2.527   1.755 -0.0522 -0.7636 -0.2465
 1633TIP3    H126314   2.251   2.498   1.819 -0.0127  0.7384  0.4293
 1633TIP3    H226315   2.229   2.520   1.671  1.3235  1.0559  0.2688
 1634TIP3   OH226316   2.927   5.386   2.053 -0.8854  0.0643  0.2213
 1634TIP3    H126317   2.857   5.386   2.119 -0.4994 -2.3013  0.7132
 1634TIP3    H226318   2.883   5.359   1.972 -0.9404  0.8003 -0.0018
 1635TIP3   OH226319   2.856   2.802  15.953 -0.0854  0.5735 -0.6187
 1635TIP3    H126320   2.795   2.823  15.883 -1.6903  0.5429  0.7210
 1635TIP3    H226321   2.833   2.713  15.979  1.6545 -0.0832 -1.1769
 1636TIP3   OH226322   4.215   1.321   4.392 -0.3204 -0.2813  0.2171
 1636TIP3    H126323   4.211   1.269   4.472 -2.1588 -1.9897 -0.9245
 1636TIP3    H226324   4.226   1.411   4.423 -0.7211 -0.9203  2.3593
 1637TIP3   OH226325   5.879   0.449   0.727 -0.1604 -0.2047  0.4754
 1637TIP3    H126326   5.842   0.512   0.788 -0.6211  1.4940 -1.4334
 1637TIP3    H226327   5.863   0.364   0.767 -3.1343  0.6399  1.3638
 1638TIP3   OH226328   3.143   0.181  11.756  0.0772  0.5733 -0.1842
 1638TIP3    H126329   3.228   0.145  11.733 -0.0312  1.1266 -1.5190
 1638TIP3    H226330   3.163   0.265  11.799  0.2892 -0.5852  2.1382
 1639TIP3   OH226331   4.460   2.375  14.438  0.1894 -0.4528  0.1272
 1639TIP3    H126332   4.518   2.355  14.512  0.8792  0.4105 -0.1619
 1639TIP3    H226333   4.387   2.422  14.477 -0.3305 -1.5262  0.4919
 1640TIP3   OH226334   1.358   6.249  15.132  0.2260 -0.1726  0.3326
 1640TIP3    H126335   1.392   6.319  15.188 -0.2761 -0.2890  0.7878
 1640TIP3    H226336   1.411   6.172  15.155  0.2990 -0.1164  0.3503
 1641TIP3   OH226337   4.656   3.486   2.084 -0.1440  0.5951  0.2380
 1641TIP3    H126338   4.675   3.577   2.059 -0.5603  0.6952  0.2815
 1641TIP3    H226339   4.677   3.435   2.006 -0.1272  0.7552  0.1368
 1642TIP3   OH226340   0.172   1.989  11.406 -0.2541 -0.7427 -0.1326
 1642TIP3    H126341   0.152   2.040  11.485  1.2349 -0.2490 -0.0441
 1642TIP3    H226342   0.219   1.912  11.438  0.0397 -0.7204 -0.5117
 1643TIP3   OH226343   5.521   0.437  15.683 -0.2324 -0.8665 -1.2745
 1643TIP3    H126344   5.488   0.515  15.727  1.8508 -0.6414  0.0575
 1643TIP3    H226345   5.500   0.365  15.744  2.6579 -0.5546  0.2864
 1644TIP3   OH226346   4.348   1.618  10.326  0.4987 -0.0067  0.1176
 1644TIP3    H126347   4.406   1.642  10.254  0.4034 -0.1484 -0.0090
 1644TIP3    H226348   4.406   1.608  10.401  0.6225 -0.0176  0.0218
 1645TIP3   OH226349   5.540   2.580   5.021  0.2002 -0.0831  0.1248
 1645TIP3    H126350   5.490   2.530   4.956  0.9148  0.8869 -1.2356
 1645TIP3    H226351   5.480   2.590   5.095 -0.4277 -1.7487 -0.1072
 1646TIP3   OH226352   3.556   0.363  16.649 -0.4105 -0.5803  0.6294
 1646TIP3    H126353   3.527   0.365  16.740  0.0888  1.7712  0.7988
 1646TIP3    H226354   3.610   0.284  16.642 -1.1474 -1.2520  2.1238
 1647TIP3   OH226355   2.679   5.816   6.230 -0.3186 -0.0564  0.4296
 1647TIP3    H126356   2.743   5.883   6.254 -0.4762  0.0738  0.4902
 1647TIP3    H226357   2.642   5.788   6.314  0.3539 -0.8328  0.4736
 1648TIP3   OH226358   6.284   0.565  14.702  0.3903 -0.1441 -0.1576
 1648TIP3    H126359   6.199   0.587  14.663 -0.4206 -1.0528  1.0480
 1648TIP3    H226360   6.299   0.635  14.766  0.2498 -0.3151  0.0638
 1649TIP3   OH226361   6.392   3.304  13.708 -0.0994  0.4242 -0.4003
 1649TIP3    H126362   6.368   3.272  13.795  0.7311 -0.6714 -0.5621
 1649TIP3    H226363   6.392   3.226  13.652 -1.3953  1.2162 -1.5877
 1650TIP3   OH226364   3.745   3.678   5.572  0.6923  0.1300  0.0683
 1650TIP3    H126365   3.741   3.584   5.554 -0.9503  0.2712 -0.4337
 1650TIP3    H226366   3.705   3.688   5.658  0.7251  0.3917  0.0540
 1651TIP3   OH226367   5.385   0.053  12.570  0.6957  0.1699 -0.3056
 1651TIP3    H126368   5.385   0.117  12.641 -2.6322  0.7599 -0.6553
 1651TIP3    H226369   5.367  -0.030  12.613 -0.2145  0.3553 -0.2999
 1652TIP3   OH226370   4.273   5.102  11.344 -0.4214  0.5290 -0.3430
 1652TIP3    H126371   4.203   5.159  11.376  0.1142  0.7334  0.4929
 1652TIP3    H226372   4.233   5.015  11.341 -1.4308  1.0235 -2.2298
 1653TIP3   OH226373   5.534   4.335  14.804 -0.2820  0.7088  0.1802
 1653TIP3    H126374   5.508   4.337  14.712  1.7073 -0.6600 -0.4710
 1653TIP3    H226375   5.505   4.250  14.836 -0.0843  0.7737  0.5401
 1654TIP3   OH226376   4.084   6.682  11.993  0.1897  0.6900 -0.1209
 1654TIP3    H126377   4.110   6.736  11.918  2.3181  0.9957  0.7650
 1654TIP3    H226378   4.106   6.593  11.968  1.2215  0.8332  0.2559
 1655TIP3   OH226379   4.430   2.303   5.198 -0.2539 -0.5408  0.6935
 1655TIP3    H126380   4.427   2.230   5.260 -1.2458  0.5167  1.9374
 1655TIP3    H226381   4.350   2.294   5.147 -1.8634  1.2246  2.7475
 1656TIP3   OH226382   4.691   1.143  11.599  0.7031  0.0200  0.0728
 1656TIP3    H126383   4.731   1.148  11.512 -1.6254 -0.7848 -1.1214
 1656TIP3    H226384   4.604   1.107  11.584  0.3462 -0.5124  2.8065
 1657TIP3   OH226385   1.172   6.075  14.176  0.0835  0.6806  0.4231
 1657TIP3    H126386   1.258   6.082  14.135 -0.9998  1.1986 -1.9528
 1657TIP3    H226387   1.159   5.981  14.187  0.9265  0.5961  0.7337
 1658TIP3   OH226388   0.775   1.240  15.929  0.0424 -0.3757  0.0691
 1658TIP3    H126389   0.814   1.309  15.982  1.3904 -1.4695  0.5560
 1658TIP3    H226390   0.821   1.246  15.845  0.3059 -0.8273  0.1844
 1659TIP3   OH226391   2.428   2.533  16.719  0.2711  0.0616 -0.3852
 1659TIP3    H126392   2.491   2.602  16.703 -1.5209  2.2152  1.2371
 1659TIP3    H226393   2.473   2.470  16.775  0.7359  2.0429  1.5669
 1660TIP3   OH226394   2.654   3.113   5.730  0.1546 -0.0657  0.3025
 1660TIP3    H126395   2.685   3.031   5.766 -1.7259 -0.4385  1.2425
 1660TIP3    H226396   2.619   3.091   5.643 -2.1418 -0.7510  1.3114
 1661TIP3   OH226397   0.418   5.799  16.228  0.9270 -0.3799  0.0781
 1661TIP3    H126398   0.438   5.758  16.144 -0.0493 -0.0920 -0.3042
 1661TIP3    H226399   0.347   5.746  16.265  0.8367 -0.0599  0.3721
 1662TIP3   OH226400   6.387   6.162   3.573  0.2443 -0.2986  0.3170
 1662TIP3    H126401   6.435   6.244   3.578 -0.8588  0.5494 -1.8297
 1662TIP3    H226402   6.325   6.166   3.646  1.1844  0.0544  1.1222
 1663TIP3   OH226403   6.113   2.249  17.086 -0.7295  0.9375 -0.0445
 1663TIP3    H126404   6.125   2.208  17.000 -0.4494 -0.7655  0.7434
 1663TIP3    H226405   6.175   2.322  17.087  1.0180 -0.4490 -0.4655
 1664TIP3   OH226406   0.462   6.532   6.272  0.2548 -0.3118 -0.0880
 1664TIP3    H126407   0.485   6.439   6.270  1.2329 -0.1141  0.9591
 1664TIP3    H226408   0.514   6.568   6.344 -0.4146  0.9696 -0.2190
 1665TIP3   OH226409   2.210   5.377   2.153  0.3567  1.3721  0.6245
 1665TIP3    H126410   2.172   5.463   2.133 -1.8991 -0.0079 -1.5499
 1665TIP3    H226411   2.141   5.331   2.200 -0.0386 -0.4864 -1.5993
 1666TIP3   OH226412   4.499   5.116   0.656  0.5686  0.4260  0.3936
 1666TIP3    H126413   4.556   5.059   0.708  0.7357  0.3486  0.1236
 1666TIP3    H226414   4.435   5.149   0.719 -0.3544 -1.1142  0.2975
 1667TIP3   OH226415   1.685   0.492  16.712  0.0492  0.1424  0.2223
 1667TIP3    H126416   1.781   0.491  16.709  0.0776  0.8210  0.6543
 1667TIP3    H226417   1.664   0.538  16.794 -0.6426 -0.5663  0.4638
 1668TIP3   OH226418   0.390   4.863   2.701  0.5469  0.1410 -0.3509
 1668TIP3    H126419   0.340   4.786   2.729 -2.1654  2.4252  1.7040
 1668TIP3    H226420   0.481   4.841   2.722 -0.3348 -1.7907  2.0120
 1669TIP3   OH226421   1.754   0.398   5.994  0.8428 -0.4909  0.0921
 1669TIP3    H126422   1.748   0.321   5.937 -0.1685  0.0556 -0.5728
 1669TIP3    H226423   1.721   0.368   6.078 -0.0942 -0.6466 -0.3198
 1670TIP3   OH226424   5.088   5.300  12.151  0.4255  0.3126 -0.1205
 1670TIP3    H126425   5.014   5.283  12.093 -0.1555  1.7538  0.1436
 1670TIP3    H226426   5.062   5.264  12.236 -0.4378  1.6415  0.2257
 1671TIP3   OH226427   6.139   0.916  16.453 -0.1329  0.5798  0.2360
 1671TIP3    H126428   6.192   0.995  16.449  2.5688 -1.1171 -0.7405
 1671TIP3    H226429   6.125   0.901  16.546  1.6593  0.8259  0.5854
 1672TIP3   OH226430   1.418   0.903   4.513  0.3556 -0.1831  0.5951
 1672TIP3    H126431   1.506   0.909   4.476  0.4511 -0.0481  0.8410
 1672TIP3    H226432   1.379   0.827   4.469 -0.4867  1.4806 -1.7419
 1673TIP3   OH226433   1.018   3.093   2.989  0.1478 -0.5325 -0.2785
 1673TIP3    H126434   1.073   3.171   2.997 -0.4756 -0.2395  1.7599
 1673TIP3    H226435   1.070   3.023   3.029 -1.1735 -0.0571  2.5905
 1674TIP3   OH226436   4.100   3.803  10.896  0.9561 -0.2169  0.0756
 1674TIP3    H126437   4.174   3.863  10.909  0.6983  0.1402 -0.1011
 1674TIP3    H226438   4.061   3.829  10.813  0.9599 -0.7628 -0.1050
 1675TIP3   OH226439   1.062   6.575  14.432 -0.5245  0.1423 -1.0598
 1675TIP3    H126440   0.988   6.571  14.492  0.7921 -0.2627  0.5988
 1675TIP3    H226441   1.059   6.492  14.384  0.0932 -0.8513  0.5627
 1676TIP3   OH226442   3.883   5.609   2.559 -0.3789 -0.1809  0.1261
 1676TIP3    H126443   3.919   5.602   2.647 -0.0815  1.2667  0.1458
 1676TIP3    H226444   3.896   5.701   2.535 -1.2011 -0.3639 -1.1080
 1677TIP3   OH226445   0.450   5.945  16.756  0.0405  0.0254 -0.5830
 1677TIP3    H126446   0.374   5.912  16.805 -1.2617 -0.0557 -2.5655
 1677TIP3    H226447   0.463   6.034  16.790  1.8473 -1.3103  2.8123
 1678TIP3   OH226448   1.784   0.900  16.568 -0.1535  0.0252  0.4739
 1678TIP3    H126449   1.815   0.809  16.567 -0.0077  0.0786 -0.3983
 1678TIP3    H226450   1.847   0.946  16.624 -0.0045 -0.3291  0.6007
 1679TIP3   OH226451   3.068   0.733   1.268 -0.2002  0.0432 -0.2748
 1679TIP3    H126452   3.100   0.686   1.191  0.6293  2.5510 -1.5711
 1679TIP3    H226453   3.147   0.765   1.311 -0.7367  1.5582 -0.3504
 1680TIP3   OH226454   0.693   5.426  12.640 -0.1645  0.3320  0.0508
 1680TIP3    H126455   0.778   5.384  12.655 -0.8314 -1.2875 -0.4400
 1680TIP3    H226456   0.693   5.501  12.698  0.2084 -1.6380  2.7899
 1681TIP3   OH226457   6.550   2.276  15.216 -0.5811  0.0282 -0.3062
 1681TIP3    H126458   6.487   2.254  15.148 -0.4559 -0.8391 -0.1502
 1681TIP3    H226459   6.572   2.367  15.199 -3.5342  1.1175  0.9442
 1682TIP3   OH226460   4.951   1.527  10.993 -0.4430  0.0894 -0.0554
 1682TIP3    H126461   4.995   1.570  10.920 -1.9889 -0.8516 -1.6231
 1682TIP3    H226462   4.968   1.434  10.979 -2.0059 -0.2142 -0.1262
 1683TIP3   OH226463   6.082   6.698   2.655  0.8163 -0.0397  0.0813
 1683TIP3    H126464   6.052   6.659   2.737 -0.9825  0.3002 -0.3892
 1683TIP3    H226465   6.123   6.625   2.608  1.8291 -0.2481  1.2319
 1684TIP3   OH226466   0.742   0.410   1.369  0.3536 -0.2145 -0.0439
 1684TIP3    H126467   0.797   0.482   1.401  2.7985 -1.4869 -1.0990
 1684TIP3    H226468   0.744   0.346   1.440 -0.4211  0.0327  0.2111
 1685TIP3   OH226469   0.715   4.567  15.552 -0.2445 -0.2516 -0.0082
 1685TIP3    H126470   0.714   4.573  15.456  0.1298  0.2948  0.0218
 1685TIP3    H226471   0.749   4.651  15.581 -0.1011 -0.5180  0.6019
 1686TIP3   OH226472   1.094   4.119  11.312 -0.5387  0.0798  0.1035
 1686TIP3    H126473   1.169   4.067  11.283 -0.5295 -0.1448  0.5158
 1686TIP3    H226474   1.132   4.182  11.374 -0.6880 -0.0375  0.3158
 1687TIP3   OH226475   5.359   1.014  16.549  0.2936  0.7718  0.0140
 1687TIP3    H126476   5.419   1.080  16.583 -1.2757  1.6741  1.1498
 1687TIP3    H226477   5.274   1.036  16.588 -1.4179  1.1565 -3.5471
 1688TIP3   OH226478   3.437   2.265   1.024  0.0725  0.0095 -0.7730
 1688TIP3    H126479   3.494   2.190   1.037  0.9588  0.7252 -0.3927
 1688TIP3    H226480   3.455   2.293   0.934  0.1424  0.0917 -0.7334
 1689TIP3   OH226481   4.840   3.565  17.218 -0.0200 -0.4474 -0.0308
 1689TIP3    H126482   4.778   3.566  17.146 -0.1121  0.0839  0.0463
 1689TIP3    H226483   4.926   3.559  17.176 -0.1423 -2.1513 -0.1028
 1690TIP3   OH226484   6.075   3.558  12.170 -0.0912  0.0697 -0.3323
 1690TIP3    H126485   6.056   3.580  12.261  2.1077 -0.7403  0.3912
 1690TIP3    H226486   5.990   3.543  12.130 -1.1075  0.6626  1.5328
 1691TIP3   OH226487   6.395   0.859   2.653  0.1645 -0.3950  0.5784
 1691TIP3    H126488   6.483   0.869   2.618  0.0387 -1.1112  0.0417
 1691TIP3    H226489   6.338   0.866   2.577 -0.2725  0.3996  0.9688
 1692TIP3   OH226490   1.928   5.743   1.418  0.6527 -0.2494 -0.2138
 1692TIP3    H126491   1.850   5.700   1.454 -0.5097  0.9640 -1.2018
 1692TIP3    H226492   1.996   5.676   1.421 -0.8420 -1.8404 -0.8188
 1693TIP3   OH226493   0.299   0.944  14.672 -0.3554  0.2851  0.4026
 1693TIP3    H126494   0.208   0.937  14.643 -0.6693  0.0593  1.3950
 1693TIP3    H226495   0.301   1.024  14.726  0.5535  1.5336 -1.3895
 1694TIP3   OH226496   5.485   5.348  11.342 -0.1936  0.6688 -0.1412
 1694TIP3    H126497   5.486   5.410  11.416  0.2523 -1.8088  2.0685
 1694TIP3    H226498   5.559   5.290  11.359 -2.6349 -2.6832 -0.0424
 1695TIP3   OH226499   1.779   5.092   0.509  0.3901 -0.3503  0.0234
 1695TIP3    H126500   1.754   5.001   0.522 -1.0920 -0.1384 -1.1132
 1695TIP3    H226501   1.709   5.143   0.550 -0.4318  0.2510 -1.9787
 1696TIP3   OH226502   2.905   1.266   5.917  0.2627  0.3424  0.7302
 1696TIP3    H126503   2.918   1.189   5.972  0.9394 -0.3452 -0.3337
 1696TIP3    H226504   2.981   1.266   5.859 -0.6162  0.7918 -0.4596
 1697TIP3   OH226505   6.072   0.140   3.267 -0.4979 -0.5925 -0.0429
 1697TIP3    H126506   6.079   0.071   3.333  0.5027 -0.2463  0.2308
 1697TIP3    H226507   6.156   0.184   3.270 -0.4496 -0.5455 -1.5436
 1698TIP3   OH226508   6.532   5.326   1.927 -0.3874 -0.7656 -0.0135
 1698TIP3    H126509   6.470   5.275   1.875 -1.0325 -1.0853  1.0400
 1698TIP3    H226510   6.478   5.390   1.973  0.4406  1.2146 -1.6074
 1699TIP3   OH226511   1.531   4.924  15.719  0.4741  0.1617  0.1074
 1699TIP3    H126512   1.487   4.914  15.804 -0.8616  0.1024 -0.5615
 1699TIP3    H226513   1.491   4.857  15.663  1.4764  0.0714 -0.5227
 1700TIP3   OH226514   5.813   3.342   1.335 -0.1556 -0.0626  0.1340
 1700TIP3    H126515   5.721   3.368   1.331  0.0729  1.0163  1.0917
 1700TIP3    H226516   5.819   3.285   1.411 -0.1363 -0.6715 -0.3140
 1701TIP3   OH226517   2.874   2.941  12.453 -0.5119  0.1392  0.6832
 1701TIP3    H126518   2.836   3.012  12.400 -0.4223 -1.0013 -0.9792
 1701TIP3    H226519   2.943   2.904  12.398 -0.2016 -0.9085  1.7398
 1702TIP3   OH226520   4.662   4.657   1.609 -0.4707 -0.2182  0.1523
 1702TIP3    H126521   4.625   4.614   1.686 -0.1026 -2.2353 -0.7369
 1702TIP3    H226522   4.628   4.607   1.535  0.5626  0.6027 -0.9160
 1703TIP3   OH226523   3.126   3.011  13.151  0.1814  0.3190 -0.2788
 1703TIP3    H126524   3.050   2.973  13.106  0.3722  0.4471 -0.7098
 1703TIP3    H226525   3.197   2.949  13.136  0.0230 -0.0847  0.6096
 1704TIP3   OH226526   0.457   1.874  16.722  0.0109  0.2520  0.1796
 1704TIP3    H126527   0.533   1.825  16.754  0.5548  0.8464 -0.1622
 1704TIP3    H226528   0.459   1.862  16.627  0.1702  0.9429  0.0880
 1705TIP3   OH226529   4.341   3.305   2.360 -0.1070  0.7603 -0.3836
 1705TIP3    H126530   4.292   3.387   2.362  0.8989  1.3694  0.1902
 1705TIP3    H226531   4.355   3.287   2.267 -1.8309  0.2908 -0.5877
 1706TIP3   OH226532   4.314   2.368  13.239  0.5316  0.1670 -1.0114
 1706TIP3    H126533   4.244   2.352  13.176  0.7301 -0.0683 -1.1731
 1706TIP3    H226534   4.268   2.397  13.318  0.3838  2.6348 -1.9083
 1707TIP3   OH226535   2.550   3.801  11.049 -0.4262  0.0381 -0.2180
 1707TIP3    H126536   2.560   3.895  11.032 -1.2005 -0.2290 -2.4578
 1707TIP3    H226537   2.455   3.786  11.042 -0.6256 -0.5706  2.4516
 1708TIP3   OH226538   4.341   6.472  13.283 -0.4827 -0.1453  0.1662
 1708TIP3    H126539   4.278   6.428  13.341 -0.7013  0.2378  0.2217
 1708TIP3    H226540   4.378   6.542  13.337  0.5176 -0.7988  0.3663
 1709TIP3   OH226541   2.328   1.540  11.310 -0.2410 -0.3303  0.0612
 1709TIP3    H126542   2.421   1.557  11.320  0.4393 -2.1172 -2.3363
 1709TIP3    H226543   2.295   1.532  11.400  1.9891 -0.1540  0.9545
 1710TIP3   OH226544   5.006   2.149  13.874 -0.5910 -0.0289  0.6149
 1710TIP3    H126545   4.976   2.179  13.959  0.7588  1.3881  0.6321
 1710TIP3    H226546   5.088   2.197  13.858 -0.7186 -0.3691 -1.4006
 1711TIP3   OH226547   1.026   5.678   0.414 -0.2386  0.6026  0.0050
 1711TIP3    H126548   1.073   5.737   0.354  0.4894  1.5691  1.4502
 1711TIP3    H226549   0.935   5.708   0.411 -0.1313  0.9016 -0.3169
 1712TIP3   OH226550   0.078   1.052  16.416 -0.0817 -0.1407 -0.1337
 1712TIP3    H126551   0.107   0.961  16.408 -1.0995 -0.4588 -0.3676
 1712TIP3    H226552   0.064   1.064  16.510  0.4180 -0.1070 -0.0642
 1713TIP3   OH226553   1.842   0.558   0.905  0.6764  0.3861 -0.0783
 1713TIP3    H126554   1.881   0.642   0.931  2.3854 -0.0969 -0.9010
 1713TIP3    H226555   1.914   0.496   0.914  0.8626 -0.1747 -3.8655
 1714TIP3   OH226556   0.284   3.491  13.552 -0.1376  0.3055 -0.8851
 1714TIP3    H126557   0.212   3.463  13.496  0.4729 -1.9585 -0.6121
 1714TIP3    H226558   0.358   3.438  13.524  0.1488 -1.0595  2.1574
 1715TIP3   OH226559   5.222   3.550  12.157 -0.0672  0.2021  0.0902
 1715TIP3    H126560   5.235   3.532  12.250 -0.3175 -1.7313 -0.2204
 1715TIP3    H226561   5.133   3.586  12.152 -0.3006 -0.3082  0.5206
 1716TIP3   OH226562   6.641   5.375   5.480  0.2019  0.2929 -0.4285
 1716TIP3    H126563   6.712   5.363   5.543  0.3801 -1.7985 -0.9532
 1716TIP3    H226564   6.563   5.342   5.524 -0.1093  0.8992 -0.5103
 1717TIP3   OH226565   0.293   5.551  10.861 -1.1458 -0.3693  0.0893
 1717TIP3    H126566   0.341   5.482  10.906 -0.6652  0.5706  1.0620
 1717TIP3    H226567   0.312   5.631  10.912 -0.7022  0.7119 -1.6831
 1718TIP3   OH226568   4.156   5.033  11.923 -0.1826  0.1808 -0.2864
 1718TIP3    H126569   4.096   4.969  11.884  0.4810  0.1507 -1.3094
 1718TIP3    H226570   4.243   5.006  11.891  0.0687  1.8193 -1.0880
 1719TIP3   OH226571   1.878   1.828   6.524 -0.2095  0.7079 -0.5067
 1719TIP3    H126572   1.869   1.867   6.437 -0.6611  1.5820 -0.0819
 1719TIP3    H226573   1.860   1.735   6.511  0.7376  0.6456 -1.5193
 1720TIP3   OH226574   5.187   3.088  16.173  0.1579 -0.2682  0.2600
 1720TIP3    H126575   5.122   3.050  16.232  1.1842 -1.4895  0.6568
 1720TIP3    H226576   5.220   3.013  16.123  2.2950  0.0304  1.1030
 1721TIP3   OH226577   1.772   4.204  12.430 -0.6290  0.1053 -0.3182
 1721TIP3    H126578   1.839   4.190  12.497 -0.8785 -0.6894 -0.2227
 1721TIP3    H226579   1.820   4.229  12.351 -0.1741 -1.0142 -0.4052
 1722TIP3   OH226580   4.679   3.480  16.999 -0.9588  0.0108  0.5185
 1722TIP3    H126581   4.636   3.396  17.016 -0.4750 -0.0975  1.2557
 1722TIP3    H226582   4.740   3.462  16.928 -0.0039 -0.5679  1.4529
 1723TIP3   OH226583   2.269   6.005  14.033 -0.6500 -0.0574 -0.4410
 1723TIP3    H126584   2.279   5.910  14.023 -0.3738  0.0175 -0.8888
 1723TIP3    H226585   2.291   6.041  13.947  0.9286  0.5385  0.1720
 1724TIP3   OH226586   0.480   5.083   3.496 -0.6131 -0.1222 -0.0859
 1724TIP3    H126587   0.446   5.045   3.415 -1.9184  2.0579 -0.6418
 1724TIP3    H226588   0.556   5.134   3.468 -0.3964 -0.2629  0.2444
 1725TIP3   OH226589   3.641   1.785   4.583 -0.6668 -0.0775  0.3440
 1725TIP3    H126590   3.580   1.738   4.639 -0.0340  0.9875  1.9957
 1725TIP3    H226591   3.618   1.877   4.595 -2.7529  0.2173 -3.7916
 1726TIP3   OH226592   2.735   0.962   1.528 -0.0065 -0.0785  0.6583
 1726TIP3    H126593   2.761   0.928   1.442  0.4714  2.5012 -0.3100
 1726TIP3    H226594   2.651   0.920   1.545  1.0512 -2.6106  0.1925
 1727TIP3   OH226595   3.036   3.242  14.373 -0.0462  0.0453 -0.0104
 1727TIP3    H126596   3.112   3.299  14.362 -0.3687  0.0918 -2.3972
 1727TIP3    H226597   2.964   3.290  14.333 -0.6898 -1.2979 -0.4982
 1728TIP3   OH226598   2.092   1.776  14.995 -0.4964  0.3356 -0.0597
 1728TIP3    H126599   2.079   1.811  15.083  0.3942  0.9582 -0.1613
 1728TIP3    H226600   2.005   1.781  14.954 -1.7185 -2.9227  1.7565
 1729TIP3   OH226601   0.199   2.558  14.920 -0.0327 -0.4186 -0.5431
 1729TIP3    H126602   0.159   2.642  14.898  0.4547  0.1679  0.7516
 1729TIP3    H226603   0.291   2.567  14.893 -0.4080 -1.2960 -2.2906
 1730TIP3   OH226604   2.200   0.347   3.786  0.7487  0.0138  0.5010
 1730TIP3    H126605   2.120   0.310   3.748 -0.6109  2.4174  0.8605
 1730TIP3    H226606   2.238   0.400   3.715  1.1557  0.1595  0.8247
 1731TIP3   OH226607   1.243   2.558  16.530 -0.7871 -0.4576  0.1623
 1731TIP3    H126608   1.263   2.569  16.437  0.9596  2.6415  0.7557
 1731TIP3    H226609   1.148   2.566  16.536 -0.7984  0.7890 -1.2297
 1732TIP3   OH226610   3.636   2.109  11.724  0.3796  0.5963 -0.1524
 1732TIP3    H126611   3.566   2.173  11.725 -1.5781 -1.4111  0.0140
 1732TIP3    H226612   3.686   2.129  11.645 -0.9803  1.5010 -0.8094
 1733TIP3   OH226613   1.214   5.684  10.979 -0.4868 -0.3008  0.0030
 1733TIP3    H126614   1.264   5.688  11.061 -2.2186 -2.2581  1.2694
 1733TIP3    H226615   1.262   5.622  10.924 -0.2645 -0.3782  0.2837
 1734TIP3   OH226616   1.545   1.807   5.830 -0.3837  0.2768  0.1402
 1734TIP3    H126617   1.639   1.825   5.830 -0.3325  0.0347 -0.1665
 1734TIP3    H226618   1.517   1.824   5.740 -0.3342 -1.0798 -0.1646
 1735TIP3   OH226619   0.219   2.739  11.526 -0.1672 -0.1623  0.0658
 1735TIP3    H126620   0.142   2.716  11.474 -2.1393 -0.2034  2.8073
 1735TIP3    H226621   0.198   2.824  11.564  0.5410 -0.7748  1.9243
 1736TIP3   OH226622   1.343   5.426  16.973  0.1848  0.1529 -0.2515
 1736TIP3    H126623   1.422   5.379  16.945 -0.0619  0.6141 -1.7834
 1736TIP3    H226624   1.369   5.469  17.054  1.6234  0.5389 -0.8813
 1737TIP3   OH226625   3.017   3.785   4.164  0.0210 -0.2436  0.4148
 1737TIP3    H126626   3.046   3.707   4.212 -1.1136 -0.9946 -0.0859
 1737TIP3    H226627   2.944   3.819   4.215 -1.2697 -1.1096 -0.7911
 1738TIP3   OH226628   0.010   1.760   0.327 -0.2358 -0.0585 -0.1893
 1738TIP3    H126629   0.008   1.677   0.374  1.0130 -0.2719 -0.4631
 1738TIP3    H226630  -0.026   1.739   0.241  0.0049 -0.3098 -0.2321
 1739TIP3   OH226631   0.035   5.244  16.042 -0.5622 -0.4280 -0.1990
 1739TIP3    H126632   0.080   5.172  15.997  1.3008  1.0439 -0.8499
 1739TIP3    H226633   0.103   5.311  16.053 -2.3422  1.4612 -0.1143
 1740TIP3   OH226634   2.689   4.530   2.554  0.2278  0.2129  0.2954
 1740TIP3    H126635   2.760   4.587   2.524 -0.2549  0.9334  0.4964
 1740TIP3    H226636   2.702   4.448   2.506 -0.1190  1.0898 -1.3800
 1741TIP3   OH226637   2.844   1.288  11.443 -0.4574  0.0719 -0.1076
 1741TIP3    H126638   2.776   1.260  11.382  0.3174  0.5076 -1.2134
 1741TIP3    H226639   2.847   1.220  11.509 -0.4670 -1.0673 -1.2424
 1742TIP3   OH226640   6.645   1.851  12.296  0.1708 -0.4749 -0.0938
 1742TIP3    H126641   6.665   1.798  12.373  0.1471 -0.0808  0.1894
 1742TIP3    H226642   6.730   1.885  12.268  0.0619  0.2399  0.4011
 1743TIP3   OH226643   1.428   1.400   4.268  0.1944 -0.7209 -0.3347
 1743TIP3    H126644   1.445   1.317   4.224  0.0482 -0.3662 -1.0809
 1743TIP3    H226645   1.475   1.465   4.216  1.2564 -0.4649  0.8877
 1744TIP3   OH226646   4.146   1.332   1.214  0.4199 -0.1840 -0.0280
 1744TIP3    H126647   4.060   1.302   1.242 -0.1031  0.8177 -0.5202
 1744TIP3    H226648   4.148   1.424   1.239  1.6860 -0.3914  0.7342
 1745TIP3   OH226649   1.708   4.716  13.483  0.4789  0.6427  0.1240
 1745TIP3    H126650   1.772   4.649  13.459 -0.7648 -0.4240 -0.3277
 1745TIP3    H226651   1.690   4.762  13.401 -1.2691 -0.8008 -0.3490
 1746TIP3   OH226652   1.183   1.416  11.524 -0.2659 -0.5851 -0.1558
 1746TIP3    H126653   1.159   1.328  11.554 -1.4224 -0.3739 -0.4236
 1746TIP3    H226654   1.230   1.454  11.598 -2.4616 -0.3290  1.2061
 1747TIP3   OH226655   0.639   6.368  13.295 -0.0403 -0.1239  0.4247
 1747TIP3    H126656   0.608   6.429  13.228  1.3743  1.9434  1.5359
 1747TIP3    H226657   0.692   6.304  13.247  0.6889  1.1341 -0.5126
 1748TIP3   OH226658   3.766   5.847   1.681  0.6766 -0.0033  0.1489
 1748TIP3    H126659   3.781   5.930   1.725 -0.6037  0.5578 -0.4250
 1748TIP3    H226660   3.756   5.870   1.589 -0.2896 -0.7035  0.0644
 1749TIP3   OH226661   1.787   5.213   3.537 -0.2968 -0.0176  0.4061
 1749TIP3    H126662   1.738   5.284   3.494 -1.0490 -0.3068  0.7640
 1749TIP3    H226663   1.879   5.237   3.526 -0.5492  1.3091  0.9967
 1750TIP3   OH226664   2.042   6.488   4.433 -0.5867 -0.4797 -0.0297
 1750TIP3    H126665   2.059   6.579   4.454  0.1008 -0.0423 -2.1753
 1750TIP3    H226666   2.093   6.438   4.497  0.4917  0.6750  0.0421
 1751TIP3   OH226667   0.156   6.315  11.820  0.5306 -0.1636 -0.0517
 1751TIP3    H126668   0.106   6.371  11.878 -1.0351 -0.3942 -1.1257
 1751TIP3    H226669   0.125   6.226  11.839 -0.3990 -0.1965 -1.5692
 1752TIP3   OH226670   0.811   3.046  11.932  0.7409 -0.4380 -0.4663
 1752TIP3    H126671   0.766   3.122  11.970  0.7365 -0.6828  0.0131
 1752TIP3    H226672   0.768   3.034  11.847  0.4947 -0.1294 -0.3894
 1753TIP3   OH226673   4.981   2.867   0.092  0.2074  0.1778 -0.7570
 1753TIP3    H126674   5.003   2.775   0.083  0.9495  0.3420 -0.6879
 1753TIP3    H226675   5.060   2.914   0.065  0.3325  0.7742  0.5415
 1754TIP3   OH226676   3.274   3.225   1.655 -0.0310  0.4392  0.1459
 1754TIP3    H126677   3.237   3.314   1.654 -0.3576  0.3214  0.9097
 1754TIP3    H226678   3.348   3.231   1.715  1.4218  0.7377 -1.5794
 1755TIP3   OH226679   1.706   1.246   1.411  0.2435 -0.0133 -0.5071
 1755TIP3    H126680   1.701   1.294   1.329  1.5955 -2.1601 -1.9173
 1755TIP3    H226681   1.786   1.279   1.453 -1.5023  2.5827  1.0582
 1756TIP3   OH226682   0.044   5.022  11.529 -0.4709 -0.2307 -0.7151
 1756TIP3    H126683  -0.039   5.013  11.575  0.6274 -1.3089  1.1728
 1756TIP3    H226684   0.056   4.937  11.485 -0.5976  0.1120 -1.4301
 1757TIP3   OH226685   6.514   2.874   5.394  0.0819  0.1931 -0.6495
 1757TIP3    H126686   6.509   2.873   5.298  0.2785  1.0456 -0.6772
 1757TIP3    H226687   6.434   2.919   5.421  0.6241  1.0793 -0.4767
 1758TIP3   OH226688   1.332   1.155   0.369 -0.2497  0.3697 -0.5760
 1758TIP3    H126689   1.425   1.133   0.377 -0.6116 -0.6736  1.3348
 1758TIP3    H226690   1.288   1.070   0.360 -1.1898  0.6551  0.9567
 1759TIP3   OH226691   6.189   4.732   4.018 -0.4701  0.2036 -0.3907
 1759TIP3    H126692   6.148   4.663   4.069 -0.4969  0.4042 -0.1409
 1759TIP3    H226693   6.199   4.694   3.930 -0.5680 -0.0823 -0.2792
 1760TIP3   OH226694   1.126   1.302  14.950 -0.3221 -0.0907  0.0547
 1760TIP3    H126695   1.195   1.302  15.017  1.9145  0.6323 -2.1166
 1760TIP3    H226696   1.079   1.384  14.964  1.5762  1.1706 -0.5928
 1761TIP3   OH226697   6.430   1.885  13.978 -0.0261  0.0674  0.3005
 1761TIP3    H126698   6.407   1.812  13.920 -1.6973  0.3881  0.5070
 1761TIP3    H226699   6.500   1.851  14.033 -1.0683 -1.5796  0.7033
 1762TIP3   OH226700   6.730   2.302   4.606 -0.3913 -0.3982 -0.7192
 1762TIP3    H126701   6.764   2.282   4.518 -0.1174  1.5126 -1.0921
 1762TIP3    H226702   6.787   2.372   4.638 -1.6374  0.2086  0.2392
 1763TIP3   OH226703   3.292   6.436  13.285 -0.1453 -0.3709  0.0217
 1763TIP3    H126704   3.203   6.471  13.291  0.4485  1.1405  0.3237
 1763TIP3    H226705   3.330   6.451  13.372  0.5423 -0.6196 -0.2313
 1764TIP3   OH226706   0.271   5.769  15.813 -0.3400  0.6394  0.0564
 1764TIP3    H126707   0.349   5.814  15.780  1.2811 -2.3155 -0.4799
 1764TIP3    H226708   0.299   5.731  15.896 -0.8004 -1.3269 -0.6314
 1765TIP3   OH226709   0.525   0.860  15.151 -0.1150  0.4048  0.2017
 1765TIP3    H126710   0.467   0.838  15.078 -0.4826  1.0121  0.2985
 1765TIP3    H226711   0.553   0.776  15.186 -0.8055  0.1004  0.0393
 1766TIP3   OH226712   1.433   1.420  14.876 -0.4505 -0.2092  0.2714
 1766TIP3    H126713   1.370   1.477  14.831  0.2213 -0.2584 -0.7629
 1766TIP3    H226714   1.455   1.353  14.812 -1.0596 -1.5300  1.4095
 1767TIP3   OH226715   1.091   6.596   1.400  0.4330  0.5686 -0.5078
 1767TIP3    H126716   1.187   6.597   1.404  0.4309  1.1438 -0.4912
 1767TIP3    H226717   1.064   6.556   1.482  0.6221  2.2909  0.4216
 1768TIP3   OH226718   0.451   0.225   5.880 -0.1942  0.5399 -0.4835
 1768TIP3    H126719   0.471   0.297   5.939  1.9192  0.5056 -1.0895
 1768TIP3    H226720   0.516   0.157   5.901 -0.5062 -0.1578 -1.6705
 1769TIP3   OH226721   6.227   0.362   3.229 -0.3798  0.4233  0.3540
 1769TIP3    H126722   6.253   0.398   3.314  0.0037  1.3530 -0.1475
 1769TIP3    H226723   6.260   0.425   3.165  1.3811 -1.4026 -0.6418
 1770TIP3   OH226724   2.388   2.391   5.903 -0.2701 -0.2175 -1.1861
 1770TIP3    H126725   2.429   2.326   5.846 -0.5966  0.1142 -1.8127
 1770TIP3    H226726   2.425   2.475   5.875  0.9560 -0.2102  0.3272
 1771TIP3   OH226727   3.197   0.159  10.916  0.4468 -0.2216  0.5725
 1771TIP3    H126728   3.172   0.170  10.824 -0.2893  2.1657  0.9943
 1771TIP3    H226729   3.292   0.153  10.915  0.4012 -0.9940 -0.3898
 1772TIP3   OH226730   1.576   2.235   2.191 -0.3002 -0.7520 -0.3840
 1772TIP3    H126731   1.584   2.328   2.214  0.0705 -0.5758 -1.1974
 1772TIP3    H226732   1.579   2.190   2.275  1.4142 -0.1427 -0.0773
 1773TIP3   OH226733   6.643   6.568   4.557 -0.3129  0.0763 -0.8967
 1773TIP3    H126734   6.591   6.490   4.534 -1.1986  0.6872 -1.0338
 1773TIP3    H226735   6.680   6.548   4.643  0.4862 -0.9889 -1.4693
 1774TIP3   OH226736   6.543   2.623  13.568 -0.2634 -0.0819  0.0423
 1774TIP3    H126737   6.502   2.633  13.482 -0.0186 -3.0470 -0.5146
 1774TIP3    H226738   6.621   2.679  13.564 -0.4194  0.0564 -1.5378
 1775TIP3   OH226739   1.356   1.097  12.093 -0.1548 -0.0125  0.2064
 1775TIP3    H126740   1.290   1.051  12.041 -0.1021 -0.9650  0.9445
 1775TIP3    H226741   1.433   1.100  12.036 -0.3405 -0.3389 -0.0676
 1776TIP3   OH226742   1.681   3.195  12.946 -0.3598 -0.5792  0.3302
 1776TIP3    H126743   1.712   3.271  12.994  0.8709 -2.2165  2.2766
 1776TIP3    H226744   1.585   3.203  12.947 -0.2841  0.4064  1.3972
 1777TIP3   OH226745   1.708   2.053  11.722  0.0584 -0.2519  0.5757
 1777TIP3    H126746   1.783   2.112  11.716 -0.4115  0.2140 -1.1593
 1777TIP3    H226747   1.721   1.990  11.652 -0.4732 -1.0098  1.1474
 1778TIP3   OH226748   2.293   3.872  15.630 -0.2014  0.0921  0.1005
 1778TIP3    H126749   2.370   3.888  15.685 -0.0657 -1.5164  0.4368
 1778TIP3    H226750   2.290   3.777  15.620 -3.3526 -0.1370  1.9076
 1779TIP3   OH226751   0.675   2.233   4.947  0.4332  0.0022  0.0993
 1779TIP3    H126752   0.622   2.157   4.971 -1.3078  1.1330  0.0254
 1779TIP3    H226753   0.755   2.224   4.999 -0.3403 -1.1407  1.1512
 1780TIP3   OH226754   2.342   5.799   3.785 -0.1186 -0.5799 -0.3461
 1780TIP3    H126755   2.393   5.874   3.815 -0.2600 -1.2202  1.5824
 1780TIP3    H226756   2.254   5.815   3.818 -0.7060 -0.5144 -1.8668
 1781TIP3   OH226757   0.348   1.031   3.509 -0.0210 -0.1450 -0.0647
 1781TIP3    H126758   0.434   1.023   3.551 -0.4685  1.1028  1.1853
 1781TIP3    H226759   0.302   0.950   3.533  0.4371 -0.3402  0.1662
 1782TIP3   OH226760   5.948   2.076  13.686 -0.0587 -0.0170  0.9874
 1782TIP3    H126761   5.971   2.022  13.762  1.0257 -1.3770 -0.2456
 1782TIP3    H226762   5.982   2.162  13.708 -0.3639 -0.2019  2.3168
 1783TIP3   OH226763   1.881   1.533  16.611 -0.4827 -0.6197  0.2737
 1783TIP3    H126764   1.913   1.527  16.701  0.3424 -2.7648 -0.1037
 1783TIP3    H226765   1.942   1.480  16.560 -0.2628  1.4517 -1.7832
 1784TIP3   OH226766   3.295   6.568   2.740  0.4261  0.5583  0.2463
 1784TIP3    H126767   3.239   6.492   2.756 -0.5557  0.9255 -1.2933
 1784TIP3    H226768   3.357   6.568   2.814 -0.2074 -1.1167  0.8193
 1785TIP3   OH226769   0.831   2.340   5.875  0.3150  0.0767  0.8292
 1785TIP3    H126770   0.879   2.351   5.792  2.2218 -0.0908  1.8557
 1785TIP3    H226771   0.818   2.429   5.907 -0.2354  0.1306  0.4741
 1786TIP3   OH226772   3.877   5.804  16.853 -0.4440 -0.8913  0.0621
 1786TIP3    H126773   3.915   5.812  16.765  1.3417 -1.5714  0.7316
 1786TIP3    H226774   3.812   5.875  16.857  0.3010 -0.0684 -1.3706
 1787TIP3   OH226775   1.539   3.791   0.586 -0.0674  0.1776  0.0545
 1787TIP3    H126776   1.551   3.883   0.563  1.0100  0.1847  0.5689
 1787TIP3    H226777   1.575   3.784   0.675 -0.4707 -0.6666  0.1613
 1788TIP3   OH226778   4.922   1.600  12.822 -0.4877 -0.1354 -0.2524
 1788TIP3    H126779   4.860   1.659  12.864  0.9832  1.3044 -0.0048
 1788TIP3    H226780   4.954   1.544  12.893  0.8423  1.2616  0.2933
 1789TIP3   OH226781   6.339   4.299  14.706  0.5819 -0.0133  0.1196
 1789TIP3    H126782   6.306   4.313  14.794  0.9238 -0.0815  0.2586
 1789TIP3    H226783   6.318   4.207  14.687  0.8031 -0.0924  0.2560
 1790TIP3   OH226784   4.613   2.337   4.385 -0.2825  0.1097 -0.1531
 1790TIP3    H126785   4.649   2.382   4.461 -1.0319 -0.1915  0.3864
 1790TIP3    H226786   4.611   2.245   4.409 -0.5044  0.0083 -0.5398
 1791TIP3   OH226787   0.394   3.885   0.465  0.2067 -0.4644  0.0600
 1791TIP3    H126788   0.342   3.888   0.546  0.4747 -2.1764  0.3283
 1791TIP3    H226789   0.485   3.878   0.496  0.3287 -0.8669 -0.3794
 1792TIP3   OH226790   6.403   2.684  13.344  0.3871  0.1151  0.0278
 1792TIP3    H126791   6.393   2.775  13.370 -0.1909  0.0026  0.2225
 1792TIP3    H226792   6.351   2.676  13.264 -2.2894 -0.7708  1.7083
 1793TIP3   OH226793   5.158   4.263   5.786  0.4139  0.1448 -0.4575
 1793TIP3    H126794   5.159   4.248   5.881 -0.0797 -0.4520 -0.5425
 1793TIP3    H226795   5.098   4.336   5.775 -0.3934 -0.4988 -0.3993
 1794TIP3   OH226796   6.582   1.859   3.019  0.1167 -0.8073 -0.0714
 1794TIP3    H126797   6.506   1.857   2.961 -0.2796 -2.0118  0.4654
 1794TIP3    H226798   6.555   1.915   3.091 -0.3867 -1.4572  0.2586
 1795TIP3   OH226799   0.066   6.244  15.520  0.0805  0.4146  0.1171
 1795TIP3    H126800   0.034   6.326  15.557 -3.0406  0.2745 -1.8591
 1795TIP3    H226801   0.023   6.176  15.573 -0.4415  0.1683 -0.5959
 1796TIP3   OH226802   2.991   2.001   3.710  0.0094 -0.7422 -0.8117
 1796TIP3    H126803   2.984   2.006   3.615  1.9384  0.6790 -0.9337
 1796TIP3    H226804   3.085   2.003   3.727 -0.3248  0.0170  1.1598
 1797TIP3   OH226805   5.670   2.543   4.061 -0.4192  0.2974 -0.0455
 1797TIP3    H126806   5.642   2.514   4.148  0.9021 -2.6005 -0.4866
 1797TIP3    H226807   5.761   2.567   4.072 -0.0895 -0.5946 -0.6943
 1798TIP3   OH226808   2.114   4.562   0.546 -0.0433  0.1076 -0.4072
 1798TIP3    H126809   2.096   4.501   0.618  1.0603 -0.2749 -0.4230
 1798TIP3    H226810   2.039   4.620   0.544 -0.9524 -1.0176 -0.1325
 1799TIP3   OH226811   2.626   4.006   3.702  0.3113  0.1521 -0.4901
 1799TIP3    H126812   2.654   3.946   3.634  0.8689 -0.7981  0.5509
 1799TIP3    H226813   2.671   3.976   3.781  0.1348  1.5747  0.1806
 1800TIP3   OH226814   6.397   0.444  10.475 -0.0631 -0.4960  0.1576
 1800TIP3    H126815   6.402   0.535  10.445 -0.4191 -1.1077 -1.9920
 1800TIP3    H226816   6.475   0.403  10.439 -1.1109 -1.5530 -1.0275
 1801TIP3   OH226817   0.477   3.123  17.324 -0.5680  0.4465  0.1744
 1801TIP3    H126818   0.543   3.099  17.389  1.6530  1.0910 -1.7317
 1801TIP3    H226819   0.485   3.218  17.316 -0.0947  0.2836 -1.6945
 1802TIP3   OH226820   0.866   2.201  16.012  0.2041 -0.0725 -0.1759
 1802TIP3    H126821   0.899   2.111  16.017 -0.4491 -0.3111 -0.1095
 1802TIP3    H226822   0.842   2.223  16.101 -0.0064  0.0290 -0.2581
 1803TIP3   OH226823   3.815   1.470   3.513 -0.4164  0.4137  0.1546
 1803TIP3    H126824   3.856   1.421   3.441 -1.3586  0.1841 -0.2355
 1803TIP3    H226825   3.865   1.444   3.591 -1.4129 -1.8579  0.0997
 1804TIP3   OH226826   3.115   5.155   4.196  0.2170  0.4887 -0.9331
 1804TIP3    H126827   3.042   5.190   4.144 -0.6725  0.8013  0.4694
 1804TIP3    H226828   3.193   5.187   4.151 -0.5292  1.2663 -1.7289
 1805TIP3   OH226829   6.219   5.807   5.839  0.1299  0.1340  0.1982
 1805TIP3    H126830   6.268   5.725   5.829  0.2926  0.2141  0.3558
 1805TIP3    H226831   6.223   5.827   5.932  1.3665  1.1139 -0.0344
 1806TIP3   OH226832   0.090   2.015  14.956 -0.2508  0.1489  0.2410
 1806TIP3    H126833   0.149   2.091  14.952  0.6251 -0.5690 -1.4410
 1806TIP3    H226834   0.142   1.947  15.000  0.7539 -0.8734 -2.3115
 1807TIP3   OH226835   3.162   2.068  13.286  0.1272 -0.1281  0.5905
 1807TIP3    H126836   3.138   2.128  13.357 -0.2586  0.9035 -0.3637
 1807TIP3    H226837   3.101   1.995  13.294 -0.3203  0.2786  0.9503
 1808TIP3   OH226838   3.730   3.242  16.299  0.3719  0.0920 -1.1480
 1808TIP3    H126839   3.804   3.192  16.335  0.0860 -0.5561 -1.4371
 1808TIP3    H226840   3.771   3.313  16.250  0.8045  2.3310  2.1459
 1809TIP3   OH226841   5.265   3.398   5.775  0.1111  0.7686 -0.2311
 1809TIP3    H126842   5.240   3.490   5.782  2.4434  1.4467  0.3244
 1809TIP3    H226843   5.282   3.370   5.865 -0.3286 -0.1393 -0.4192
 1810TIP3   OH226844   2.535   3.483  13.785 -0.1732 -0.1871  0.3329
 1810TIP3    H126845   2.531   3.575  13.813 -2.4106  0.0983 -0.7739
 1810TIP3    H226846   2.471   3.439  13.840  0.9401 -1.1545  0.9056
 1811TIP3   OH226847   4.522   5.865  13.508 -0.5625  0.4349 -0.1362
 1811TIP3    H126848   4.522   5.786  13.562 -1.9577 -0.6285 -1.5936
 1811TIP3    H226849   4.503   5.936  13.569  0.3564 -0.3677  1.1463
 1812TIP3   OH226850   4.194   5.140   4.756 -0.9104 -0.1216  0.4256
 1812TIP3    H126851   4.200   5.148   4.851 -0.6264 -0.7478  0.4617
 1812TIP3    H226852   4.217   5.227   4.723  0.2050 -0.2334  0.8818
 1813TIP3   OH226853   4.625   4.208  16.513 -0.2336  0.2107 -0.2714
 1813TIP3    H126854   4.548   4.200  16.457 -0.2966 -1.5395  0.0100
 1813TIP3    H226855   4.700   4.196  16.454 -0.2113  0.6469 -0.3368
 1814TIP3   OH226856   5.596   4.052  16.743  0.2690 -0.2311 -0.2132
 1814TIP3    H126857   5.667   4.014  16.691 -0.5384 -0.4191 -1.1927
 1814TIP3    H226858   5.578   3.986  16.810  0.4521 -0.5396 -0.4679
 1815TIP3   OH226859   1.199   4.826   1.771  0.6808 -0.1448  0.0063
 1815TIP3    H126860   1.105   4.840   1.765  0.5351 -1.2659 -0.5568
 1815TIP3    H226861   1.219   4.831   1.865  0.3881  1.9377  0.0081
 1816TIP3   OH226862   3.477   3.281   3.744  0.0811  0.0100  0.2494
 1816TIP3    H126863   3.413   3.228   3.790 -0.9000  2.3008  1.7033
 1816TIP3    H226864   3.554   3.224   3.735 -1.5280 -2.2468 -0.0708
 1817TIP3   OH226865   6.379   4.513  14.479 -0.7950 -0.1634 -0.4037
 1817TIP3    H126866   6.474   4.526  14.477 -0.8816  0.5882 -2.4072
 1817TIP3    H226867   6.364   4.453  14.552  1.2751 -0.6680 -0.3326
 1818TIP3   OH226868   3.739   4.356  12.896  0.1781 -0.2372  1.1943
 1818TIP3    H126869   3.646   4.370  12.913  0.5431  1.1221  2.2112
 1818TIP3    H226870   3.754   4.398  12.811  0.2716  1.5275  2.0301
 1819TIP3   OH226871   5.871   2.009  14.504  0.6020  0.1216 -0.1754
 1819TIP3    H126872   5.937   2.041  14.565 -0.5494  0.2630  1.0436
 1819TIP3    H226873   5.822   1.943  14.554  0.0633 -0.2682 -1.1775
 1820TIP3   OH226874   0.916   0.485  11.371  0.1659 -0.2226 -0.1524
 1820TIP3    H126875   0.929   0.445  11.285 -1.2367  1.9989 -1.5163
 1820TIP3    H226876   0.841   0.544  11.359  0.0624  0.3535  2.5488
 1821TIP3   OH226877   3.911   2.146   0.444  0.4328  0.0519  0.0449
 1821TIP3    H126878   3.854   2.224   0.445  0.2895  0.1040 -2.8315
 1821TIP3    H226879   3.993   2.176   0.483  0.3980  1.7090 -1.0453
 1822TIP3   OH226880   4.604   3.482  12.351  0.6142 -0.3261 -0.5157
 1822TIP3    H126881   4.680   3.435  12.317  0.1814 -1.0896 -0.4476
 1822TIP3    H226882   4.581   3.544  12.282  3.1582  2.1404  0.6523
 1823TIP3   OH226883   3.254   4.458   0.070 -0.7683  0.5172  0.4623
 1823TIP3    H126884   3.214   4.414  -0.005  1.2361 -2.9041  1.1789
 1823TIP3    H226885   3.346   4.469   0.045 -0.1171 -0.4377  2.1921
 1824TIP3   OH226886   6.690   6.012  11.100  0.2365  1.0129  0.7419
 1824TIP3    H126887   6.747   5.936  11.104  0.5692  1.2012 -0.1728
 1824TIP3    H226888   6.690   6.048  11.189 -1.0349 -0.8373  1.5406
 1825TIP3   OH226889   5.525   4.823  12.919  0.6041  0.2886 -0.6812
 1825TIP3    H126890   5.510   4.729  12.933 -0.0813  0.7475  2.4337
 1825TIP3    H226891   5.612   4.838  12.955  1.3743  0.6492 -2.5937
 1826TIP3   OH226892   0.572   4.843   4.731 -0.0802  0.0012  0.4299
 1826TIP3    H126893   0.490   4.863   4.778 -0.2109 -0.8677  0.6041
 1826TIP3    H226894   0.582   4.748   4.743  0.5245 -0.0255 -0.2882
 1827TIP3   OH226895   3.693   1.008  10.677 -0.2405 -0.0328  0.6298
 1827TIP3    H126896   3.727   0.938  10.732 -1.8052  0.0594  1.7835
 1827TIP3    H226897   3.771   1.046  10.636  0.7035 -1.8882  0.6159
 1828TIP3   OH226898   0.005   3.316   5.566  0.0498 -0.4552 -0.1850
 1828TIP3    H126899  -0.002   3.388   5.503  2.3613  0.1995  0.2437
 1828TIP3    H226900  -0.067   3.257   5.541 -1.5495  1.6586 -0.9191
 1829TIP3   OH226901   2.681   1.394  17.313 -0.0596 -0.1180 -0.2545
 1829TIP3    H126902   2.630   1.315  17.331 -0.8075  0.9575  3.2178
 1829TIP3    H226903   2.764   1.379  17.359  0.3897  0.5433 -0.8240
 1830TIP3   OH226904   1.802   5.235  10.935  0.0467 -0.1729  0.2957
 1830TIP3    H126905   1.818   5.329  10.932  0.8073 -0.3083 -1.1877
 1830TIP3    H226906   1.885   5.196  10.906 -0.2210 -1.3120  0.9869
 1831TIP3   OH226907   4.660   3.083   3.118 -0.1461  0.2962  0.1446
 1831TIP3    H126908   4.622   3.139   3.186 -0.9440  0.4510 -0.4112
 1831TIP3    H226909   4.716   3.022   3.166 -1.0595  0.0983  1.0003
 1832TIP3   OH226910   2.763   0.834   1.867  0.5026 -0.1465 -0.3294
 1832TIP3    H126911   2.753   0.914   1.815  0.3122  0.8141  1.1461
 1832TIP3    H226912   2.858   0.823   1.877  0.5362 -0.2579 -0.7343
 1833TIP3   OH226913   0.721   4.044  15.552 -0.5071 -0.1146  0.6390
 1833TIP3    H126914   0.718   4.140  15.546 -1.0653 -0.1388  0.4864
 1833TIP3    H226915   0.814   4.023  15.542 -0.6817  0.2060 -2.8266
 1834TIP3   OH226916   6.372   0.754  15.726 -0.0747 -0.0451  0.0984
 1834TIP3    H126917   6.349   0.841  15.695  1.9905  0.5410  0.0330
 1834TIP3    H226918   6.455   0.767  15.773 -0.9669 -1.5784  2.2331
 1835TIP3   OH226919   5.311   4.703   5.748 -0.1357  0.1494  0.1300
 1835TIP3    H126920   5.378   4.658   5.696 -0.7331 -0.0610 -0.4789
 1835TIP3    H226921   5.284   4.639   5.813  2.5794  1.2930  2.5957
 1836TIP3   OH226922   0.984   4.504  16.144  0.1130  0.2127 -0.3523
 1836TIP3    H126923   0.951   4.588  16.176 -0.7723 -0.4584  0.5710
 1836TIP3    H226924   0.914   4.469  16.089 -0.3575 -0.7920  0.8452
 1837TIP3   OH226925   3.470   5.863   4.779  0.4718 -0.2004  0.5194
 1837TIP3    H126926   3.508   5.845   4.693  0.4954  1.6324  0.1001
 1837TIP3    H226927   3.376   5.865   4.763  0.4793  0.2005  0.5064
 1838TIP3   OH226928   2.051   4.736  14.938 -0.8860  0.2009  0.5379
 1838TIP3    H126929   1.976   4.682  14.964 -1.1040 -0.6902 -1.7422
 1838TIP3    H226930   2.017   4.792  14.868  0.5018 -0.1037 -0.4255
 1839TIP3   OH226931   5.203   3.795   1.782 -0.4496 -0.1413  0.3580
 1839TIP3    H126932   5.134   3.786   1.717 -1.0956 -1.1280  1.1515
 1839TIP3    H226933   5.188   3.723   1.843  2.6500 -1.8606 -0.6994
 1840TIP3   OH226934   1.421   5.730   3.147  0.0222 -0.0131 -0.3456
 1840TIP3    H126935   1.504   5.778   3.149 -1.7190  3.3969 -1.2213
 1840TIP3    H226936   1.367   5.773   3.214 -1.4456 -1.3279 -0.6134
 1841TIP3   OH226937   0.102   4.208  11.464  0.4149  0.1767  0.2144
 1841TIP3    H126938   0.160   4.264  11.412  1.6745 -1.1396  0.1237
 1841TIP3    H226939   0.084   4.133  11.407 -0.6692  0.1394  0.5817
 1842TIP3   OH226940   1.889   6.738  14.484 -0.0414 -0.4452 -0.1474
 1842TIP3    H126941   1.932   6.814  14.445  1.2731 -1.7395 -1.3582
 1842TIP3    H226942   1.803   6.735  14.441 -0.3435  0.6633  0.3492
 1843TIP3   OH226943   3.008   4.343  15.653 -0.2885  0.0665  0.5304
 1843TIP3    H126944   3.086   4.397  15.637 -0.9841  0.9362 -0.0396
 1843TIP3    H226945   2.991   4.353  15.746  1.0465 -1.2150  0.9453
 1844TIP3   OH226946   4.080   3.913   0.092 -0.1589 -0.3211 -0.1038
 1844TIP3    H126947   4.143   3.935   0.161 -0.4960 -1.9467  0.7660
 1844TIP3    H226948   4.100   3.973   0.021  0.4654  1.1417  1.2549
 1845TIP3   OH226949   5.416   5.548   2.575  0.2650  0.2734 -0.1535
 1845TIP3    H126950   5.411   5.453   2.583 -2.8877  0.3693  0.3536
 1845TIP3    H226951   5.428   5.580   2.665  3.6167  0.4280 -0.5096
 1846TIP3   OH226952   4.984   1.474  13.068 -0.4505 -0.5218 -0.3867
 1846TIP3    H126953   4.891   1.465  13.088 -0.2289 -0.8614  0.5867
 1846TIP3    H226954   5.015   1.540  13.130 -0.2171  0.2501 -1.3096
 1847TIP3   OH226955   4.956   2.239  15.124 -0.5281 -0.4311  0.3816
 1847TIP3    H126956   4.923   2.321  15.160 -0.6935 -0.2968 -0.0653
 1847TIP3    H226957   4.982   2.188  15.200  0.0525  0.2396  0.6418
 1848TIP3   OH226958   4.452   5.567  16.907  0.0730 -0.8366  0.4875
 1848TIP3    H126959   4.546   5.577  16.894 -0.1178  0.6592  0.1101
 1848TIP3    H226960   4.416   5.559  16.819 -0.3755  0.9679  0.4760
 1849TIP3   OH226961   2.141   2.276   5.564 -0.3748  0.8590  0.2397
 1849TIP3    H126962   2.203   2.235   5.504 -0.1410  2.1545 -0.4546
 1849TIP3    H226963   2.072   2.211   5.577  1.1705 -0.6681  1.1259
 1850TIP3   OH226964   6.699   5.769  13.101  0.2443 -0.0577  0.4025
 1850TIP3    H126965   6.642   5.723  13.040  1.2250 -0.7731 -0.0064
 1850TIP3    H226966   6.786   5.762  13.062  0.8878 -0.4944  1.8558
 1851TIP3   OH226967   0.850   6.419  13.870 -0.2969 -0.1382  0.1707
 1851TIP3    H126968   0.915   6.423  13.800 -1.5388  2.3643 -0.9586
 1851TIP3    H226969   0.769   6.451  13.830 -2.0068 -2.1433  1.8124
 1852TIP3   OH226970   1.415   3.449  12.235 -0.1546 -0.2762  0.6337
 1852TIP3    H126971   1.467   3.497  12.171 -0.5892 -1.2383 -0.4854
 1852TIP3    H226972   1.479   3.411  12.295  0.2839  0.3358  0.5512
 1853TIP3   OH226973   2.113   6.029   3.571 -0.1242  0.0441 -0.7776
 1853TIP3    H126974   2.095   6.117   3.603  0.0150 -0.1315 -0.1939
 1853TIP3    H226975   2.207   6.019   3.580 -0.2463 -0.4842  0.0291
 1854TIP3   OH226976   2.222   3.753   2.722  0.6330  0.6294 -0.4858
 1854TIP3    H126977   2.262   3.693   2.660  1.0495  0.9469 -0.5337
 1854TIP3    H226978   2.132   3.765   2.691  0.5126 -0.0582 -0.4028
 1855TIP3   OH226979   4.015   3.029   3.223  0.2210 -0.9914  0.1058
 1855TIP3    H126980   4.103   3.064   3.209  0.0401 -0.7933 -0.5679
 1855TIP3    H226981   4.001   3.037   3.317 -0.0144  1.2197 -0.0783
 1856TIP3   OH226982   3.517   4.942   4.805  0.0813  0.7274  0.3756
 1856TIP3    H126983   3.534   5.015   4.865 -1.9920  1.3334  0.2886
 1856TIP3    H226984   3.599   4.893   4.804  0.8545  1.8791  2.0728
 1857TIP3   OH226985   4.976   6.351   6.728  0.1745  0.2744  0.2813
 1857TIP3    H126986   4.978   6.302   6.646 -0.3554 -0.6376  0.7929
 1857TIP3    H226987   5.068   6.362   6.752  0.3480  1.0211 -0.6992
 1858TIP3   OH226988   2.575   2.108  13.868 -0.1628  0.3492 -0.3162
 1858TIP3    H126989   2.667   2.088  13.848  0.4618  0.3771  2.2083
 1858TIP3    H226990   2.562   2.075  13.956 -2.1444  1.7369 -0.0185
 1859TIP3   OH226991   0.188   5.217  11.062  0.3613  0.2060  0.0621
 1859TIP3    H126992   0.191   5.156  11.136  2.2727  0.8513  0.5975
 1859TIP3    H226993   0.188   5.160  10.985  1.5810 -0.5112  0.5506
 1860TIP3   OH226994   3.743   4.429   4.436  0.1741 -0.0197  0.0880
 1860TIP3    H126995   3.825   4.379   4.435  0.8512  1.0613 -0.1323
 1860TIP3    H226996   3.761   4.505   4.381 -1.4277 -0.4436 -1.0934
 1861TIP3   OH226997   4.374   2.201  12.976 -0.3067  0.1242  0.1318
 1861TIP3    H126998   4.373   2.106  12.982  0.9387  0.0494 -0.4601
 1861TIP3    H226999   4.435   2.228  13.046  0.3496  0.3851 -0.5256
 1862TIP3   OH227000   2.173   1.502  15.168 -0.2049  0.3499 -0.6239
 1862TIP3    H127001   2.130   1.558  15.103 -1.4613  0.6437  0.4118
 1862TIP3    H227002   2.102   1.447  15.201  0.2178  0.8061  1.1194
 1863TIP3   OH227003   2.119   5.171  13.948  0.6810 -0.0172 -0.1179
 1863TIP3    H127004   2.196   5.115  13.961  0.6513  0.1398  0.8082
 1863TIP3    H227005   2.141   5.252  13.993  0.7058  0.7206 -1.4165
 1864TIP3   OH227006   5.859   4.502   3.703 -0.8237 -0.3206 -0.2967
 1864TIP3    H127007   5.936   4.490   3.759 -0.4791  0.3874 -0.6029
 1864TIP3    H227008   5.804   4.426   3.721  0.2552 -1.2044 -0.5697
 1865TIP3   OH227009   4.354   5.377   5.384  0.1833 -0.3420 -0.3557
 1865TIP3    H127010   4.360   5.413   5.472  0.3186  0.5618 -0.7107
 1865TIP3    H227011   4.291   5.306   5.390 -1.6905  1.2764 -0.0003
 1866TIP3   OH227012   2.753   4.413  14.181  0.1925  0.1629  0.6314
 1866TIP3    H127013   2.758   4.417  14.276 -1.2724  1.6030  0.6924
 1866TIP3    H227014   2.698   4.336  14.163 -0.4970  0.5529  1.0150
 1867TIP3   OH227015   4.121   1.879  10.992 -0.3355  0.0500 -0.4548
 1867TIP3    H127016   4.069   1.865  10.913  0.2308 -0.1082 -0.8045
 1867TIP3    H227017   4.145   1.790  11.021 -0.7374  0.0925  0.0361
 1868TIP3   OH227018   3.312   0.566  11.129  0.1546 -0.0184  0.4175
 1868TIP3    H127019   3.351   0.537  11.212 -0.4101  0.8397  1.0043
 1868TIP3    H227020   3.345   0.505  11.064  1.7808  0.1500  1.0382
 1869TIP3   OH227021   3.628   3.584  12.098 -0.0501  0.1889  0.3641
 1869TIP3    H127022   3.716   3.586  12.136 -0.5573 -0.0236  1.5944
 1869TIP3    H227023   3.597   3.674  12.105 -0.1096  0.1677  0.3789
 1870TIP3   OH227024   2.579   4.192  13.694 -0.5670  0.6011 -0.0615
 1870TIP3    H127025   2.590   4.280  13.658  2.3902  1.0751  1.6467
 1870TIP3    H227026   2.527   4.204  13.773 -2.6854  0.3008 -1.3410
 1871TIP3   OH227027   3.986   2.357   5.693 -0.0504 -0.1703 -0.1128
 1871TIP3    H127028   3.944   2.271   5.691 -1.7875  0.5726  1.4630
 1871TIP3    H227029   3.932   2.411   5.636 -1.3140  0.7706  1.8563
 1872TIP3   OH227030   4.698   4.970   0.762 -0.3644 -0.7314 -0.4437
 1872TIP3    H127031   4.689   4.886   0.718  0.4645 -0.1809 -1.7512
 1872TIP3    H227032   4.777   4.961   0.815 -0.8109 -1.0705  0.1823
 1873TIP3   OH227033   3.201   2.862   2.920  0.0684 -0.0040 -0.3092
 1873TIP3    H127034   3.119   2.838   2.877  0.1075 -1.6070  0.4435
 1873TIP3    H227035   3.186   2.840   3.012  1.3622 -0.3679 -0.1741
 1874TIP3   OH227036   6.574   1.605   2.063 -0.5837 -0.1606 -0.3427
 1874TIP3    H127037   6.481   1.598   2.083 -0.4643  0.7204  0.6225
 1874TIP3    H227038   6.586   1.554   1.983 -1.7388 -0.9548 -0.0256
 1875TIP3   OH227039   2.353   5.453   0.575  0.3338  0.7147  0.0680
 1875TIP3    H127040   2.388   5.428   0.661 -2.1258  1.3724  1.3745
 1875TIP3    H227041   2.285   5.388   0.558 -0.7717  1.9269 -0.2450
 1876TIP3   OH227042   1.326   0.911   2.016 -0.3637  0.1955  0.0115
 1876TIP3    H127043   1.286   0.858   1.948 -0.3772  0.3050 -0.0668
 1876TIP3    H227044   1.330   0.854   2.092  0.6875 -0.2890 -0.3966
 1877TIP3   OH227045   4.329   6.140   3.266  0.1191 -0.9098  0.0494
 1877TIP3    H127046   4.399   6.199   3.237 -0.6831 -0.2993 -0.6996
 1877TIP3    H227047   4.373   6.057   3.285  0.8208 -1.0922 -2.1084
 1878TIP3   OH227048   1.891   2.544  11.194  0.1817  0.4661  0.3800
 1878TIP3    H127049   1.877   2.603  11.120 -0.7168 -1.0107 -0.6948
 1878TIP3    H227050   1.813   2.488  11.195  0.5847 -0.1159  1.9104
 1879TIP3   OH227051   4.314   1.395   3.494 -0.5792  0.1171  0.0581
 1879TIP3    H127052   4.321   1.371   3.401 -0.3657 -0.3095  0.1843
 1879TIP3    H227053   4.349   1.320   3.541 -1.7790 -0.1777  0.5275
 1880TIP3   OH227054   2.530   6.451  16.901 -0.5520  0.9708  0.1234
 1880TIP3    H127055   2.608   6.408  16.866 -0.0206  1.9424  0.0743
 1880TIP3    H227056   2.562   6.501  16.976 -1.0884  1.5529 -0.0313
 1881TIP3   OH227057   6.607   3.531  11.945  0.3790  0.5932  0.3811
 1881TIP3    H127058   6.545   3.515  12.015 -0.3732 -0.1747 -0.4351
 1881TIP3    H227059   6.613   3.627  11.939 -0.6044  0.6734  0.5793
 1882TIP3   OH227060   6.744   3.499   4.862 -0.5881  0.0965  0.8995
 1882TIP3    H127061   6.829   3.464   4.834 -0.7324  0.6913 -0.3431
 1882TIP3    H227062   6.760   3.532   4.951  0.4268  0.0133  0.7644
 1883TIP3   OH227063   5.613   2.826  16.486  0.0476  0.1371  0.2587
 1883TIP3    H127064   5.578   2.816  16.397 -0.2475  0.3178  0.3535
 1883TIP3    H227065   5.586   2.914  16.512  0.6541  0.3140  0.2989
 1884TIP3   OH227066   1.264   2.425  13.477 -0.0756  0.2375 -0.2986
 1884TIP3    H127067   1.244   2.411  13.570  0.6970 -0.2474 -0.1958
 1884TIP3    H227068   1.359   2.435  13.475 -0.1530  0.8602 -0.9677
 1885TIP3   OH227069   6.474   3.899   1.456  0.2881  0.1129 -0.6336
 1885TIP3    H127070   6.471   3.910   1.551  1.1921 -1.5062 -0.3755
 1885TIP3    H227071   6.506   3.983   1.423  0.3810  0.5522  0.5423
 1886TIP3   OH227072   4.142   4.517  11.154  0.1903 -0.6418  0.5687
 1886TIP3    H127073   4.091   4.598  11.151  0.0149 -0.7141  1.3753
 1886TIP3    H227074   4.110   4.471  11.232  0.4705 -1.3662  0.2718
 1887TIP3   OH227075   4.963   3.376   5.246 -0.1292 -0.1615 -0.0234
 1887TIP3    H127076   4.916   3.293   5.237  0.4221 -0.3266 -1.9285
 1887TIP3    H227077   4.966   3.392   5.340  0.5340 -2.7579  0.4821
 1888TIP3   OH227078   5.455   2.617   1.575 -0.4517  0.1218 -0.7366
 1888TIP3    H127079   5.464   2.693   1.632  1.1745 -0.1193 -0.6318
 1888TIP3    H227080   5.360   2.606   1.565 -0.7284  1.8799 -0.4097
 1889TIP3   OH227081   0.249   4.935  11.788 -0.0672 -0.5506 -0.1500
 1889TIP3    H127082   0.254   4.840  11.775 -2.6531 -0.7493 -0.2300
 1889TIP3    H227083   0.155   4.954  11.785  0.3814  1.9806  0.1917
 1890TIP3   OH227084   4.360   2.932  12.393 -0.1510  0.1029 -0.1760
 1890TIP3    H127085   4.384   3.024  12.387 -1.7454  0.6641  1.2140
 1890TIP3    H227086   4.441   2.886  12.415  0.6689  1.1497 -0.9339
 1891TIP3   OH227087   6.522   2.331  15.507 -0.4536  0.4289  0.0295
 1891TIP3    H127088   6.539   2.287  15.424  3.5444  1.1989  0.2811
 1891TIP3    H227089   6.441   2.381  15.491 -1.1694 -1.3347 -2.5186
 1892TIP3   OH227090   2.346   1.304   1.728 -0.3819  0.1297  0.2965
 1892TIP3    H127091   2.294   1.294   1.808  0.0522  0.8672  0.6818
 1892TIP3    H227092   2.393   1.387   1.740 -0.0669  0.0881 -0.5852
 1893TIP3   OH227093   4.160   0.427  14.046 -0.0428  0.0002  0.3384
 1893TIP3    H127094   4.191   0.511  14.081  1.4038 -0.6119  0.6115
 1893TIP3    H227095   4.211   0.415  13.966 -2.0311  0.5225 -1.0897
 1894TIP3   OH227096   2.419   4.786  12.436 -0.0560  0.1943 -0.3174
 1894TIP3    H127097   2.371   4.786  12.519  1.4497  0.8279  0.6091
 1894TIP3    H227098   2.418   4.695  12.407  1.6114 -0.5929  1.7963
 1895TIP3   OH227099   6.179   1.222   4.597  0.1708  0.2362  0.0736
 1895TIP3    H127100   6.120   1.159   4.638  0.5449  1.4828  2.7162
 1895TIP3    H227101   6.260   1.214   4.646  0.9609  1.2469 -1.0113
 1896TIP3   OH227102   5.073   3.380   0.176  0.6195  0.0343  0.5437
 1896TIP3    H127103   4.987   3.421   0.165  0.5370 -0.6172 -1.7912
 1896TIP3    H227104   5.054   3.292   0.208  0.2614 -0.5017 -1.0132
 1897TIP3   OH227105   0.446   1.664  15.984 -0.1144 -0.2909 -0.1045
 1897TIP3    H127106   0.448   1.758  15.971  1.6066 -0.3430 -0.4666
 1897TIP3    H227107   0.357   1.645  16.015 -0.8453  1.2851 -1.1412
 1898TIP3   OH227108   0.533   4.626   4.080 -0.3739 -0.0215  0.4798
 1898TIP3    H127109   0.462   4.580   4.125 -1.9233  2.0679  0.3095
 1898TIP3    H227110   0.567   4.687   4.146  1.2081 -0.8895  0.5110
 1899TIP3   OH227111   0.251   1.493   5.180 -0.3311  0.1541 -0.0893
 1899TIP3    H127112   0.282   1.423   5.123  0.4910  0.8969 -0.5820
 1899TIP3    H227113   0.284   1.472   5.267  1.1112  0.6308 -0.4969
 1900TIP3   OH227114   4.907   5.375   3.458  0.4065  0.3674 -0.3580
 1900TIP3    H127115   4.915   5.294   3.509 -0.9943  0.0780 -0.5443
 1900TIP3    H227116   4.997   5.398   3.435  1.1910  0.8105  2.6812
 1901TIP3   OH227117   6.639   0.403  10.733  0.6326 -0.4909 -0.2659
 1901TIP3    H127118   6.635   0.495  10.759  1.8251 -0.8556  1.4217
 1901TIP3    H227119   6.571   0.393  10.667  0.3817  1.5611 -0.3800
 1902TIP3   OH227120   6.198   0.527  15.683  0.3434 -0.5774  0.9062
 1902TIP3    H127121   6.283   0.490  15.659 -0.3049 -0.2950 -2.1145
 1902TIP3    H227122   6.211   0.622  15.675 -0.3915 -0.5549 -0.2000
 1903TIP3   OH227123   3.126   6.709  13.807  0.5828 -0.0652  0.1977
 1903TIP3    H127124   3.109   6.681  13.897 -0.0340 -1.3530 -0.2955
 1903TIP3    H227125   3.168   6.794  13.816 -3.7261  2.2558  1.6567
 1904TIP3   OH227126   4.536   3.354   4.773  0.4071 -0.3865 -0.2276
 1904TIP3    H127127   4.622   3.344   4.732  0.9539  2.4008  0.0270
 1904TIP3    H227128   4.528   3.278   4.830  1.9424 -1.5948 -1.4949
 1905TIP3   OH227129   2.344   4.830  16.028  0.8153 -0.5385  0.0992
 1905TIP3    H127130   2.408   4.766  16.060  0.8451 -0.8578 -0.5812
 1905TIP3    H227131   2.269   4.821  16.087  1.1276 -0.6447  0.4845
 1906TIP3   OH227132   2.903   1.459   3.799 -0.1190 -0.7330 -0.3314
 1906TIP3    H127133   2.979   1.481   3.852 -0.0103 -3.7744  0.9621
 1906TIP3    H227134   2.939   1.420   3.719 -0.3189 -0.2590 -0.6573
 1907TIP3   OH227135   5.415   0.794  16.838  0.1999 -0.1980 -0.2367
 1907TIP3    H127136   5.355   0.838  16.777  2.1665  1.3114 -1.2095
 1907TIP3    H227137   5.452   0.722  16.788 -0.9633 -1.3098  0.4599
 1908TIP3   OH227138   0.074   4.307  15.817  0.4124  0.7124 -0.2206
 1908TIP3    H127139   0.082   4.247  15.743  1.0644  1.1467 -0.5100
 1908TIP3    H227140   0.099   4.254  15.893  0.2845  0.4202 -0.3803
 1909TIP3   OH227141   1.827   2.588   3.783 -0.1235 -0.0898  0.2108
 1909TIP3    H127142   1.813   2.573   3.877  0.5740  0.1079  0.3516
 1909TIP3    H227143   1.912   2.631   3.778 -0.3753  0.3416 -0.4802
 1910TIP3   OH227144   3.940   0.884  14.181 -0.4347 -0.0760 -0.4875
 1910TIP3    H127145   3.918   0.883  14.275  1.9240 -2.0174  0.1740
 1910TIP3    H227146   3.965   0.975  14.163  1.3843 -0.1131  1.4558
 1911TIP3   OH227147   2.073   5.677  16.743 -0.4694  0.2037  0.7030
 1911TIP3    H127148   2.020   5.600  16.762  1.3024 -1.6652 -1.3949
 1911TIP3    H227149   2.160   5.643  16.725  0.1839  2.5814 -1.2141
 1912TIP3   OH227150   4.740   4.065   6.218 -0.2741  0.2672  0.6853
 1912TIP3    H127151   4.805   4.062   6.288 -0.5444  0.7869  0.9623
 1912TIP3    H227152   4.701   4.152   6.225  1.0570  1.1207 -1.3557
 1913TIP3   OH227153   1.782   0.991  14.966 -0.0753  0.1480 -0.1340
 1913TIP3    H127154   1.840   1.064  14.984 -1.1849  1.1285 -0.4117
 1913TIP3    H227155   1.696   1.031  14.950 -0.2331 -0.9991 -2.6704
 1914TIP3   OH227156   2.594   6.132  13.210 -0.0335 -0.3477 -0.6330
 1914TIP3    H127157   2.513   6.094  13.245  0.8267 -0.9472  0.7595
 1914TIP3    H227158   2.593   6.222  13.243 -0.1021 -0.3682 -0.5775
 1915TIP3   OH227159   5.351   4.065   5.971 -0.0287  0.1693 -0.0829
 1915TIP3    H127160   5.427   4.035   5.922  1.4258  0.5298  1.8606
 1915TIP3    H227161   5.366   4.036   6.060 -0.9085  2.4582  0.8933
 1916TIP3   OH227162   2.652   1.353  12.683 -0.0737  0.7788 -0.5167
 1916TIP3    H127163   2.642   1.258  12.692  0.4734  0.7091 -0.6051
 1916TIP3    H227164   2.746   1.367  12.691 -0.2214  1.3935  0.2515
 1917TIP3   OH227165   0.808   6.030  12.751 -0.1358 -0.0366 -0.0246
 1917TIP3    H127166   0.820   5.966  12.682 -0.1537 -0.9170  0.7687
 1917TIP3    H227167   0.896   6.057  12.776 -0.0879 -0.4837  0.3001
 1918TIP3   OH227168   1.522   6.509  13.641 -0.5645  0.5152  0.0148
 1918TIP3    H127169   1.469   6.539  13.567  1.1454  1.6961 -0.8067
 1918TIP3    H227170   1.483   6.552  13.717 -2.5024 -0.9197 -0.1032
 1919TIP3   OH227171   4.383   2.278   5.916  0.2045 -0.0269  0.4431
 1919TIP3    H127172   4.326   2.355   5.902 -0.2111 -0.5430 -0.9505
 1919TIP3    H227173   4.472   2.314   5.917 -0.0434  0.5921  0.8962
 1920TIP3   OH227174   0.822   4.873  12.610 -0.2270 -0.5798 -0.4694
 1920TIP3    H127175   0.755   4.914  12.556  0.0170 -1.4690 -1.4873
 1920TIP3    H227176   0.816   4.780  12.589 -0.7319 -1.0788  1.7353
 1921TIP3   OH227177   1.949   5.411   0.418 -0.3655 -0.2560 -0.1592
 1921TIP3    H127178   2.017   5.445   0.360  1.8079 -2.2146  1.0592
 1921TIP3    H227179   1.917   5.333   0.373 -0.5416 -0.3108  0.0632
 1922TIP3   OH227180   0.918   0.729  16.615 -0.9957  0.1402 -0.0986
 1922TIP3    H127181   0.955   0.668  16.679 -0.1198  1.8707  1.1272
 1922TIP3    H227182   0.987   0.739  16.549 -1.4740 -0.8238 -0.7513
 1923TIP3   OH227183   5.959   0.505  13.400 -0.6124  0.6749  0.1509
 1923TIP3    H127184   5.943   0.572  13.334  1.8606  0.7967 -0.4268
 1923TIP3    H227185   6.042   0.465  13.374 -1.6929 -2.2815  0.7810
 1924TIP3   OH227186   4.262   3.734   2.589 -0.2512 -0.4846  0.3279
 1924TIP3    H127187   4.345   3.745   2.543 -0.0240 -1.2374  0.5406
 1924TIP3    H227188   4.288   3.719   2.680 -0.6004 -1.1461  0.3196
 1925TIP3   OH227189   6.576   3.040  15.670 -0.1595 -0.3466 -0.1057
 1925TIP3    H127190   6.610   2.966  15.720 -0.2642 -1.5429 -1.7087
 1925TIP3    H227191   6.646   3.061  15.608 -0.6207  0.0661 -0.4989
 1926TIP3   OH227192   6.727   0.932  12.523  0.3530  0.3667  0.5945
 1926TIP3    H127193   6.652   0.926  12.463 -0.6522  0.5645  1.7727
 1926TIP3    H227194   6.736   0.844  12.559  1.7492 -0.0639 -0.7320
 1927TIP3   OH227195   6.112   3.667   5.620 -0.1949 -0.2117  0.3219
 1927TIP3    H127196   6.111   3.641   5.528 -0.4861 -0.0295  0.2753
 1927TIP3    H227197   6.205   3.684   5.639 -0.1018 -0.5122  0.1373
 1928TIP3   OH227198   1.134   4.083   4.641  0.1894 -0.2893  0.2634
 1928TIP3    H127199   1.119   3.993   4.668  1.7363 -0.6640 -0.0115
 1928TIP3    H227200   1.161   4.077   4.549  2.7782  0.1225  0.8973
 1929TIP3   OH227201   0.839   1.072  16.414  0.3657  0.4878 -0.0490
 1929TIP3    H127202   0.768   1.013  16.389 -0.7770  2.3716 -1.4543
 1929TIP3    H227203   0.822   1.153  16.366  1.2186  2.4113  2.6545
 1930TIP3   OH227204   2.307   0.362   4.046 -0.2914 -0.3834 -0.1644
 1930TIP3    H127205   2.279   0.371   3.955 -1.4383 -0.4370  0.1589
 1930TIP3    H227206   2.303   0.268   4.063 -2.6174 -0.2011  0.6529
 1931TIP3   OH227207   0.883   1.023  14.727  1.0249 -0.0597 -0.4316
 1931TIP3    H127208   0.803   1.069  14.751  0.4444 -0.4390 -1.5570
 1931TIP3    H227209   0.918   0.990  14.810 -0.6124 -0.8992 -0.0307
 1932TIP3   OH227210   5.511   4.455  11.744 -0.0732  0.5151  0.5473
 1932TIP3    H127211   5.586   4.515  11.739  0.4801 -0.0494  1.6411
 1932TIP3    H227212   5.474   4.470  11.831 -2.8003  2.5504 -0.8105
 1933TIP3   OH227213   0.641   2.741   2.754  0.7278 -0.2277  0.2002
 1933TIP3    H127214   0.668   2.705   2.670  0.6530 -0.4459  0.2691
 1933TIP3    H227215   0.683   2.827   2.758  0.2540  0.0330 -0.3109
 1934TIP3   OH227216   5.367   2.519  11.241 -0.2536  0.3485 -0.3987
 1934TIP3    H127217   5.400   2.477  11.161  2.3147 -1.3122  1.3804
 1934TIP3    H227218   5.428   2.591  11.256 -3.1266  3.3675 -2.0054
 1935TIP3   OH227219   4.837   4.240  15.693  0.2177 -0.1332  0.2107
 1935TIP3    H127220   4.878   4.240  15.780  0.6798 -0.3212 -0.0016
 1935TIP3    H227221   4.883   4.308  15.644 -0.0343 -0.0349  0.1085
 1936TIP3   OH227222   6.228   3.825   4.806 -0.4956  0.2122 -0.3011
 1936TIP3    H127223   6.212   3.747   4.858  0.3935  0.4606  0.3580
 1936TIP3    H227224   6.250   3.792   4.719 -1.6339 -0.2132 -0.4393
 1937TIP3   OH227225   2.798   0.187   0.036  0.4302  0.3327 -0.6827
 1937TIP3    H127226   2.782   0.258  -0.026  0.0720  2.0720  1.2900
 1937TIP3    H227227   2.711   0.152   0.056  0.3737  0.8375 -0.0063
 1938TIP3   OH227228   0.109   2.448   2.617 -0.2311 -0.5264 -0.4427
 1938TIP3    H127229   0.038   2.389   2.643  0.8036 -1.6323 -0.0335
 1938TIP3    H227230   0.161   2.397   2.555  0.7585 -0.0994  0.0124
 1939TIP3   OH227231   6.259   5.051   5.069  0.4161 -0.3566  0.3133
 1939TIP3    H127232   6.307   5.105   5.006  0.4857 -0.3439  0.3766
 1939TIP3    H227233   6.320   4.981   5.092  0.1800 -0.6909 -0.0747
 1940TIP3   OH227234   0.298   6.698   5.019 -0.0313 -0.2718  0.5740
 1940TIP3    H127235   0.370   6.682   5.079  0.8515  0.3571 -0.2864
 1940TIP3    H227236   0.259   6.780   5.049 -0.5581 -0.7368  1.1858
 1941TIP3   OH227237   1.049   2.793  11.888  0.3837  0.7111 -0.4287
 1941TIP3    H127238   1.044   2.797  11.792  0.3197  3.4084 -0.4009
 1941TIP3    H227239   1.131   2.747  11.906  0.1864 -0.2179 -1.7557
 1942TIP3   OH227240   5.796   1.143  16.076  0.1855  0.0621 -0.4293
 1942TIP3    H127241   5.766   1.082  16.008 -1.3597 -0.0100  0.2655
 1942TIP3    H227242   5.738   1.127  16.150 -0.0240  2.0740 -0.0769
 1943TIP3   OH227243   4.243   6.532  11.600  0.1395 -0.1944  0.2648
 1943TIP3    H127244   4.215   6.554  11.688 -1.2901 -1.4194  0.1554
 1943TIP3    H227245   4.313   6.594  11.581 -1.0368  1.5720  1.4044
 1944TIP3   OH227246   4.481   0.003  16.297  0.2576 -0.0806 -0.1123
 1944TIP3    H127247   4.532   0.059  16.355  0.2200 -2.1540  2.0469
 1944TIP3    H227248   4.492  -0.085  16.332 -3.5676 -0.8405 -0.4158
 1945TIP3   OH227249   1.537   0.565  15.158  0.1993 -0.0097 -0.5560
 1945TIP3    H127250   1.529   0.497  15.091 -0.3797 -0.0713 -0.4240
 1945TIP3    H227251   1.479   0.537  15.228  2.7805 -1.3526  1.1758
 1946TIP3   OH227252   3.174   6.730   2.331 -0.1348  0.0641 -0.6242
 1946TIP3    H127253   3.269   6.721   2.331 -0.1534 -0.1340 -0.9402
 1946TIP3    H227254   3.149   6.722   2.239 -0.4720 -0.0366 -0.5243
 1947TIP3   OH227255   4.628   6.121   2.361  0.3163 -0.4955 -0.2014
 1947TIP3    H127256   4.692   6.079   2.303 -0.1396 -0.0240 -1.0748
 1947TIP3    H227257   4.626   6.212   2.332  1.8974  0.4122  2.1967
 1948TIP3   OH227258   3.311   6.086   0.402 -0.1182  0.0224  0.6369
 1948TIP3    H127259   3.380   6.066   0.465  1.5222  0.0502 -1.0803
 1948TIP3    H227260   3.263   6.004   0.391  1.1437 -0.6619  0.0898
 1949TIP3   OH227261   0.915   0.119   6.066  0.0992  0.0043 -0.4293
 1949TIP3    H127262   0.830   0.144   6.100  0.0674 -1.2651  0.5073
 1949TIP3    H227263   0.977   0.149   6.133  0.0673 -2.1883  0.6505
 1950TIP3   OH227264   3.532   1.276   1.406  0.3303  0.5122  0.1329
 1950TIP3    H127265   3.442   1.293   1.378  0.2481  1.1926  0.7821
 1950TIP3    H227266   3.533   1.182   1.426 -0.1615  0.4479 -0.1279
 1951TIP3   OH227267   4.401   4.646  13.235 -0.4731 -0.3069 -0.3519
 1951TIP3    H127268   4.397   4.559  13.276 -0.5431 -1.3195 -2.3738
 1951TIP3    H227269   4.396   4.628  13.141 -0.6749  1.9192 -0.8183
 1952TIP3   OH227270   4.648   4.966   3.717 -0.0251  0.0953 -0.2066
 1952TIP3    H127271   4.613   5.036   3.662 -1.4039  0.1372  0.6769
 1952TIP3    H227272   4.631   4.885   3.668 -1.9542  0.0571  0.4244
 1953TIP3   OH227273   2.705   1.770  16.346  0.2417 -0.2658 -0.1517
 1953TIP3    H127274   2.771   1.776  16.277  0.3045  0.0359 -0.0664
 1953TIP3    H227275   2.640   1.836  16.322  0.1017 -0.3856 -0.0989
 1954TIP3   OH227276   4.602   3.133   0.508  0.4766  0.1940 -1.1147
 1954TIP3    H127277   4.525   3.084   0.539  0.6464  0.7018  0.1975
 1954TIP3    H227278   4.581   3.156   0.418 -0.4347 -0.6369 -1.1325
 1955TIP3   OH227279   4.031   2.943  15.611  0.3082  0.6186  0.0973
 1955TIP3    H127280   4.017   3.011  15.546  1.1545  2.8900  2.1296
 1955TIP3    H227281   4.122   2.956  15.640  0.6572 -1.7044  0.2363
 1956TIP3   OH227282   2.221   5.197   2.808  0.3595 -0.0131 -0.3523
 1956TIP3    H127283   2.240   5.104   2.821  2.9253  0.5362  0.3875
 1956TIP3    H227284   2.128   5.206   2.830  0.6590 -1.9713  2.1656
 1957TIP3   OH227285   1.845   1.205  11.308  0.4128 -0.0222  0.5103
 1957TIP3    H127286   1.836   1.261  11.231  0.0717  1.2656  1.4561
 1957TIP3    H227287   1.930   1.161  11.297  0.4802  0.3461 -0.4577
 1958TIP3   OH227288   4.144   2.550  15.071  0.8472  0.1315  0.2187
 1958TIP3    H127289   4.064   2.537  15.122  0.2379  0.7132 -0.5526
 1958TIP3    H227290   4.114   2.549  14.980  1.3382  2.5848 -0.0441
 1959TIP3   OH227291   0.709   4.843  15.652 -0.0833 -0.1246 -0.0121
 1959TIP3    H127292   0.739   4.904  15.584  1.2625  0.5433  1.1273
 1959TIP3    H227293   0.615   4.857  15.658 -0.3100 -0.4762 -1.9797
 1960TIP3   OH227294   6.308   2.386   2.352  0.0280 -0.5794 -0.0053
 1960TIP3    H127295   6.317   2.480   2.364  0.0869 -0.8190  2.3714
 1960TIP3    H227296   6.247   2.376   2.278 -2.5202  1.4013  1.6625
 1961TIP3   OH227297   2.095   2.862  16.666 -0.1712 -0.1518  0.1883
 1961TIP3    H127298   2.010   2.817  16.669 -0.6686  0.7107 -0.4516
 1961TIP3    H227299   2.158   2.794  16.646 -1.0377 -0.4248 -1.7898
 1962TIP3   OH227300   5.378   3.931  15.250  0.1753 -0.4715  0.1771
 1962TIP3    H127301   5.329   3.870  15.304 -0.3872 -0.3040 -0.1375
 1962TIP3    H227302   5.429   3.983  15.313 -1.2140  0.3819  0.6531
 1963TIP3   OH227303   1.591   1.054   0.358  0.4162 -0.2503  0.7437
 1963TIP3    H127304   1.587   0.988   0.428  0.7025 -0.6802  0.3635
 1963TIP3    H227305   1.681   1.086   0.361  0.1581  0.4519  1.2152
 1964TIP3   OH227306   2.969   2.616   4.853 -0.9438  0.8261 -0.3774
 1964TIP3    H127307   2.923   2.546   4.808 -0.5017  0.2752  0.0201
 1964TIP3    H227308   2.909   2.690   4.850 -0.9449  0.7940 -1.8280
 1965TIP3   OH227309   3.151   3.827   5.936 -0.1486 -0.3493 -0.0449
 1965TIP3    H127310   3.215   3.767   5.898  0.2976 -1.0236  1.6970
 1965TIP3    H227311   3.193   3.861   6.015 -0.4622  2.1515 -0.8448
 1966TIP3   OH227312   1.031   6.152  14.745 -0.0643 -0.6705 -0.6126
 1966TIP3    H127313   1.113   6.186  14.782 -0.7125 -0.4855  0.7062
 1966TIP3    H227314   1.054   6.064  14.715 -0.0249 -1.8692  2.5416
 1967TIP3   OH227315   5.545   0.581   0.301  0.0450 -0.4046  0.2037
 1967TIP3    H127316   5.527   0.502   0.251 -0.2383  1.1503 -2.3224
 1967TIP3    H227317   5.463   0.630   0.300  0.2931  0.0798  1.4621
 1968TIP3   OH227318   1.068   5.218   4.082  0.3161 -0.2996 -0.2571
 1968TIP3    H127319   1.031   5.305   4.092  0.8864 -0.0625 -0.1550
 1968TIP3    H227320   1.162   5.233   4.069  0.3623 -0.8747 -0.6569
 1969TIP3   OH227321   4.665   6.039  17.063 -0.5909 -0.3173  0.1279
 1969TIP3    H127322   4.588   6.052  17.008  0.5584  0.4478 -1.3831
 1969TIP3    H227323   4.662   6.112  17.125  1.0616  2.3710 -2.6395
 1970TIP3   OH227324   2.414   4.366   1.237 -0.4869 -0.0056  0.3199
 1970TIP3    H127325   2.327   4.375   1.278 -1.3294 -2.6010 -0.6843
 1970TIP3    H227326   2.395   4.355   1.144  0.7994 -1.9101  0.2474
 1971TIP3   OH227327   4.780   3.816  15.780  0.8875  0.1744 -0.1314
 1971TIP3    H127328   4.875   3.829  15.777  1.0244 -0.5746  0.7226
 1971TIP3    H227329   4.762   3.791  15.871  0.0452 -1.0470 -0.6203
 1972TIP3   OH227330   6.454   0.423  11.651  0.2266 -0.0879  0.1241
 1972TIP3    H127331   6.433   0.370  11.574 -0.4475 -0.7736  0.7582
 1972TIP3    H227332   6.369   0.453  11.684  0.3324 -1.2410  1.5802
 1973TIP3   OH227333   5.110   1.626  10.802 -0.1819 -0.2574  0.1211
 1973TIP3    H127334   5.123   1.686  10.729 -1.3595 -1.0548 -0.7600
 1973TIP3    H227335   5.198   1.616  10.840  0.5810 -0.3669 -1.5911
 1974TIP3   OH227336   0.113   0.229   2.815  0.0280  0.0436 -0.6885
 1974TIP3    H127337   0.091   0.304   2.760  0.9971  0.4387 -0.5607
 1974TIP3    H227338   0.147   0.268   2.896 -0.3129 -0.5338 -0.2561
 1975TIP3   OH227339   1.184   2.822  11.465 -0.0438 -0.4119 -0.5575
 1975TIP3    H127340   1.208   2.867  11.384  0.6856 -0.5007 -0.3972
 1975TIP3    H227341   1.157   2.892  11.524 -1.5245 -0.4143 -1.1656
 1976TIP3   OH227342   6.688   1.691  16.178 -0.0377  0.0894 -0.1032
 1976TIP3    H127343   6.617   1.740  16.219 -1.6081 -1.3171 -1.0250
 1976TIP3    H227344   6.685   1.717  16.086  0.8086  0.1779 -0.1159
 1977TIP3   OH227345   4.550   4.335   4.616  0.2700  0.3403 -0.0680
 1977TIP3    H127346   4.542   4.267   4.549  0.2153 -0.0499  0.3296
 1977TIP3    H227347   4.573   4.287   4.696  1.5749  0.9228 -0.0643
 1978TIP3   OH227348   2.385   6.309   3.778 -0.3650  0.4360  0.3600
 1978TIP3    H127349   2.301   6.311   3.731 -0.5355 -0.2081  0.6208
 1978TIP3    H227350   2.432   6.386   3.747 -0.4752  0.0296 -0.8681
 1979TIP3   OH227351   6.391   1.229   1.256  0.8444 -0.2160  0.6380
 1979TIP3    H127352   6.356   1.310   1.219  0.3656 -1.1353 -1.0022
 1979TIP3    H227353   6.328   1.205   1.324  0.3833  0.2026  0.3667
 1980TIP3   OH227354   5.402   2.214   2.726  0.0582  0.1667  0.0544
 1980TIP3    H127355   5.313   2.198   2.696 -0.1402  1.2838  0.0072
 1980TIP3    H227356   5.457   2.160   2.669 -0.6155 -0.8593  0.3679
 1981TIP3   OH227357   2.515   5.819   2.962 -0.7854  0.2088  0.3349
 1981TIP3    H127358   2.553   5.819   2.874  0.0953 -0.1563  0.6988
 1981TIP3    H227359   2.490   5.727   2.978  2.3537 -0.5318  1.7882
 1982TIP3   OH227360   0.640   5.423   1.479 -0.0715 -0.3756  0.4121
 1982TIP3    H127361   0.720   5.377   1.506  0.6385  0.9503  0.6744
 1982TIP3    H227362   0.667   5.475   1.403 -0.2687  1.2439  1.4030
 1983TIP3   OH227363   1.537   6.120  14.748 -0.3875  0.1939  0.0072
 1983TIP3    H127364   1.632   6.119  14.752 -0.2033 -2.5110 -1.9734
 1983TIP3    H227365   1.515   6.203  14.706  1.3200 -0.2873 -1.9940
 1984TIP3   OH227366   5.824   0.519   0.104  0.5526  0.0258 -0.2710
 1984TIP3    H127367   5.799   0.437   0.147 -0.1435  0.9184  1.1098
 1984TIP3    H227368   5.854   0.492   0.017  0.4474 -1.6950  0.1828
 1985TIP3   OH227369   5.714   4.961   4.352 -0.6934 -0.1044 -0.2152
 1985TIP3    H127370   5.741   4.869   4.352 -0.5154 -0.0538  0.1417
 1985TIP3    H227371   5.765   5.001   4.422 -1.2210  0.1333  0.0392
 1986TIP3   OH227372   4.309   0.108   5.945  0.0115  0.2948 -0.3659
 1986TIP3    H127373   4.372   0.044   5.911 -0.7400 -0.3497 -0.5724
 1986TIP3    H227374   4.305   0.090   6.039  0.0738  0.2830 -0.3656
 1987TIP3   OH227375   4.082   4.230  12.163  0.4217 -0.7382  0.0269
 1987TIP3    H127376   4.054   4.237  12.254  0.7518 -0.5765  0.1166
 1987TIP3    H227377   4.015   4.278  12.113  1.4927  1.2992  0.4214
 1988TIP3   OH227378   4.169   5.007   5.636 -0.0610  0.1779  0.3773
 1988TIP3    H127379   4.260   4.992   5.662 -0.6938 -0.8823  2.1989
 1988TIP3    H227380   4.146   4.933   5.580  0.1130  0.2998  0.1448
 1989TIP3   OH227381   3.907   0.839  13.606  0.0933 -0.4849 -0.0558
 1989TIP3    H127382   3.930   0.777  13.537 -2.5582  0.6694 -2.1644
 1989TIP3    H227383   3.926   0.925  13.569 -0.7947  0.1493  0.8926
 1990TIP3   OH227384   2.619   6.752   1.227 -0.6355 -0.0754  0.5735
 1990TIP3    H127385   2.638   6.709   1.144 -1.9142 -1.4009  0.9124
 1990TIP3    H227386   2.553   6.696   1.268  1.3807 -0.6111  3.4153
 1991TIP3   OH227387   6.519   0.870   1.549 -0.5234 -0.0323 -0.2954
 1991TIP3    H127388   6.470   0.900   1.473 -1.2193 -1.7631 -0.5613
 1991TIP3    H227389   6.456   0.816   1.598 -0.1144  1.0682  1.5463
 1992TIP3   OH227390   4.899   2.873  15.524 -0.2908  0.6059 -0.1997
 1992TIP3    H127391   4.929   2.850  15.436 -1.7199  0.9975 -0.8276
 1992TIP3    H227392   4.861   2.792  15.558 -0.2624  0.6060 -0.1673
 1993TIP3   OH227393   2.955   2.809  15.077 -0.1696  0.0590  0.0955
 1993TIP3    H127394   2.966   2.823  14.983  1.4333  0.2133  0.2727
 1993TIP3    H227395   3.041   2.829  15.114 -0.9278  0.5722  1.6702
 1994TIP3   OH227396   6.531   5.206  12.378 -0.1732  0.4692 -0.0458
 1994TIP3    H127397   6.467   5.273  12.401 -2.2247 -0.6295 -2.0669
 1994TIP3    H227398   6.510   5.184  12.287  2.1882 -0.9991 -0.3218
 1995TIP3   OH227399   1.796   5.003   4.307 -0.2244 -0.0622 -0.4214
 1995TIP3    H127400   1.817   4.910   4.299 -1.7278 -0.4233 -0.4710
 1995TIP3    H227401   1.862   5.038   4.366  1.7622 -0.6450 -2.1813
 1996TIP3   OH227402   4.126   4.160   1.640 -0.1796  0.3087 -0.1333
 1996TIP3    H127403   4.085   4.120   1.717  0.3818  1.4589  0.8056
 1996TIP3    H227404   4.206   4.110   1.627 -0.1664  0.2430  0.1821
 1997TIP3   OH227405   6.562   2.204  13.383 -0.2754 -0.0227 -0.1936
 1997TIP3    H127406   6.572   2.110  13.372 -1.1174 -0.5262  2.5721
 1997TIP3    H227407   6.638   2.232  13.434 -1.0627  0.3683  0.8149
 1998TIP3   OH227408   5.023   2.196  16.641  0.0728 -0.3346 -0.0019
 1998TIP3    H127409   4.946   2.175  16.694 -0.0338  1.4579  0.6017
 1998TIP3    H227410   4.992   2.262  16.580  1.5061  1.7954  1.4533
 1999TIP3   OH227411   1.160   5.173   2.784 -0.3635 -0.1588 -0.0720
 1999TIP3    H127412   1.133   5.095   2.735 -1.7309  0.4378 -0.3234
 1999TIP3    H227413   1.152   5.245   2.721 -0.2336  0.3469  0.4828
 2000TIP3   OH227414   1.106   5.603   0.679 -0.6009  0.4196  0.2188
 2000TIP3    H127415   1.090   5.617   0.586 -2.4259 -2.0553  0.0510
 2000TIP3    H227416   1.178   5.540   0.682 -0.0853  1.0138  0.5245
 2001TIP3   OH227417   3.736   0.789   1.697 -0.6348  0.6681  0.3309
 2001TIP3    H127418   3.689   0.713   1.662 -0.0230  1.0081 -1.3182
 2001TIP3    H227419   3.770   0.834   1.620  0.9006  1.4091  1.3875
 2002TIP3   OH227420   2.647   2.887   2.610  0.3250 -0.1589  0.3009
 2002TIP3    H127421   2.665   2.905   2.703 -1.2442  1.5014  0.3562
 2002TIP3    H227422   2.562   2.929   2.594  0.3927 -0.7200 -1.8133
 2003TIP3   OH227423   0.978   1.577   0.493 -0.4417  0.2626  0.1392
 2003TIP3    H127424   0.979   1.501   0.551 -0.0390  0.0176 -0.1816
 2003TIP3    H227425   1.067   1.581   0.457 -0.6169  0.5565 -0.2670
 2004TIP3   OH227426   4.121   1.241  16.072 -0.4721 -0.2206  0.0163
 2004TIP3    H127427   4.068   1.303  16.022  3.8297  2.7730 -1.3355
 2004TIP3    H227428   4.132   1.166  16.012 -0.7929  0.3637 -0.7917
 2005TIP3   OH227429   3.079   3.705  12.770  0.0326 -0.3117 -0.3704
 2005TIP3    H127430   3.126   3.675  12.692  0.0253  0.3619 -0.6443
 2005TIP3    H227431   2.986   3.695  12.748  0.0091 -2.4321  0.4819
 2006TIP3   OH227432   1.782   0.473  12.298  0.5893 -0.6386 -0.0094
 2006TIP3    H127433   1.790   0.430  12.383  0.7499  0.2821  0.4548
 2006TIP3    H227434   1.693   0.509  12.297  0.7930 -0.1322  0.0177
 2007TIP3   OH227435   4.467   3.789  12.474 -0.0662 -0.2599 -0.7348
 2007TIP3    H127436   4.415   3.870  12.467  0.7216  0.5104  1.4764
 2007TIP3    H227437   4.405   3.719  12.454 -1.7677  0.6908  0.8402
 2008TIP3   OH227438   0.051   4.190  11.722 -0.3576 -0.4284 -0.6582
 2008TIP3    H127439   0.050   4.277  11.761  0.6295 -0.0494 -1.4386
 2008TIP3    H227440   0.059   4.205  11.628  0.5977 -1.3567 -0.7500
 2009TIP3   OH227441   4.708   0.157   3.830 -0.1208  0.3391 -0.3574
 2009TIP3    H127442   4.768   0.211   3.780 -0.8941  0.7737 -0.8355
 2009TIP3    H227443   4.764   0.096   3.878  0.6184 -0.2299 -1.9084
 2010TIP3   OH227444   5.536   1.154  13.389 -0.1745  0.3401  0.1821
 2010TIP3    H127445   5.624   1.173  13.421 -0.6373  0.5175  1.3809
 2010TIP3    H227446   5.551   1.110  13.305  1.0200  2.6036 -0.9050
 2011TIP3   OH227447   6.079   0.308   5.473  0.5915  0.2159 -0.4260
 2011TIP3    H127448   6.138   0.260   5.414 -0.6588 -0.1938 -1.3967
 2011TIP3    H227449   6.137   0.349   5.537  1.8489 -1.0067 -0.7293
 2012TIP3   OH227450   4.714   3.214   0.838  0.4714 -0.3968  0.0525
 2012TIP3    H127451   4.758   3.201   0.754 -0.3720 -0.8470 -0.3311
 2012TIP3    H227452   4.636   3.159   0.833 -0.3793  0.7149  0.5372
 2013TIP3   OH227453   3.937   1.866  14.481  0.4818  0.3486  0.1376
 2013TIP3    H127454   3.955   1.955  14.449  1.0611 -0.1727 -1.0550
 2013TIP3    H227455   3.999   1.811  14.434 -0.9009 -0.8832 -0.3309
 2014TIP3   OH227456   3.289   0.487  16.926 -0.3114 -0.8903 -0.1151
 2014TIP3    H127457   3.267   0.538  16.848  2.3591  1.0457  0.2804
 2014TIP3    H227458   3.335   0.410  16.892  0.9627  0.0125 -0.4714
 2015TIP3   OH227459   5.465   0.918  15.905  0.5470 -0.0685  0.3543
 2015TIP3    H127460   5.560   0.908  15.898  0.4266 -0.3707 -1.3926
 2015TIP3    H227461   5.451   1.013  15.908  0.8884 -0.0157  0.2951
 2016TIP3   OH227462   4.225   1.820   6.054  0.0595  0.2706 -0.1286
 2016TIP3    H127463   4.296   1.788   6.000 -0.9182  0.3119 -1.4873
 2016TIP3    H227464   4.257   1.903   6.090 -0.0281  1.3634 -2.4177
 2017TIP3   OH227465   4.922   2.421   4.284 -0.3373  0.2097  0.0098
 2017TIP3    H127466   4.837   2.462   4.298  0.2231  1.3976  0.0052
 2017TIP3    H227467   4.971   2.440   4.364 -0.4900 -1.6169  0.5904
 2018TIP3   OH227468   3.154   0.157   4.286 -0.1818 -0.4018 -0.5309
 2018TIP3    H127469   3.098   0.230   4.259 -0.4361 -0.1715  0.5979
 2018TIP3    H227470   3.102   0.079   4.266  0.3204 -0.3461 -2.2895
 2019TIP3   OH227471   5.300   4.735   0.032  0.6005 -0.1065  0.4243
 2019TIP3    H127472   5.249   4.662  -0.002  2.1520 -0.7932 -0.5379
 2019TIP3    H227473   5.386   4.698   0.050  0.8828  1.0876  1.7002
 2020TIP3   OH227474   6.758   3.170   1.226 -0.0155  0.4864 -0.7136
 2020TIP3    H127475   6.845   3.183   1.188 -0.4407  0.4651 -1.7277
 2020TIP3    H227476   6.698   3.208   1.162 -0.7731  0.3332 -0.1117
 2021TIP3   OH227477   5.096   3.364  11.777 -0.2853  0.1443 -0.4290
 2021TIP3    H127478   5.142   3.447  11.789 -0.8644  0.2983  1.0264
 2021TIP3    H227479   5.132   3.306  11.844 -2.1534  0.2800  0.7816
 2022TIP3   OH227480   3.559   5.299   5.221  0.4771  0.1336  0.3354
 2022TIP3    H127481   3.600   5.346   5.148 -1.3586 -0.1781 -0.9679
 2022TIP3    H227482   3.497   5.361   5.258  0.0586 -0.3213  0.4111
 2023TIP3   OH227483   4.716   4.148  12.618  0.8219  0.3245  0.0904
 2023TIP3    H127484   4.691   4.082  12.682  1.4579  0.1271  0.1417
 2023TIP3    H227485   4.797   4.186  12.653  1.2249  0.1535 -0.6337
 2024TIP3   OH227486   0.474   5.015  10.887 -0.4298 -0.0357 -0.1198
 2024TIP3    H127487   0.406   4.949  10.869 -0.4948 -0.0283  0.0970
 2024TIP3    H227488   0.554   4.964  10.899 -0.4059 -0.0480 -0.3265
 2025TIP3   OH227489   3.128   1.665   0.892 -0.2899  0.1517 -0.6290
 2025TIP3    H127490   3.093   1.744   0.851  0.1274 -0.1321 -1.5505
 2025TIP3    H227491   3.206   1.644   0.841 -0.2642 -0.7211 -0.2439
 2026TIP3   OH227492   1.767   1.743   1.507 -0.0793 -0.4803  0.1017
 2026TIP3    H127493   1.778   1.837   1.495  0.0465 -0.7442 -2.2142
 2026TIP3    H227494   1.775   1.730   1.602  0.9828  1.6742  0.3626
 2027TIP3   OH227495   1.189   3.680   5.835 -0.7687 -0.2558  0.4569
 2027TIP3    H127496   1.132   3.757   5.837 -1.2860 -0.6280  0.2851
 2027TIP3    H227497   1.278   3.716   5.839 -1.0273  0.2819  1.8311
 2028TIP3   OH227498   2.340   5.111   4.644 -0.8604  0.0866  0.6282
 2028TIP3    H127499   2.385   5.182   4.690  0.4855  0.5626 -1.2658
 2028TIP3    H227500   2.377   5.031   4.681  1.6312  0.4672 -0.7773
 2029TIP3   OH227501   0.207   2.871   4.155  0.0909 -0.6295 -0.2124
 2029TIP3    H127502   0.158   2.947   4.187  2.0388 -0.0024  1.5694
 2029TIP3    H227503   0.181   2.800   4.214 -0.7231 -1.0225 -1.0291
 2030TIP3   OH227504   4.745   3.214  16.204  0.4859  0.0168  0.0758
 2030TIP3    H127505   4.660   3.245  16.173  1.2280 -0.0429 -2.2329
 2030TIP3    H227506   4.736   3.207  16.299 -1.9140  0.4761 -0.0752
 2031TIP3   OH227507   4.493   1.598   1.539 -0.0320 -0.2012  0.3148
 2031TIP3    H127508   4.461   1.538   1.472 -1.8993 -0.3382  1.2663
 2031TIP3    H227509   4.483   1.549   1.621 -0.7693  1.0737  1.0119
 2032TIP3   OH227510   0.747   6.120  15.535  0.3518  0.1836  0.1040
 2032TIP3    H127511   0.724   6.192  15.594  2.0969  0.1312  0.9125
 2032TIP3    H227512   0.808   6.159  15.472 -0.3059 -0.1243 -0.7485
 2033TIP3   OH227513   2.446   4.549   1.710 -0.6360 -0.2375 -0.4427
 2033TIP3    H127514   2.471   4.520   1.622 -1.9091 -1.0207 -0.5770
 2033TIP3    H227515   2.460   4.643   1.709  0.9653 -0.4452 -0.9174
 2034TIP3   OH227516   2.031   2.497   5.673 -0.3734  0.4579  0.1672
 2034TIP3    H127517   2.103   2.442   5.643 -2.0685 -0.2075 -3.2108
 2034TIP3    H227518   1.989   2.446   5.742 -0.1813 -1.2235 -0.8889
 2035TIP3   OH227519   3.158   2.271  15.577 -0.1100  0.7696  0.4293
 2035TIP3    H127520   3.209   2.199  15.542  1.6225  2.1186  0.0221
 2035TIP3    H227521   3.223   2.340  15.593 -1.5705  1.9271  1.6145
 2036TIP3   OH227522   0.060   1.760   0.955  0.7195 -0.4802  0.3518
 2036TIP3    H127523   0.010   1.737   1.033  0.7652  0.4693  0.6708
 2036TIP3    H227524   0.003   1.821   0.907  1.4343  0.3606  0.5608
 2037TIP3   OH227525   3.071   1.777  17.258  0.5810 -0.5901 -0.3004
 2037TIP3    H127526   3.087   1.720  17.183 -1.9346 -0.4233 -1.0730
 2037TIP3    H227527   2.997   1.736  17.303 -0.6568  1.5046 -0.3114
 2038TIP3   OH227528   2.790   3.939   3.279 -0.3985 -0.3096 -0.7297
 2038TIP3    H127529   2.758   3.900   3.360 -3.6362  1.9930 -0.7394
 2038TIP3    H227530   2.850   4.008   3.308  0.0680 -0.8203 -0.4448
 2039TIP3   OH227531   6.108   1.666  13.563  0.2256  0.3916 -0.0077
 2039TIP3    H127532   6.133   1.580  13.527  0.7515 -0.0285  1.3276
 2039TIP3    H227533   6.140   1.665  13.653  0.1607  1.9757  0.0518
 2040TIP3   OH227534   0.511   6.486  16.879  0.3993 -0.2517 -0.1682
 2040TIP3    H127535   0.531   6.505  16.787  0.2953 -0.0255 -0.1443
 2040TIP3    H227536   0.591   6.510  16.926 -0.3867  2.0784  0.1102
 2041TIP3   OH227537   6.408   2.328  17.314  0.3971  0.4601  0.2390
 2041TIP3    H127538   6.482   2.389  17.316  0.0678  0.8477  1.3453
 2041TIP3    H227539   6.383   2.323  17.222  1.1361  1.1348 -0.0083
 2042TIP3   OH227540   1.241   1.561  13.380  0.4681 -0.0865 -0.6404
 2042TIP3    H127541   1.212   1.476  13.346 -0.2213 -0.0993 -0.0331
 2042TIP3    H227542   1.288   1.540  13.460 -0.1157  0.1416 -0.2364
 2043TIP3   OH227543   4.657   5.545  11.359  0.8069  0.1820 -0.5991
 2043TIP3    H127544   4.694   5.633  11.359  0.5935  0.2843  0.5744
 2043TIP3    H227545   4.732   5.487  11.347  1.2208  0.4408  0.6580
 2044TIP3   OH227546   3.649   5.320   6.907  0.5004  0.1171  0.9578
 2044TIP3    H127547   3.622   5.323   6.815  0.4433  0.5906  0.9870
 2044TIP3    H227548   3.645   5.227   6.930  0.9192 -0.0601  0.3611
 2045TIP3   OH227549   1.387   5.533   0.213 -0.1248 -0.4278  0.3103
 2045TIP3    H127550   1.301   5.527   0.254  0.2519 -0.9057  1.0687
 2045TIP3    H227551   1.429   5.607   0.258  1.1120 -2.3053  2.4597
 2046TIP3   OH227552   3.929   0.298  17.259 -0.6367  0.1869 -0.1723
 2046TIP3    H127553   3.851   0.321  17.309 -0.5748  1.0736 -0.4647
 2046TIP3    H227554   3.962   0.382  17.226 -0.2911 -0.3115 -1.1264
 2047TIP3   OH227555   0.186   5.619  15.574  0.1678  0.0711 -0.8419
 2047TIP3    H127556   0.227   5.679  15.637 -0.8338  1.6607 -1.6285
 2047TIP3    H227557   0.259   5.566  15.541  1.0300  0.5591  0.1902
 2048TIP3   OH227558   5.529   4.595  15.893  0.6659  0.3923  0.2227
 2048TIP3    H127559   5.438   4.567  15.883  0.6555  0.5526 -0.1701
 2048TIP3    H227560   5.524   4.689  15.911  0.6957  0.1398  1.6624
 2049TIP3   OH227561   0.847   4.247   0.261 -0.3719  0.3492 -0.5092
 2049TIP3    H127562   0.836   4.262   0.355  0.2839  1.6240 -0.6224
 2049TIP3    H227563   0.772   4.193   0.237 -0.9837  0.6748  0.6017
 2050TIP3   OH227564   4.890   4.544  12.185 -0.2372 -0.5739 -0.0748
 2050TIP3    H127565   4.869   4.517  12.095 -0.1391 -1.4230  0.1463
 2050TIP3    H227566   4.829   4.494  12.239  0.9944 -1.5408  0.4499
 2051TIP3   OH227567   3.831   0.947  12.060  0.6401 -0.0082  0.5118
 2051TIP3    H127568   3.925   0.944  12.082  0.5776  2.9764  1.8109
 2051TIP3    H227569   3.819   1.036  12.026 -1.5805 -0.6620 -0.5332
 2052TIP3   OH227570   6.221   0.284   0.650  0.0416 -0.5783 -0.0292
 2052TIP3    H127571   6.262   0.250   0.571  1.0452  0.0327  0.2085
 2052TIP3    H227572   6.214   0.379   0.635 -0.5408 -0.5737  0.2614
 2053TIP3   OH227573   1.844   3.861  16.115 -0.4759 -0.1459  0.0442
 2053TIP3    H127574   1.804   3.910  16.043 -0.5689  0.3682  0.4420
 2053TIP3    H227575   1.928   3.832  16.080  0.0215  1.1457  0.1275
 2054TIP3   OH227576   2.594   4.452   4.538  0.3383 -0.6016 -0.5093
 2054TIP3    H127577   2.613   4.375   4.591  1.0510 -0.2708 -0.2728
 2054TIP3    H227578   2.678   4.476   4.499  0.0481 -0.1653 -0.8799
 2055TIP3   OH227579   3.405   4.822   3.252  0.3144  0.1023 -0.1458
 2055TIP3    H127580   3.448   4.759   3.309  1.7772  2.0340  1.0139
 2055TIP3    H227581   3.386   4.896   3.309 -2.5711  0.2521 -1.1364
 2056TIP3   OH227582   2.969   2.243  11.728  0.4432  0.0532 -1.0142
 2056TIP3    H127583   3.047   2.197  11.698  0.8956 -0.2939  0.5863
 2056TIP3    H227584   2.897   2.202  11.682  0.9129 -1.7891 -0.2043
 2057TIP3   OH227585   6.216   2.818  12.980 -0.4204 -0.0975  0.4885
 2057TIP3    H127586   6.198   2.831  12.886  2.4418  0.1552 -0.0996
 2057TIP3    H227587   6.263   2.897  13.007  0.1108 -0.8222  1.7719
 2058TIP3   OH227588   0.183   6.387  11.171  0.5628  0.0819  0.5226
 2058TIP3    H127589   0.155   6.410  11.083 -0.9888 -0.2396  0.9025
 2058TIP3    H227590   0.145   6.455  11.227  2.1433  0.7027  0.8937
 2059TIP3   OH227591   1.534   1.499  14.404  0.1631  0.5342 -0.0566
 2059TIP3    H127592   1.600   1.506  14.335 -0.1506  0.3511 -0.3842
 2059TIP3    H227593   1.458   1.545  14.368 -0.0279  0.3668  0.1317
 2060TIP3   OH227594   0.253   3.175   1.151 -0.3208  0.0647 -0.2882
 2060TIP3    H127595   0.256   3.154   1.058 -1.3651  0.8314 -0.5210
 2060TIP3    H227596   0.337   3.216   1.169  0.4023 -1.2327 -0.5839
 2061TIP3   OH227597   4.735   0.102   5.628  0.7130 -0.1567 -0.0133
 2061TIP3    H127598   4.814   0.130   5.675  0.1294 -2.1472  2.3805
 2061TIP3    H227599   4.757   0.016   5.594  0.3117  0.2645 -1.3897
 2062TIP3   OH227600   0.110   4.873   3.124 -0.1459 -0.0129  0.4522
 2062TIP3    H127601   0.174   4.846   3.058  0.0082 -0.0828  0.6320
 2062TIP3    H227602   0.140   4.832   3.205  0.6097  1.4561  0.9361
 2063TIP3   OH227603   0.093   5.456   5.096  0.5543 -0.3091 -0.5450
 2063TIP3    H127604   0.021   5.476   5.156  1.3538  1.2033 -0.0359
 2063TIP3    H227605   0.145   5.391   5.143 -0.5507 -1.5629 -0.9984
 2064TIP3   OH227606   5.837   4.363  14.981  0.4933 -0.2652 -0.3555
 2064TIP3    H127607   5.839   4.347  15.075  0.4953  2.1027  0.1126
 2064TIP3    H227608   5.881   4.447  14.970  1.5257 -1.0333 -2.6290
 2065TIP3   OH227609   6.571   3.137  16.205 -0.3597  0.0727 -0.0015
 2065TIP3    H127610   6.538   3.219  16.168 -0.7461 -0.2541 -0.3903
 2065TIP3    H227611   6.666   3.151  16.213 -0.5473  0.9165  0.8740
 2066TIP3   OH227612   2.675   5.504  15.737  0.3961 -0.0865  0.1656
 2066TIP3    H127613   2.736   5.534  15.804  0.8181 -0.7747  0.1030
 2066TIP3    H227614   2.628   5.583  15.710  0.0753  0.1797  1.4056
 2067TIP3   OH227615   3.156   4.920  16.143  0.3322 -0.7798 -0.2192
 2067TIP3    H127616   3.226   4.973  16.103  0.1465 -0.1994  0.2055
 2067TIP3    H227617   3.076   4.967  16.121  0.3505  0.6951  2.4897
 2068TIP3   OH227618   6.244   3.347  16.979  0.3573 -0.1088  0.5300
 2068TIP3    H127619   6.302   3.379  16.910  1.2265  0.7599  1.6370
 2068TIP3    H227620   6.301   3.300  17.039 -0.4222 -1.0233  0.5728
 2069TIP3   OH227621   6.380   4.038   5.216  0.5031  0.6123  0.1406
 2069TIP3    H127622   6.402   3.981   5.143  0.2386 -1.0539  1.2992
 2069TIP3    H227623   6.445   4.018   5.283 -0.8471  0.0825  1.3560
 2070TIP3   OH227624   2.656   4.223   4.702 -0.5091  0.5832  0.0854
 2070TIP3    H127625   2.672   4.273   4.782 -1.5818  1.5150 -0.2436
 2070TIP3    H227626   2.636   4.135   4.732 -1.9192  1.1566  0.9643
 2071TIP3   OH227627   1.517   1.996  12.286  0.2219 -0.0314 -0.7559
 2071TIP3    H127628   1.565   2.043  12.355 -1.6726  1.0880 -0.1449
 2071TIP3    H227629   1.567   1.915  12.274  0.9215 -0.0186  1.5745
 2072TIP3   OH227630   4.666   3.835   0.767 -0.1227 -0.1703  0.0119
 2072TIP3    H127631   4.715   3.854   0.687  0.7178 -1.9491  0.0461
 2072TIP3    H227632   4.722   3.867   0.837  0.9666 -1.9382  0.0346
 2073TIP3   OH227633   6.343   1.169  11.693  0.0589 -0.0681 -0.0905
 2073TIP3    H127634   6.347   1.110  11.768  4.9490 -0.1928 -0.1640
 2073TIP3    H227635   6.318   1.113  11.620 -0.1992 -0.9564  0.6549
 2074TIP3   OH227636   5.083   3.783   4.194 -0.0683 -0.1656 -0.1824
 2074TIP3    H127637   5.118   3.763   4.108  2.7767  0.7309  0.6696
 2074TIP3    H227638   5.131   3.861   4.222 -1.7608  0.2776  1.7435
 2075TIP3   OH227639   1.938   3.962  14.112 -0.3812  0.0980 -0.8408
 2075TIP3    H127640   1.849   3.948  14.145 -0.1482  0.2594 -0.1172
 2075TIP3    H227641   1.979   3.876  14.115 -1.1003 -0.3795 -3.0490
 2076TIP3   OH227642   5.684   1.098  16.316  0.3952  0.1875  0.1211
 2076TIP3    H127643   5.740   1.078  16.391 -0.9634  1.0981  1.4531
 2076TIP3    H227644   5.635   1.017  16.301 -1.4090  0.7851  2.1741
 2077TIP3   OH227645   5.462   0.171   4.261 -0.0613  0.3117 -0.7596
 2077TIP3    H127646   5.494   0.247   4.211  2.5835 -0.0806  0.1403
 2077TIP3    H227647   5.474   0.197   4.353 -2.2256 -0.0250 -0.3297
 2078TIP3   OH227648   2.749   4.910   3.577 -0.1251  0.0172  0.1974
 2078TIP3    H127649   2.658   4.933   3.559  0.1533  0.4467 -0.7266
 2078TIP3    H227650   2.760   4.927   3.670 -1.3248 -1.2163  0.6085
 2079TIP3   OH227651   6.085   3.843  12.957 -0.4340 -0.4334  0.2657
 2079TIP3    H127652   6.087   3.935  12.983 -1.4844 -0.0689 -0.8831
 2079TIP3    H227653   6.149   3.801  13.015 -0.5098  0.8669  1.3465
 2080TIP3   OH227654   0.289   6.011  16.024 -0.4303 -0.7933  0.7691
 2080TIP3    H127655   0.255   6.054  15.945 -1.9474  1.9453  2.7099
 2080TIP3    H227656   0.374   6.052  16.038 -0.4928 -0.7172  0.9297
 2081TIP3   OH227657   1.216   0.407  11.955  0.4427  0.8513  0.7140
 2081TIP3    H127658   1.146   0.343  11.968 -1.7835  3.2609  1.5570
 2081TIP3    H227659   1.279   0.387  12.024  0.1035 -0.7786  0.5852
 2082TIP3   OH227660   4.495   5.927  12.384 -0.1550  0.0897  0.0039
 2082TIP3    H127661   4.458   5.843  12.411  1.4802  0.0425  2.3036
 2082TIP3    H227662   4.587   5.923  12.409  0.3171  2.0351 -1.1796
 2083TIP3   OH227663   4.549   1.565  11.830 -0.2114  0.2238 -0.2169
 2083TIP3    H127664   4.589   1.626  11.893  0.1778 -0.2858  0.0383
 2083TIP3    H227665   4.623   1.513  11.797 -0.8002 -1.7316  1.3553
 2084TIP3   OH227666   2.597   4.023   1.132 -0.0788  0.0178 -0.3185
 2084TIP3    H127667   2.659   4.074   1.080  1.6844  0.9365  2.4623
 2084TIP3    H227668   2.531   4.087   1.160 -0.6960 -0.3547 -0.8693
 2085TIP3   OH227669   3.561   3.565   0.233 -1.0806 -0.0288  0.1395
 2085TIP3    H127670   3.534   3.593   0.320 -1.2140 -0.8647  0.3782
 2085TIP3    H227671   3.491   3.594   0.175 -0.8424  0.8091  0.2503
 2086TIP3   OH227672   3.271   5.366  14.940 -0.3066 -0.3471  0.2014
 2086TIP3    H127673   3.276   5.421  14.862 -0.1543 -0.0864  0.3955
 2086TIP3    H227674   3.308   5.420  15.010 -1.2137 -0.2700  0.6299
 2087TIP3   OH227675   6.506   0.696   5.115 -0.6645  0.3043 -0.2003
 2087TIP3    H127676   6.591   0.702   5.071 -1.1079  0.8078 -1.0140
 2087TIP3    H227677   6.453   0.642   5.056 -0.4601 -1.3460  1.0540
 2088TIP3   OH227678   2.417   4.284  13.300 -0.1328  0.5030 -0.0343
 2088TIP3    H127679   2.475   4.356  13.277 -1.2423  1.1047 -1.1139
 2088TIP3    H227680   2.452   4.249  13.381  2.3423  0.1584 -1.1524
 2089TIP3   OH227681   2.985   6.065   4.623 -0.3589  0.3056 -0.1137
 2089TIP3    H127682   2.938   6.066   4.539 -1.0139 -0.8268  0.2147
 2089TIP3    H227683   2.956   6.144   4.668  0.0944  0.9905 -0.9959
 2090TIP3   OH227684   6.308   1.500   3.933  0.0118 -0.0291  0.0816
 2090TIP3    H127685   6.224   1.543   3.922  0.8928  1.7681 -0.0364
 2090TIP3    H227686   6.330   1.514   4.025  1.1858  1.5607 -0.3943
 2091TIP3   OH227687   0.237   0.194  10.859  0.3116 -0.2034 -0.2570
 2091TIP3    H127688   0.329   0.216  10.840 -0.0939  0.5367 -1.4461
 2091TIP3    H227689   0.238   0.170  10.952  1.8714 -1.1237 -0.4662
 2092TIP3   OH227690   0.815   5.601  14.694  0.3729 -0.3692  0.2690
 2092TIP3    H127691   0.797   5.595  14.787  0.7950 -1.3267  0.2944
 2092TIP3    H227692   0.737   5.566  14.652  0.5055 -0.6835  0.2834
 2093TIP3   OH227693   2.133   5.295   5.786 -0.0250  0.1953  0.2005
 2093TIP3    H127694   2.185   5.233   5.735 -1.5602 -0.6535 -0.3881
 2093TIP3    H227695   2.147   5.379   5.743  3.0724  0.6374  1.7361
 2094TIP3   OH227696   3.517   5.802  10.929  0.5498 -0.3241 -0.1130
 2094TIP3    H127697   3.476   5.758  10.854 -0.1804  0.1535 -0.0035
 2094TIP3    H227698   3.583   5.860  10.889  1.4141 -1.3863 -0.2651
 2095TIP3   OH227699   2.910   6.735   0.966  0.0574  0.0843 -0.0876
 2095TIP3    H127700   2.827   6.690   0.978  0.6022 -1.1282 -0.6432
 2095TIP3    H227701   2.929   6.773   1.051 -1.3842  0.9733 -0.1343
 2096TIP3   OH227702   1.177   6.762   3.209 -0.3506  0.2428 -0.1490
 2096TIP3    H127703   1.082   6.764   3.220 -0.6400  0.4012 -2.3442
 2096TIP3    H227704   1.195   6.830   3.145  0.8721 -1.7700 -2.0832
 2097TIP3   OH227705   0.886   1.351   0.635  0.0682 -0.1027 -0.3538
 2097TIP3    H127706   0.894   1.297   0.557 -1.2569  1.3213 -1.5436
 2097TIP3    H227707   0.794   1.341   0.661 -0.1243  1.2707 -0.4208
 2098TIP3   OH227708   4.416   2.362  16.177 -0.1971 -0.0012 -0.0273
 2098TIP3    H127709   4.473   2.325  16.244 -0.7623  0.6434  0.8218
 2098TIP3    H227710   4.459   2.444  16.152  0.3511 -0.5485 -0.9404
 2099TIP3   OH227711   5.688   4.019   2.939  0.3288 -0.3772  0.5390
 2099TIP3    H127712   5.649   4.034   2.853  1.8059 -0.3944 -0.1605
 2099TIP3    H227713   5.625   4.057   3.001  0.5919  2.3859 -0.7308
 2100TIP3   OH227714   4.768   3.640  13.725  0.2265  0.4258  0.1991
 2100TIP3    H127715   4.700   3.672  13.785 -0.7853 -0.1377 -0.6138
 2100TIP3    H227716   4.850   3.675  13.760 -0.5074  1.3041  1.0782
 2101TIP3   OH227717   4.339   1.006  17.232 -0.1028 -0.4531 -0.4145
 2101TIP3    H127718   4.408   1.072  17.229  0.1608 -0.6889  0.1629
 2101TIP3    H227719   4.371   0.936  17.175 -0.6580  0.1626 -1.5042
 2102TIP3   OH227720   2.023   1.426   5.551 -0.1692  0.0329 -0.4173
 2102TIP3    H127721   1.938   1.464   5.570  1.0395  2.8603 -0.1602
 2102TIP3    H227722   2.030   1.428   5.456 -0.4903 -0.5253 -0.4587
 2103TIP3   OH227723   5.270   1.975   4.260  0.1541 -0.3525 -0.2898
 2103TIP3    H127724   5.241   1.988   4.170 -0.1856  0.2281 -0.0985
 2103TIP3    H227725   5.214   1.905   4.294 -0.0244 -0.2544 -0.3834
 2104TIP3   OH227726   5.265   1.178   3.268 -0.0659 -0.4564 -0.8058
 2104TIP3    H127727   5.285   1.256   3.217  1.1383  0.5368  1.0968
 2104TIP3    H227728   5.346   1.127   3.268  0.1890 -0.1101  0.5992
 2105TIP3   OH227729   3.254   5.642  15.400  0.2585  0.2244  0.2173
 2105TIP3    H127730   3.170   5.656  15.358 -0.4872 -1.0721  1.2157
 2105TIP3    H227731   3.257   5.707  15.470  0.3780  0.6908 -0.2159
 2106TIP3   OH227732   4.991   6.264  15.273  0.6601  0.2356 -0.2893
 2106TIP3    H127733   5.053   6.199  15.240 -0.6404 -1.2885  0.1826
 2106TIP3    H227734   4.922   6.269  15.206 -0.9201 -1.3326  1.1300
 2107TIP3   OH227735   0.590   6.539   2.965 -0.0564  0.2131  0.5084
 2107TIP3    H127736   0.568   6.581   3.048 -1.6369 -0.7536  0.6087
 2107TIP3    H227737   0.657   6.597   2.926  0.9733  0.4971  2.5776
 2108TIP3   OH227738   6.036   5.686  15.142  0.0862 -0.4527  0.1976
 2108TIP3    H127739   5.972   5.636  15.091  0.6056 -1.3928  0.4563
 2108TIP3    H227740   6.109   5.626  15.155  1.1322  0.6751 -0.2813
 2109TIP3   OH227741   0.509   4.816   1.376  0.6109 -0.1039 -0.0339
 2109TIP3    H127742   0.575   4.885   1.383  0.5326  0.2203 -1.9292
 2109TIP3    H227743   0.427   4.863   1.365  0.0439 -0.5105  2.0325
 2110TIP3   OH227744   5.383   5.846  15.274  0.3059 -0.1857 -0.4472
 2110TIP3    H127745   5.355   5.822  15.362  0.1910  0.9466 -0.1504
 2110TIP3    H227746   5.318   5.807  15.216  0.0602 -0.4600  0.0106
 2111TIP3   OH227747   3.491   4.729   5.076 -0.0644  0.3814 -0.3520
 2111TIP3    H127748   3.425   4.729   5.146  0.4399  1.3033  0.1512
 2111TIP3    H227749   3.493   4.638   5.045 -2.1596  0.5002 -0.9737
 2112TIP3   OH227750   2.554   5.524  17.155  0.0778 -0.2339 -0.4525
 2112TIP3    H127751   2.496   5.521  17.231  0.9933 -0.3503  0.2700
 2112TIP3    H227752   2.505   5.482  17.084 -0.9384  0.2244 -0.0286
 2113TIP3   OH227753   0.252   6.086  12.719  0.3061 -0.3277 -0.1835
 2113TIP3    H127754   0.241   5.992  12.704 -0.5048 -0.0087 -1.8182
 2113TIP3    H227755   0.171   6.125  12.685  1.2595  1.0718 -0.9466
 2114TIP3   OH227756   6.169   5.953  15.559 -0.4864  0.5628 -0.0507
 2114TIP3    H127757   6.153   5.926  15.469 -1.3546  0.2451  0.1862
 2114TIP3    H227758   6.217   6.036  15.551  0.5822 -0.0961 -0.7887
 2115TIP3   OH227759   1.975   4.486  12.523  0.5358 -0.2592  0.0799
 2115TIP3    H127760   1.963   4.402  12.566  0.2457  0.0035  0.5128
 2115TIP3    H227761   2.062   4.480  12.483 -0.2414 -1.4801 -1.5482
 2116TIP3   OH227762   4.611   2.320   3.890  1.0638 -0.5732  0.0306
 2116TIP3    H127763   4.592   2.363   3.974 -1.1734 -1.2544 -0.0706
 2116TIP3    H227764   4.707   2.311   3.890  1.2852  1.0220  1.7024
 2117TIP3   OH227765   3.772   4.331   1.716 -0.7962  0.3974 -0.4092
 2117TIP3    H127766   3.815   4.310   1.799 -0.7184  0.6088 -0.3957
 2117TIP3    H227767   3.787   4.254   1.661 -1.5501 -0.0908  0.0441
 2118TIP3   OH227768   2.036   5.129  11.487  0.2118  0.5937  0.1762
 2118TIP3    H127769   1.969   5.151  11.422  2.0938 -0.4574 -2.2600
 2118TIP3    H227770   2.016   5.038  11.512  1.0965  0.0317 -1.0933
 2119TIP3   OH227771   5.330   6.107  11.736  0.2870  0.5270 -0.2904
 2119TIP3    H127772   5.325   6.012  11.750  0.8556  0.4015 -0.8595
 2119TIP3    H227773   5.335   6.144  11.823 -0.4349  0.0630 -0.0437
 2120TIP3   OH227774   5.364   3.951   1.972  0.1299  0.2840  0.2229
 2120TIP3    H127775   5.295   3.885   1.965  1.4595 -1.2541  1.1693
 2120TIP3    H227776   5.322   4.024   2.017 -1.1857 -0.1575 -0.2378
 2121TIP3   OH227777   1.084   6.676  11.902  0.2852  0.0907  0.7826
 2121TIP3    H127778   1.180   6.675  11.911  0.5333  0.8892 -1.3479
 2121TIP3    H227779   1.067   6.634  11.818 -1.1251  1.4836  0.3313
 2122TIP3   OH227780   6.109   2.154   5.281  0.1057  0.4712 -0.6916
 2122TIP3    H127781   6.051   2.088   5.243  1.2194 -1.5767  0.9937
 2122TIP3    H227782   6.111   2.224   5.216 -0.8151 -1.3066 -2.7412
 2123TIP3   OH227783   3.718   4.085   5.726 -0.0749  0.6490 -0.5412
 2123TIP3    H127784   3.733   4.169   5.682 -0.2848  1.2268  0.4631
 2123TIP3    H227785   3.664   4.107   5.801  1.1301 -0.1404  0.6012
 2124TIP3   OH227786   3.133   4.156  12.528 -0.3037 -0.2710 -0.3756
 2124TIP3    H127787   3.057   4.148  12.470  0.0314  1.0088 -1.0215
 2124TIP3    H227788   3.099   4.200  12.606 -0.0029  1.4824 -1.1896
 2125TIP3   OH227789   5.919   1.628  16.591 -0.1526  0.1998  0.1286
 2125TIP3    H127790   5.973   1.693  16.637 -0.7826  1.0154 -0.2494
 2125TIP3    H227791   5.916   1.659  16.501 -0.5822 -0.2803 -0.0275
 2126TIP3   OH227792   4.997   1.659  11.236  0.7070  0.3575 -0.5940
 2126TIP3    H127793   4.994   1.616  11.151  0.4649 -0.3301 -0.2488
 2126TIP3    H227794   4.959   1.595  11.296  0.6436  0.9326 -0.0115
 2127TIP3   OH227795   2.611   4.353   1.879  0.6586 -0.0043  0.5591
 2127TIP3    H127796   2.571   4.422   1.827 -0.0178 -0.6393  0.2286
 2127TIP3    H227797   2.703   4.354   1.853  0.1867 -0.8296 -1.2489
 2128TIP3   OH227798   2.882   4.641   3.997  0.0394  0.1900  0.1754
 2128TIP3    H127799   2.912   4.732   3.992  1.5872 -0.2362  0.8584
 2128TIP3    H227800   2.880   4.612   3.906  0.2801  0.6878  0.0049
 2129TIP3   OH227801   6.143   4.156  12.354  0.8206 -0.2269 -0.2734
 2129TIP3    H127802   6.236   4.133  12.361  0.9534  0.4589  0.4528
 2129TIP3    H227803   6.143   4.241  12.311  0.7180  0.9420  1.9043
 2130TIP3   OH227804   4.123   1.727  14.020  0.3635  0.5696 -0.0869
 2130TIP3    H127805   4.082   1.642  14.035  0.4221  0.7027  0.8596
 2130TIP3    H227806   4.156   1.722  13.930 -0.7969  0.0791 -0.5029
 2131TIP3   OH227807   6.008   5.248   0.820  0.2201 -0.6203  0.5909
 2131TIP3    H127808   5.963   5.176   0.864 -0.9148 -1.2352 -1.4714
 2131TIP3    H227809   6.071   5.204   0.763 -0.6631 -0.0106 -0.8803
 2132TIP3   OH227810   4.105   2.750  14.441  0.1524  0.1379  0.0846
 2132TIP3    H127811   4.103   2.806  14.364 -0.1416  0.9963  0.7066
 2132TIP3    H227812   4.096   2.810  14.515 -1.7300 -0.8440  0.7162
 2133TIP3   OH227813   1.822   2.059   3.634  0.2635 -0.2528  0.3356
 2133TIP3    H127814   1.879   1.982   3.631 -0.8803 -1.1179  0.2601
 2133TIP3    H227815   1.861   2.120   3.571  1.7844 -0.3161  1.1503
 2134TIP3   OH227816   5.022   2.584  15.038 -0.2705 -0.5470  0.1816
 2134TIP3    H127817   5.002   2.521  14.968 -0.9294  0.6379 -0.7468
 2134TIP3    H227818   5.040   2.666  14.991 -1.9705  0.6043  1.4405
 2135TIP3   OH227819   1.913   0.196   1.497 -0.7127  0.5705  0.0610
 2135TIP3    H127820   1.922   0.105   1.525 -0.7422 -0.7194 -3.6467
 2135TIP3    H227821   1.953   0.247   1.568 -2.9973 -1.9989  3.5502
 2136TIP3   OH227822   3.683   2.149  15.669 -0.1821  0.1949  0.2554
 2136TIP3    H127823   3.621   2.094  15.718  0.2763  0.2451  0.9061
 2136TIP3    H227824   3.675   2.235  15.709  0.3412  0.1917  0.3725
 2137TIP3   OH227825   6.165   0.451  11.640 -0.1950 -0.5013 -0.0936
 2137TIP3    H127826   6.080   0.417  11.668 -1.3242  0.4335 -2.1692
 2137TIP3    H227827   6.167   0.436  11.546  1.2461  0.9635 -0.3462
 2138TIP3   OH227828   0.351   2.083   2.756 -0.3708 -0.1937  0.0715
 2138TIP3    H127829   0.271   2.033   2.774 -0.1494 -1.2014 -1.6142
 2138TIP3    H227830   0.405   2.070   2.834 -1.0432 -1.1309  0.3954
 2139TIP3   OH227831   5.830   2.758  10.494 -0.2835  0.7676  0.3119
 2139TIP3    H127832   5.866   2.828  10.440  0.9660 -1.3193 -1.7591
 2139TIP3    H227833   5.878   2.765  10.577 -1.1181  3.0876  0.6702
 2140TIP3   OH227834   4.382   3.732  10.928 -0.3739 -0.0819  0.0884
 2140TIP3    H127835   4.323   3.690  10.865  0.3601 -0.7168 -0.1879
 2140TIP3    H227836   4.362   3.691  11.012  0.8571 -1.5845 -0.3036
 2141TIP3   OH227837   4.531   1.610  11.124  0.7123  0.8529  0.2012
 2141TIP3    H127838   4.593   1.615  11.052  0.2601 -0.3891 -0.2879
 2141TIP3    H227839   4.585   1.621  11.203  1.5212  0.0146 -0.2228
 2142TIP3   OH227840   3.251   2.787  11.928  0.5735 -0.2069 -0.3542
 2142TIP3    H127841   3.266   2.742  11.845 -1.4450  1.1733 -1.5619
 2142TIP3    H227842   3.288   2.875  11.914  0.8559 -0.1840  0.4849
 2143TIP3   OH227843   6.055   0.323   1.903  0.0012 -0.5279  0.1857
 2143TIP3    H127844   6.041   0.349   1.995  0.5672 -0.4806  0.2609
 2143TIP3    H227845   6.071   0.406   1.857  0.2833 -0.6021  0.1485
 2144TIP3   OH227846   3.350   3.051  11.935  0.0660 -0.3262 -0.0563
 2144TIP3    H127847   3.416   3.043  12.003 -0.0198  1.5316  0.2972
 2144TIP3    H227848   3.397   3.086  11.859 -0.6190  2.1166  0.5471
 2145TIP3   OH227849   3.496   5.554   0.392 -0.3462 -0.3678 -0.2084
 2145TIP3    H127850   3.452   5.536   0.309 -1.3249 -1.9064  0.6106
 2145TIP3    H227851   3.427   5.549   0.458  0.6511 -0.5487  0.8563
 2146TIP3   OH227852   6.769   4.599   6.422 -0.1278  0.2347 -0.3155
 2146TIP3    H127853   6.842   4.660   6.433  0.2408 -0.5671  2.1823
 2146TIP3    H227854   6.692   4.648   6.451  0.3999 -0.8736  3.3827
 2147TIP3   OH227855   5.150   3.692   5.072  0.2827  0.8200  0.7200
 2147TIP3    H127856   5.220   3.754   5.092  2.3443 -1.4477  1.0027
 2147TIP3    H227857   5.088   3.704   5.144 -0.6860  4.1419 -0.4720
 2148TIP3   OH227858   6.261   0.271  10.672 -0.2429 -0.0670  0.6041
 2148TIP3    H127859   6.289   0.305  10.587 -1.4864 -0.7647 -0.1136
 2148TIP3    H227860   6.228   0.348  10.719  1.4671  0.5153  0.9196
 2149TIP3   OH227861   3.641   5.899  14.094  0.0074  0.2184 -0.0641
 2149TIP3    H127862   3.641   5.948  14.012  1.4595 -2.1371 -1.5706
 2149TIP3    H227863   3.578   5.828  14.079  1.7155 -1.3966  0.0219
 2150TIP3   OH227864   1.266   3.547   4.486  0.2620  0.4469  0.5264
 2150TIP3    H127865   1.240   3.547   4.394  3.0143 -0.3225 -0.3542
 2150TIP3    H227866   1.338   3.484   4.491  2.5533  2.9518  2.4521
 2151TIP3   OH227867   4.499   6.699  17.028  0.3640 -0.0083 -0.4304
 2151TIP3    H127868   4.455   6.663  16.951 -0.1033  0.1965 -0.2604
 2151TIP3    H227869   4.547   6.625  17.065 -0.0890 -0.3060 -0.4371
 2152TIP3   OH227870   6.753   5.499  14.544  0.1202  0.1357  0.0343
 2152TIP3    H127871   6.662   5.476  14.557  0.1137 -0.8446 -1.5240
 2152TIP3    H227872   6.751   5.587  14.505 -0.1836 -0.0688 -0.4109
 2153TIP3   OH227873   6.387   3.685   5.716  0.1223  0.4626  0.7377
 2153TIP3    H127874   6.474   3.686   5.678  0.0622 -0.4093  0.5677
 2153TIP3    H227875   6.391   3.619   5.785 -0.2980  0.6945  0.9940
 2154TIP3   OH227876   3.008   0.094   0.762 -0.3546 -0.4196 -0.3201
 2154TIP3    H127877   2.978   0.040   0.834 -0.4829 -0.3441 -0.3158
 2154TIP3    H227878   3.038   0.175   0.803 -0.7994 -0.2166 -0.3805
 2155TIP3   OH227879   2.402   0.997  11.225  0.0485  0.3161  0.0125
 2155TIP3    H127880   2.444   0.944  11.156 -0.3383 -0.6454  0.4929
 2155TIP3    H227881   2.324   0.946  11.249  0.6213  0.2140  1.7452
 2156TIP3   OH227882   6.578   3.791  11.883 -0.0202  0.9795  0.0948
 2156TIP3    H127883   6.565   3.808  11.790  2.9485 -1.5669 -0.9936
 2156TIP3    H227884   6.630   3.866  11.914 -2.4056  2.6743  0.2508
 2157TIP3   OH227885   5.988   4.951  13.600  0.0207  0.5176  0.3594
 2157TIP3    H127886   6.011   5.040  13.629  1.0075  0.2415  0.4650
 2157TIP3    H227887   6.055   4.930  13.534 -1.3271  0.5713 -1.0729
 2158TIP3   OH227888   6.275   0.772  10.972  0.1288  0.4120  0.1063
 2158TIP3    H127889   6.353   0.725  11.004  0.8702  2.3553  1.3298
 2158TIP3    H227890   6.295   0.792  10.881 -0.1259 -1.4273 -0.3822
 2159TIP3   OH227891   4.994   0.924   1.874  0.0408  0.5125 -0.1202
 2159TIP3    H127892   4.912   0.942   1.828 -0.6348  1.8492  1.4887
 2159TIP3    H227893   4.968   0.869   1.949  0.3703  1.8768  1.0455
 2160TIP3   OH227894   1.359   4.512  17.132  0.4157  0.9215 -0.5685
 2160TIP3    H127895   1.301   4.502  17.057  2.2398  1.1464 -2.0702
 2160TIP3    H227896   1.345   4.433  17.184 -3.6085  2.3587  0.9800
 2161TIP3   OH227897   2.353   1.152  14.270  0.2464  0.6652 -0.2594
 2161TIP3    H127898   2.424   1.088  14.280 -0.3542 -0.0228 -0.3058
 2161TIP3    H227899   2.287   1.125  14.334 -0.2876  0.8544 -0.7187
 2162TIP3   OH227900   2.659   6.606   0.961  0.7007  0.1030 -0.0431
 2162TIP3    H127901   2.616   6.615   0.876 -0.6780  0.0729  0.6266
 2162TIP3    H227902   2.596   6.556   1.015  1.8670 -0.5404  0.7697
 2163TIP3   OH227903   3.684   6.230   3.700 -0.0595 -0.4531  0.3100
 2163TIP3    H127904   3.591   6.248   3.715 -0.3796 -1.1396 -0.7200
 2163TIP3    H227905   3.684   6.167   3.628  1.2283 -0.0747 -0.0417
 2164TIP3   OH227906   5.177   5.021  12.864 -0.4234 -0.3669 -0.1793
 2164TIP3    H127907   5.177   4.959  12.937 -0.7239 -0.6367 -0.4006
 2164TIP3    H227908   5.245   4.989  12.805  0.2111  0.1760  0.2437
 2165TIP3   OH227909   5.615   1.623   0.252 -0.0841 -0.0312 -0.9154
 2165TIP3    H127910   5.535   1.675   0.244  0.1845  0.6071  0.3097
 2165TIP3    H227911   5.600   1.568   0.329  0.6990  0.1863 -0.5973
 2166TIP3   OH227912   2.750   6.612  14.335  0.5902  0.4599  0.1418
 2166TIP3    H127913   2.792   6.533  14.370  4.0225  2.1975  0.4337
 2166TIP3    H227914   2.720   6.660  14.413 -1.2254 -0.3506 -0.0192
 2167TIP3   OH227915   3.431   4.090   6.194 -0.0113 -0.2086  0.6247
 2167TIP3    H127916   3.363   4.148   6.161  1.4008  0.3721 -1.5152
 2167TIP3    H227917   3.513   4.137   6.177  1.0151 -1.4801  1.7707
 2168TIP3   OH227918   4.414   1.607  12.852 -0.0686 -0.3171  0.4589
 2168TIP3    H127919   4.410   1.584  12.945 -2.0872  1.7514  0.9799
 2168TIP3    H227920   4.361   1.541  12.808  0.2236 -0.8328  0.8750
 2169TIP3   OH227921   4.757   0.739  12.183 -0.2741 -0.2715  0.1347
 2169TIP3    H127922   4.815   0.814  12.197 -1.5367  0.8454 -0.3269
 2169TIP3    H227923   4.776   0.711  12.093 -0.6810  0.3310 -0.1501
 2170TIP3   OH227924   4.693   2.117   4.133 -0.0710 -0.2190 -0.2160
 2170TIP3    H127925   4.749   2.145   4.060  0.4721  1.3894  0.7593
 2170TIP3    H227926   4.737   2.150   4.211 -0.7659 -1.6848  0.8555
 2171TIP3   OH227927   2.765   3.446  14.735  0.0814  0.1209 -0.4756
 2171TIP3    H127928   2.794   3.359  14.707  1.3304 -0.7624  3.0777
 2171TIP3    H227929   2.685   3.430  14.784  0.7314  0.8100  0.8712
 2172TIP3   OH227930   5.481   4.355   5.317 -0.0257 -0.5618 -0.4252
 2172TIP3    H127931   5.514   4.293   5.382  0.6948 -0.2433 -0.4831
 2172TIP3    H227932   5.544   4.351   5.245 -0.3048 -0.2112 -0.6928
 2173TIP3   OH227933   4.894   0.286  14.539 -0.2150  0.4294 -0.5691
 2173TIP3    H127934   4.854   0.214  14.490 -0.3692  2.0859 -3.0993
 2173TIP3    H227935   4.832   0.358  14.529  1.1082  1.6397 -0.3285
 2174TIP3   OH227936   5.671   6.085  12.855 -0.1439 -0.7873 -0.7826
 2174TIP3    H127937   5.595   6.050  12.901 -1.1426  0.3165 -1.5272
 2174TIP3    H227938   5.705   6.153  12.912  0.2137 -1.1905 -0.5100
 2175TIP3   OH227939   6.721   1.220  14.875  0.1841 -0.1085 -0.0596
 2175TIP3    H127940   6.665   1.287  14.913 -0.9986 -1.3759  0.5256
 2175TIP3    H227941   6.683   1.201  14.790  0.0933 -0.5277  0.0719
 2176TIP3   OH227942   1.952   4.795   5.767  0.3187 -0.1944  0.4307
 2176TIP3    H127943   1.869   4.758   5.796  1.3459 -0.7463  2.9603
 2176TIP3    H227944   1.940   4.890   5.772 -0.0350 -0.2716  1.2498
 2177TIP3   OH227945   3.339   3.080   1.425 -0.3182  0.0501 -0.1177
 2177TIP3    H127946   3.315   3.014   1.490 -2.1362  0.3578 -0.4290
 2177TIP3    H227947   3.332   3.164   1.472  0.1116  0.1571 -0.2376
 2178TIP3   OH227948   0.120   1.341  12.861 -1.0739  0.6042  0.2237
 2178TIP3    H127949   0.076   1.257  12.845 -0.1241  0.1879 -0.2881
 2178TIP3    H227950   0.210   1.317  12.881 -0.9380  1.4791  0.7126
 2179TIP3   OH227951   3.014   2.820   1.547 -0.2906  0.0236  0.1447
 2179TIP3    H127952   3.075   2.787   1.613 -1.8169 -2.6060  0.4332
 2179TIP3    H227953   3.055   2.799   1.463 -0.1115 -0.3346  0.3205
 2180TIP3   OH227954   0.061   4.998   3.987  0.2425  0.2895 -0.1374
 2180TIP3    H127955   0.005   5.051   3.930  0.1165  0.9677  0.6016
 2180TIP3    H227956   0.000   4.955   4.047  0.3178 -0.9416 -0.9120
 2181TIP3   OH227957   5.066   4.713   2.450 -0.1026 -0.7048  0.4139
 2181TIP3    H127958   5.042   4.701   2.358 -0.5246 -0.3893  0.4811
 2181TIP3    H227959   5.072   4.624   2.485  0.9134 -0.8719 -0.1232
 2182TIP3   OH227960   4.704   0.343  12.276 -0.1072 -0.7229  0.2967
 2182TIP3    H127961   4.661   0.333  12.191 -2.0611  1.7894  0.8906
 2182TIP3    H227962   4.640   0.314  12.340  1.1860 -2.1732  0.9890
 2183TIP3   OH227963   3.007   5.922   2.227  0.1190  0.1811  0.5934
 2183TIP3    H127964   3.038   5.953   2.142  0.8841 -1.4304  0.2611
 2183TIP3    H227965   2.932   5.979   2.247 -0.6272  0.0394 -1.5553
 2184TIP3   OH227966   2.080   5.297  12.204  0.5618  0.9346 -0.1654
 2184TIP3    H127967   2.107   5.302  12.112 -1.8157  1.0288 -0.9405
 2184TIP3    H227968   2.110   5.380  12.242  2.8857  0.2668 -0.4056
 2185TIP3   OH227969   5.518   1.669   0.771  0.0017 -0.5984  0.4821
 2185TIP3    H127970   5.443   1.620   0.805  0.1672 -1.3132 -0.1659
 2185TIP3    H227971   5.587   1.603   0.759  0.5819 -0.0278  0.6089
 2186TIP3   OH227972   1.712   3.157   5.626 -0.7788  0.5108 -0.4803
 2186TIP3    H127973   1.685   3.235   5.577 -0.2737 -0.4579 -2.3981
 2186TIP3    H227974   1.724   3.090   5.559  0.2283 -0.8256  0.9710
 2187TIP3   OH227975   3.053   0.071   5.144 -0.9514 -0.1440  0.1004
 2187TIP3    H127976   3.063  -0.001   5.083 -0.5507  1.4479 -1.8299
 2187TIP3    H227977   3.042   0.148   5.089  2.4637  1.8842  1.8728
 2188TIP3   OH227978   5.805   0.306  13.517 -0.3460  1.0480  0.1175
 2188TIP3    H127979   5.852   0.381  13.482  2.4601  0.0658  1.4859
 2188TIP3    H227980   5.817   0.313  13.612  1.1777 -1.7369  0.2355
 2189TIP3   OH227981   2.916   4.023  13.434 -0.2225 -0.2199 -0.0175
 2189TIP3    H127982   2.878   4.031  13.521 -1.7279  0.4190 -0.7053
 2189TIP3    H227983   2.883   4.098  13.385  2.4824  0.7934 -0.5054
 2190TIP3   OH227984   4.065   3.073  11.318 -0.0911 -0.1602 -0.4834
 2190TIP3    H127985   4.133   3.081  11.385  0.6881 -0.6899 -1.2034
 2190TIP3    H227986   4.039   2.981  11.320 -0.3735 -0.0846 -0.6151
 2191TIP3   OH227987   3.903   1.593  15.274  0.3533 -0.2335  0.7408
 2191TIP3    H127988   3.987   1.582  15.230 -0.1705 -0.5943 -0.1983
 2191TIP3    H227989   3.891   1.688  15.278  0.6389 -0.1885  0.5636
 2192TIP3   OH227990   0.833   3.298  16.180  0.1294  0.0777 -0.2302
 2192TIP3    H127991   0.764   3.359  16.154  0.7398  0.2684 -1.4600
 2192TIP3    H227992   0.913   3.351  16.180  0.5889 -0.5937 -0.8301
 2193TIP3   OH227993   6.643   6.614   0.497 -0.6010  0.1597  0.3059
 2193TIP3    H127994   6.605   6.656   0.574  1.1883  0.0789  1.2942
 2193TIP3    H227995   6.691   6.685   0.453  0.1514 -0.2331  0.4716
 2194TIP3   OH227996   0.132   0.382  14.621 -0.2649 -0.5687 -0.1575
 2194TIP3    H127997   0.184   0.373  14.701  0.0872 -1.4253 -0.4731
 2194TIP3    H227998   0.041   0.372  14.650 -0.2978  1.0813  0.4238
 2195TIP3   OH227999   3.431   3.594   0.503 -0.2369 -0.5809  0.9009
 2195TIP3    H128000   3.443   3.640   0.586  0.1655 -0.5815  0.8437
 2195TIP3    H228001   3.337   3.596   0.488 -0.3897 -1.1652  1.6914
 2196TIP3   OH228002   1.246   4.643   5.253 -0.2709 -0.1520  0.0045
 2196TIP3    H128003   1.277   4.559   5.287  0.2526 -0.3201 -0.8564
 2196TIP3    H228004   1.295   4.709   5.303 -0.2513 -0.3687  0.2738
 2197TIP3   OH228005   2.730   1.812   3.554  0.3162 -0.3133 -0.2688
 2197TIP3    H128006   2.683   1.880   3.506  2.1512  1.7722  0.7089
 2197TIP3    H228007   2.797   1.781   3.492 -0.0991 -0.7834 -0.4907
 2198TIP3   OH228008   0.943   2.812   4.824  0.3442  0.0450 -0.2645
 2198TIP3    H128009   0.928   2.772   4.909 -0.5657  0.9518  0.0183
 2198TIP3    H228010   0.943   2.906   4.841  2.6542  0.2039 -0.8761
 2199TIP3   OH228011   2.331   3.679  15.196  0.1633  0.2791 -0.1868
 2199TIP3    H128012   2.387   3.752  15.220  0.2848  0.0195  0.3525
 2199TIP3    H228013   2.263   3.717  15.140  2.2028  0.1953 -2.8993
 2200TIP3   OH228014   6.564   1.827  11.173  0.3330 -0.0408 -0.1507
 2200TIP3    H128015   6.598   1.914  11.193  2.0774 -0.8480  0.5618
 2200TIP3    H228016   6.526   1.835  11.085  0.0089  1.5329  0.1108
 2201TIP3   OH228017   5.344   4.321  13.449  0.2747  0.1240  0.9330
 2201TIP3    H128018   5.437   4.339  13.431  0.5391 -0.2480  1.9027
 2201TIP3    H228019   5.343   4.278  13.534 -0.8222  0.4025  1.0809
 2202TIP3   OH228020   1.315   3.206   2.024  0.6525 -0.1004  0.1543
 2202TIP3    H128021   1.381   3.156   1.977  0.5907 -0.0396  0.0020
 2202TIP3    H228022   1.235   3.194   1.973  0.4775 -0.4186  0.4987
 2203TIP3   OH228023   6.739   1.212   3.076  0.4274 -0.3085  0.4436
 2203TIP3    H128024   6.807   1.145   3.082  1.2540  0.5185  0.5820
 2203TIP3    H228025   6.658   1.163   3.063  1.0493 -1.3174  0.2378
 2204TIP3   OH228026   4.537   4.511  11.405  0.0258 -0.2796 -0.1302
 2204TIP3    H128027   4.589   4.590  11.387  0.2498 -0.1875  0.8828
 2204TIP3    H228028   4.472   4.510  11.335 -1.5741  2.1719  1.1755
 2205TIP3   OH228029   3.137   4.386   3.348 -0.5795  0.0907  0.5692
 2205TIP3    H128030   3.065   4.448   3.363  0.0364  1.1271 -0.6350
 2205TIP3    H228031   3.133   4.367   3.255  0.0502 -0.7115  0.6939
 2206TIP3   OH228032   5.616   0.900   0.275  0.9376  0.2522  0.1617
 2206TIP3    H128033   5.676   0.950   0.330  1.2502  0.7088 -0.5881
 2206TIP3    H228034   5.618   0.944   0.190  1.9480 -1.5219 -0.8176
 2207TIP3   OH228035   5.185   3.915  14.106 -0.5323 -0.4062  0.9342
 2207TIP3    H128036   5.154   3.916  14.016  0.2300 -2.1507  0.6156
 2207TIP3    H228037   5.226   4.000  14.119  0.0573 -0.4290 -0.6392
 2208TIP3   OH228038   5.560   1.268   1.983 -0.2570  0.2504 -0.1524
 2208TIP3    H128039   5.630   1.331   1.970  0.3765 -0.4192 -0.0990
 2208TIP3    H228040   5.569   1.241   2.075  1.2808 -1.9422 -0.8380
 2209TIP3   OH228041   1.844   3.605   4.821 -0.2158  0.7689 -0.5008
 2209TIP3    H128042   1.824   3.681   4.874  2.4077  2.0495 -1.1793
 2209TIP3    H228043   1.833   3.635   4.730  1.1309  0.4726 -0.7871
 2210TIP3   OH228044   2.995   2.181  15.257  0.3931  0.0703 -0.4124
 2210TIP3    H128045   3.071   2.188  15.200  0.5445 -0.4982 -0.2912
 2210TIP3    H228046   3.006   2.097  15.301 -0.1414  0.1292 -0.1557
 2211TIP3   OH228047   1.007   4.716  12.114 -0.2917  0.1340 -0.4037
 2211TIP3    H128048   0.912   4.725  12.114 -0.2412  0.8177  0.7711
 2211TIP3    H228049   1.025   4.657  12.187  0.2992  1.4827  0.5629
 2212TIP3   OH228050   0.026   6.237  14.752 -0.2156 -0.2140  0.0678
 2212TIP3    H128051   0.111   6.216  14.713 -0.6160 -0.8233 -0.5032
 2212TIP3    H228052   0.044   6.247  14.845  0.0242 -3.3210  0.4462
 2213TIP3   OH228053   0.100   4.463  11.103 -0.4231  0.5561 -0.6237
 2213TIP3    H128054   0.135   4.530  11.043 -0.6024  2.1102  0.9403
 2213TIP3    H228055   0.082   4.388  11.046  1.9761  0.9654 -2.0948
 2214TIP3   OH228056   0.560   1.512   2.595  0.0596 -0.0882  0.3976
 2214TIP3    H128057   0.535   1.568   2.522  0.7508 -0.3793 -0.0844
 2214TIP3    H228058   0.622   1.565   2.646 -0.0644 -0.0491  0.5061
 2215TIP3   OH228059   2.649   0.141   5.571  0.3731  0.2363 -0.2020
 2215TIP3    H128060   2.657   0.097   5.486 -0.4583 -0.1299 -0.1066
 2215TIP3    H228061   2.569   0.104   5.608 -0.3286  1.8085 -0.0962
 2216TIP3   OH228062   0.158   6.674  14.702  0.5181 -0.2681  0.2071
 2216TIP3    H128063   0.210   6.693  14.624  0.6873 -1.7681 -0.0843
 2216TIP3    H228064   0.216   6.695  14.775 -0.2597  2.9128  0.0573
 2217TIP3   OH228065   2.516   3.152   0.609  0.0031  0.2270 -0.6904
 2217TIP3    H128066   2.427   3.174   0.636  0.9658  2.9668  0.5593
 2217TIP3    H228067   2.542   3.082   0.669 -0.4021  1.2922  0.7893
 2218TIP3   OH228068   4.975   3.772  11.983  0.5861  0.2138 -0.5424
 2218TIP3    H128069   4.927   3.692  11.961  1.7134 -0.6068 -0.1596
 2218TIP3    H228070   4.969   3.778  12.079 -1.3989  1.8626 -0.7262
 2219TIP3   OH228071   6.380   1.020   0.588  0.0485 -1.1226 -0.1353
 2219TIP3    H128072   6.475   1.007   0.587  0.3955  0.0626  3.6311
 2219TIP3    H228073   6.365   1.083   0.658 -3.5045 -0.5622 -1.2042
 2220TIP3   OH228074   0.396   3.386   3.177 -0.2104 -0.2746  0.2306
 2220TIP3    H128075   0.384   3.360   3.086 -1.1316  1.4843 -0.1811
 2220TIP3    H228076   0.368   3.309   3.228  0.0910 -1.1867 -0.9449
 2221TIP3   OH228077   1.953   1.357  12.493  0.0523 -0.1847  0.3557
 2221TIP3    H128078   2.034   1.358  12.443  0.6470  2.4291  1.2266
 2221TIP3    H228079   1.891   1.309  12.437  1.1188  1.1682 -2.1284
 2222TIP3   OH228080   6.378   2.714  11.434  0.3166  0.5860  0.1635
 2222TIP3    H128081   6.404   2.750  11.519 -0.0625 -0.6171  0.8126
 2222TIP3    H228082   6.283   2.724  11.432 -0.0607 -2.0197  1.2056
 2223TIP3   OH228083   1.100   2.739   5.470 -0.3189 -0.1612 -0.2982
 2223TIP3    H128084   1.084   2.645   5.478 -1.5687 -0.0065 -0.6936
 2223TIP3    H228085   1.171   2.746   5.406 -1.1173 -0.8076 -1.2849
 2224TIP3   OH228086   2.873   5.693   4.621  0.8509 -0.4823  0.6019
 2224TIP3    H128087   2.785   5.662   4.641  1.1501 -1.2184  0.7951
 2224TIP3    H228088   2.898   5.745   4.698  0.3713  0.2231  0.2980
 2225TIP3   OH228089   4.103   6.278  15.841 -0.2764 -0.4495  1.0014
 2225TIP3    H128090   4.076   6.346  15.779  1.5432  0.4717  1.1489
 2225TIP3    H228091   4.098   6.197  15.791  0.2031  0.1497 -0.0709
 2226TIP3   OH228092   2.347   0.168  11.726  0.0415  0.6788  0.3548
 2226TIP3    H128093   2.339   0.073  11.739  0.4995  0.5224 -0.4345
 2226TIP3    H228094   2.281   0.189  11.661 -2.1110  1.4281  2.6487
 2227TIP3   OH228095   3.108   2.516  10.555  0.6080  0.5063  0.4566
 2227TIP3    H128096   3.024   2.478  10.583  0.2666  0.2477 -0.8656
 2227TIP3    H228097   3.146   2.450  10.497  1.8937  0.4881  1.2814
 2228TIP3   OH228098   2.924   3.788  15.359 -0.1301 -0.2206  0.5283
 2228TIP3    H128099   2.876   3.759  15.281  0.2038  0.5103  0.0355
 2228TIP3    H228100   2.986   3.853  15.326  0.6240 -0.5422  1.2800
 2229TIP3   OH228101   5.968   2.886   6.636  0.5076  0.6679 -0.0672
 2229TIP3    H128102   5.876   2.862   6.646  0.3662  1.7404  1.6151
 2229TIP3    H228103   5.985   2.879   6.542 -1.0732 -0.2624 -0.3123
 2230TIP3   OH228104   1.265   5.467  15.677  0.1263 -0.3169  0.3163
 2230TIP3    H128105   1.332   5.401  15.662 -0.1881 -0.5588 -0.0578
 2230TIP3    H228106   1.227   5.445  15.762  0.3927 -0.2919  0.4416
 2231TIP3   OH228107   5.372   1.217   3.543  0.3406  0.5960 -0.3062
 2231TIP3    H128108   5.321   1.138   3.561  0.2384  0.7089 -0.0929
 2231TIP3    H228109   5.321   1.264   3.477  0.4524  0.4359 -0.5098
 2232TIP3   OH228110   5.696   1.074   2.382  0.4834  0.1608 -0.0412
 2232TIP3    H128111   5.680   1.098   2.473  1.6791  0.0497  0.2138
 2232TIP3    H228112   5.610   1.049   2.348  0.0244  0.2125  1.0506
 2233TIP3   OH228113   3.304   0.984   1.078  0.0221  0.2518  0.4488
 2233TIP3    H128114   3.238   1.004   1.011  1.3369  0.6398 -0.7922
 2233TIP3    H228115   3.270   1.023   1.158 -0.8874  1.1455 -0.3480
 2234TIP3   OH228116   5.144   4.271  15.250 -0.2836 -0.3309  0.2508
 2234TIP3    H128117   5.239   4.272  15.241 -0.3543 -0.1983 -0.6021
 2234TIP3    H228118   5.116   4.194  15.201 -0.7289  0.6260 -1.0861
 2235TIP3   OH228119   5.218   5.479   5.355  0.0196  0.2545  0.4150
 2235TIP3    H128120   5.125   5.498   5.369 -0.6101 -2.5019  0.6352
 2235TIP3    H228121   5.260   5.501   5.439 -0.9205 -0.8247  1.2032
 2236TIP3   OH228122   1.578   2.271  15.526 -0.1023  0.3578  1.0035
 2236TIP3    H128123   1.578   2.323  15.607  1.2329 -0.5019  1.5889
 2236TIP3    H228124   1.517   2.199  15.545 -0.3177  0.5356  0.9887
 2237TIP3   OH228125   6.350   3.641   2.716  0.2445 -0.3029  0.1435
 2237TIP3    H128126   6.403   3.610   2.642  0.9919  0.4490  0.3510
 2237TIP3    H228127   6.267   3.669   2.676 -0.7813 -3.2123  0.0288
 2238TIP3   OH228128   4.314   3.629   1.931  0.1684 -0.4034  0.5259
 2238TIP3    H128129   4.270   3.547   1.909 -2.0410  0.5423  1.1428
 2238TIP3    H228130   4.337   3.668   1.847 -2.9935  0.4562 -0.0900
 2239TIP3   OH228131   5.462   1.980  14.621  0.1849 -0.2178 -0.7035
 2239TIP3    H128132   5.441   2.074  14.620  1.9493  0.2469  0.2966
 2239TIP3    H228133   5.419   1.945  14.544 -1.1210  1.2786 -0.7123
 2240TIP3   OH228134   2.463   3.496   3.156  0.0290 -0.1816 -0.2850
 2240TIP3    H128135   2.517   3.436   3.105 -0.6824 -2.1726  1.1471
 2240TIP3    H228136   2.502   3.495   3.243 -0.2810  1.1087 -0.1130
 2241TIP3   OH228137   3.664   5.183   1.538 -0.1932 -0.4357 -0.6797
 2241TIP3    H128138   3.748   5.138   1.550  1.0640  1.0686 -3.1321
 2241TIP3    H228139   3.661   5.247   1.609  0.8213 -0.3970 -0.6607
 2242TIP3   OH228140   0.771   2.335   1.900  0.5127 -0.2646 -0.5027
 2242TIP3    H128141   0.769   2.262   1.837  1.3645 -0.7080 -0.0371
 2242TIP3    H228142   0.751   2.294   1.984 -0.1803  0.2499 -0.4130
 2243TIP3   OH228143   2.164   6.542   1.025 -0.1828 -0.1885  0.1238
 2243TIP3    H128144   2.173   6.636   1.040  1.4026 -0.2307 -0.4411
 2243TIP3    H228145   2.181   6.502   1.110 -1.7478  0.0404  0.5827
 2244TIP3   OH228146   2.094   4.083   4.544  0.6175 -0.1173  0.3802
 2244TIP3    H128147   2.066   4.172   4.566  1.1403 -0.1860  1.3987
 2244TIP3    H228148   2.189   4.084   4.557  0.9612 -0.2412 -1.7400
 2245TIP3   OH228149   1.579   6.469  11.388 -0.3489 -0.7264 -0.2826
 2245TIP3    H128150   1.583   6.506  11.299  0.7625 -1.3488 -0.5107
 2245TIP3    H228151   1.498   6.418  11.388 -0.7707 -0.0747 -0.6749
 2246TIP3   OH228152   6.568   4.538  10.955 -0.5792 -0.0470 -0.2549
 2246TIP3    H128153   6.650   4.573  10.991 -1.3082 -0.3349  1.8080
 2246TIP3    H228154   6.597   4.482  10.883  0.9147  1.1278 -0.6285
 2247TIP3   OH228155   6.485   2.872   3.144  0.1034 -0.0250 -0.4064
 2247TIP3    H128156   6.545   2.905   3.077 -1.8826  1.6164 -1.4886
 2247TIP3    H228157   6.513   2.916   3.225  3.3705 -3.0224  0.3583
 2248TIP3   OH228158   2.834   2.944   5.518  0.5126 -0.2698  0.0116
 2248TIP3    H128159   2.761   2.981   5.468  1.0599 -1.1521 -1.5124
 2248TIP3    H228160   2.903   3.010   5.511  0.5527 -0.3439 -0.3454
 2249TIP3   OH228161   4.061   4.952   2.864  0.2854  0.0507 -0.2688
 2249TIP3    H128162   4.109   4.896   2.925  0.1440 -0.3591 -0.5303
 2249TIP3    H228163   3.976   4.909   2.854  1.0131 -1.0531 -2.3575
 2250TIP3   OH228164   4.717   1.200  10.364  0.2993  0.1203 -0.2093
 2250TIP3    H128165   4.638   1.220  10.416  0.6129  1.4092 -0.1799
 2250TIP3    H228166   4.739   1.110  10.387 -1.8378 -0.6966 -1.1223
 2251TIP3   OH228167   4.185   5.776   6.129 -0.4262 -0.1913 -0.4806
 2251TIP3    H128168   4.193   5.682   6.146 -1.8638  0.0511  1.9306
 2251TIP3    H228169   4.142   5.811   6.207 -1.2426  2.2562 -1.9219
 2252TIP3   OH228170   4.850   3.675   4.574  0.0411 -0.0449 -0.6903
 2252TIP3    H128171   4.867   3.760   4.534 -0.5049 -0.4538 -1.8579
 2252TIP3    H228172   4.755   3.663   4.564  0.1862 -1.0030 -0.9964
 2253TIP3   OH228173   4.814   5.490   2.630 -0.2195 -0.2686 -0.5452
 2253TIP3    H128174   4.751   5.561   2.639 -0.0916  0.0516 -1.9456
 2253TIP3    H228175   4.890   5.531   2.589  0.6410 -0.7984  0.4776
 2254TIP3   OH228176   4.694   3.723  16.825  0.2904  0.2177 -0.0746
 2254TIP3    H128177   4.700   3.628  16.837  0.9040  0.2428 -0.1427
 2254TIP3    H228178   4.750   3.741  16.748  0.2913  0.6485  0.0231
 2255TIP3   OH228179   1.113   6.042   4.566 -0.4325  0.1003 -0.5023
 2255TIP3    H128180   1.111   5.963   4.619 -0.1331  0.5256  0.1578
 2255TIP3    H228181   1.202   6.076   4.577 -0.5291  0.4843 -0.8502
 2256TIP3   OH228182   2.220   3.224  16.236  0.1105 -0.2872 -0.2103
 2256TIP3    H128183   2.172   3.151  16.276  2.5566 -1.7057  0.3628
 2256TIP3    H228184   2.152   3.286  16.209 -2.0664 -2.5211 -0.2457
 2257TIP3   OH228185   6.339   2.388   2.819 -0.1212  0.4037  0.4096
 2257TIP3    H128186   6.400   2.447   2.863  0.8724  0.2538 -0.7238
 2257TIP3    H228187   6.350   2.304   2.863  2.9199 -0.5016 -1.7758
 2258TIP3   OH228188   2.998   6.447   3.363 -0.4972 -0.0282 -0.1168
 2258TIP3    H128189   2.929   6.398   3.319  0.3037 -1.9586  0.6801
 2258TIP3    H228190   2.952   6.506   3.422 -1.4860 -0.6128 -0.2894
 2259TIP3   OH228191   1.125   1.361   0.769 -0.4612  0.3366 -0.1513
 2259TIP3    H128192   1.133   1.452   0.797 -1.6383  0.4043  0.0008
 2259TIP3    H228193   1.032   1.350   0.748 -0.5930 -1.1896  1.1078
 2260TIP3   OH228194   4.285   5.277  16.699  0.0353 -0.6218  0.1156
 2260TIP3    H128195   4.241   5.319  16.625 -0.0809 -0.7091  0.1346
 2260TIP3    H228196   4.214   5.246  16.755  0.1218 -0.6575  0.2086
 2261TIP3   OH228197   2.536   2.480   1.961 -0.3226  0.3272  0.3978
 2261TIP3    H128198   2.503   2.497   2.049 -1.1678 -1.3415  0.4456
 2261TIP3    H228199   2.542   2.566   1.920 -2.3118  0.9128  1.2587
 2262TIP3   OH228200   3.832   1.692  16.397 -1.1414  0.1208 -0.5594
 2262TIP3    H128201   3.757   1.635  16.415 -0.5811 -0.5070 -0.1475
 2262TIP3    H228202   3.859   1.725  16.482 -0.4283 -0.3425 -0.5964
 2263TIP3   OH228203   6.252   1.116   1.456 -0.2242 -0.2331  0.3093
 2263TIP3    H128204   6.272   1.022   1.464 -0.4382 -0.3792 -0.7854
 2263TIP3    H228205   6.165   1.119   1.416 -0.3215  0.4383  0.5569
 2264TIP3   OH228206   2.092   2.125   0.441  0.2621  0.0373 -0.4719
 2264TIP3    H128207   2.144   2.196   0.480 -0.1164  0.3440 -0.5154
 2264TIP3    H228208   2.030   2.102   0.510  1.0607 -0.9810 -0.0691
 2265TIP3   OH228209   5.799   4.224   3.833 -0.5316 -0.1129  0.0102
 2265TIP3    H128210   5.875   4.177   3.797 -0.2306 -0.2920  0.8625
 2265TIP3    H228211   5.724   4.174   3.801 -0.2109 -1.3126  1.0392
 2266TIP3   OH228212   2.915   4.848  16.740  0.1040  0.1106  0.1013
 2266TIP3    H128213   2.896   4.765  16.695  1.9600 -0.6954  0.7422
 2266TIP3    H228214   2.923   4.825  16.832 -0.2260  1.1698  0.4128
 2267TIP3   OH228215   5.146   6.369   0.093  0.5531 -0.1680 -0.1255
 2267TIP3    H128216   5.156   6.292   0.036 -1.4311 -1.2096  0.8496
 2267TIP3    H228217   5.072   6.417   0.056 -1.9566 -1.7697  2.3677
 2268TIP3   OH228218   1.498   4.054   5.702 -0.1197  0.3021  0.1714
 2268TIP3    H128219   1.444   4.111   5.757  0.8807 -1.1777  2.8835
 2268TIP3    H228220   1.580   4.045   5.750 -0.5151 -4.0274  0.4312
 2269TIP3   OH228221   0.591   4.326   4.705 -0.8704 -0.1128  0.1026
 2269TIP3    H128222   0.684   4.329   4.686 -0.5916  1.7587  1.5228
 2269TIP3    H228223   0.553   4.396   4.652 -0.9947  1.0557  1.6885
 2270TIP3   OH228224   6.519   4.382  16.906 -0.0858  0.3119 -0.2725
 2270TIP3    H128225   6.496   4.440  16.979  1.7504  0.1655  0.4617
 2270TIP3    H228226   6.485   4.428  16.828 -0.5035  1.3451  0.4923
 2271TIP3   OH228227   3.287   2.919   5.648 -0.4128  0.8980  0.0688
 2271TIP3    H128228   3.353   2.936   5.582 -1.4213  0.5306 -1.0682
 2271TIP3    H228229   3.238   2.843   5.615 -0.2169 -0.0294  1.7940
 2272TIP3   OH228230   1.656   4.825  12.112  0.8990 -0.0527 -0.0365
 2272TIP3    H128231   1.638   4.879  12.189  0.9163 -1.3806  0.9488
 2272TIP3    H228232   1.590   4.756  12.115  2.2876 -1.4275  0.0982
 2273TIP3   OH228233   2.443   6.418  14.408  0.7281  0.4874 -0.2166
 2273TIP3    H128234   2.428   6.460  14.324 -1.1994  1.6295  0.6165
 2273TIP3    H228235   2.528   6.376  14.400  1.2179  1.7584 -2.2402
 2274TIP3   OH228236   0.406   0.171  16.705  0.0037 -0.8560 -0.7901
 2274TIP3    H128237   0.399   0.185  16.610 -0.2191  0.2618 -0.6209
 2274TIP3    H228238   0.470   0.101  16.714 -0.2864 -1.2740 -1.7895
 2275TIP3   OH228239   0.193   1.812   4.814 -0.2221 -0.7528 -0.3207
 2275TIP3    H128240   0.118   1.868   4.832  0.5055  0.0856  0.1372
 2275TIP3    H228241   0.261   1.843   4.873  0.4237 -1.6478 -0.5768
 2276TIP3   OH228242   6.725   4.716   4.034  0.1017  0.2517 -0.0202
 2276TIP3    H128243   6.640   4.758   4.047  0.3332  0.7676 -0.1471
 2276TIP3    H228244   6.773   4.731   4.115  1.1902  2.6372 -0.9897
 2277TIP3   OH228245   1.661   0.929  15.361  0.2308 -0.5260 -0.3172
 2277TIP3    H128246   1.635   0.991  15.430 -0.2460  1.5622 -2.2303
 2277TIP3    H228247   1.688   0.985  15.288  0.7751 -2.6310 -1.8216
 2278TIP3   OH228248   2.449   1.557   0.621 -0.3059  0.2870 -0.6304
 2278TIP3    H128249   2.509   1.630   0.636 -0.5337  0.3258  0.1435
 2278TIP3    H228250   2.390   1.558   0.697 -0.0112 -0.9965 -0.3592
 2279TIP3   OH228251   5.239   3.515   2.317 -0.0470 -0.5941  0.3485
 2279TIP3    H128252   5.228   3.441   2.257 -1.3417 -1.3111  1.4247
 2279TIP3    H228253   5.208   3.483   2.401 -1.1795  1.3305  0.7320
 2280TIP3   OH228254   2.768   0.395  17.143  0.2987 -0.1831 -0.3242
 2280TIP3    H128255   2.693   0.452  17.158  1.3602  0.9575  0.8420
 2280TIP3    H228256   2.745   0.345  17.065 -1.0041  1.2480 -0.8977
 2281TIP3   OH228257   0.343   5.675  11.596 -0.1819 -0.3335  0.2324
 2281TIP3    H128258   0.405   5.645  11.663  0.3301  0.0824 -0.0453
 2281TIP3    H228259   0.331   5.768  11.616 -2.3187 -0.8172  1.5434
 2282TIP3   OH228260   2.841   6.612   3.949 -0.3620 -0.1297 -0.3044
 2282TIP3    H128261   2.801   6.543   4.001 -0.7878  0.5622  0.3118
 2282TIP3    H228262   2.766   6.660   3.912 -0.2523  2.0946  2.0513
 2283TIP3   OH228263   1.011   5.228  11.830 -0.6079  0.1051 -0.2813
 2283TIP3    H128264   1.044   5.210  11.918 -1.3139  0.1037 -0.0073
 2283TIP3    H228265   0.972   5.316  11.837 -1.1904 -0.1358 -0.4325
 2284TIP3   OH228266   2.069   5.492  11.670  0.2008  0.6482  0.0805
 2284TIP3    H128267   2.158   5.481  11.636  0.7914  2.5980  0.8693
 2284TIP3    H228268   2.035   5.403  11.676  1.8941 -0.1066 -0.7625
 2285TIP3   OH228269   6.370   2.317   3.179  0.6375  0.4150 -0.4121
 2285TIP3    H128270   6.377   2.266   3.260 -0.4441  0.4864 -0.2547
 2285TIP3    H228271   6.405   2.403   3.201  0.7226  0.3085 -0.1302
 2286TIP3   OH228272   2.375   3.310  15.548  0.2188 -0.1723 -0.0879
 2286TIP3    H128273   2.330   3.326  15.631 -0.3423  1.1957 -0.6264
 2286TIP3    H228274   2.327   3.237  15.508  1.1335 -1.5520  1.2174
 2287TIP3   OH228275   2.568   4.809  13.781  0.3600  0.1119 -0.1884
 2287TIP3    H128276   2.513   4.763  13.718 -1.4020 -0.1333  1.4479
 2287TIP3    H228277   2.641   4.750  13.797 -0.1416 -0.6347 -0.6030
 2288TIP3   OH228278   3.135   4.247   6.284  0.1582  0.3622  0.0346
 2288TIP3    H128279   3.126   4.204   6.369  1.2089 -0.2023 -0.1254
 2288TIP3    H228280   3.213   4.301   6.291 -1.1467  2.3391  0.2290
 2289TIP3   OH228281   1.046   0.194   5.782  0.0012 -0.0542  0.5983
 2289TIP3    H128282   0.970   0.224   5.733 -1.4602 -1.2068  2.0544
 2289TIP3    H228283   1.023   0.208   5.874  1.6091 -0.3281  1.0841
 2290TIP3   OH228284   5.818   5.971  12.265  0.3485  0.2963 -0.4369
 2290TIP3    H128285   5.843   6.062  12.283  0.4493  0.0772  0.6064
 2290TIP3    H228286   5.791   5.971  12.173 -1.3446  1.7626  0.0092
 2291TIP3   OH228287   4.164   0.933  16.674  0.3852  0.2118  0.3164
 2291TIP3    H128288   4.106   0.958  16.602  1.4900 -0.6561 -0.9151
 2291TIP3    H228289   4.168   0.838  16.669  2.6931  0.2893 -0.2831
 2292TIP3   OH228290   3.625   4.405   2.996 -0.4427  0.2939 -0.7126
 2292TIP3    H128291   3.678   4.386   2.919 -0.5032  0.7817 -0.8782
 2292TIP3    H228292   3.686   4.397   3.069 -0.1267  0.8718 -0.9017
 2293TIP3   OH228293   5.495   0.252  14.030 -0.1351 -0.0230  0.4509
 2293TIP3    H128294   5.403   0.257  14.054  0.1008  0.8196  1.2284
 2293TIP3    H228295   5.537   0.205  14.102  0.4126  1.6577  1.2754
 2294TIP3   OH228296   4.994   2.576   6.330  0.0152  0.1662  0.0847
 2294TIP3    H128297   4.961   2.556   6.418  0.6406 -0.9500  0.0933
 2294TIP3    H228298   5.085   2.602   6.344 -0.1569  0.9119 -0.1531
 2295TIP3   OH228299   0.284   6.357   6.075 -0.2208 -0.1679 -0.3295
 2295TIP3    H128300   0.366   6.358   6.026 -0.0991  0.1463 -0.1244
 2295TIP3    H228301   0.291   6.280   6.132 -0.1014 -0.1897 -0.3734
 2296TIP3   OH228302   3.574   2.762   4.174 -0.4726 -0.2815  0.4831
 2296TIP3    H128303   3.585   2.846   4.130 -0.4279  1.1200  2.9907
 2296TIP3    H228304   3.663   2.730   4.189 -0.4721 -0.4751  0.0634
 2297TIP3   OH228305   0.471   5.201   2.663 -0.1855 -0.7291  0.7928
 2297TIP3    H128306   0.422   5.134   2.615  1.2543 -1.9414  0.9334
 2297TIP3    H228307   0.562   5.171   2.660  1.1542  2.8791 -1.9856
 2298TIP3   OH228308   4.067   5.863  11.005 -0.0545  0.5260  0.7492
 2298TIP3    H128309   4.035   5.811  10.931  1.1346  0.8073 -0.0025
 2298TIP3    H228310   4.155   5.829  11.021 -0.9395 -0.7615  3.2615
 2299TIP3   OH228311   3.322   2.132  12.769  0.2035  0.3923  0.3637
 2299TIP3    H128312   3.239   2.151  12.726  0.2842  2.0250  0.8632
 2299TIP3    H228313   3.303   2.059  12.828 -0.5937  0.0181 -0.3448
 2300TIP3   OH228314   3.365   5.086   5.168  0.1791  0.1514 -0.4458
 2300TIP3    H128315   3.407   5.002   5.185 -0.5982 -0.7679 -2.8352
 2300TIP3    H228316   3.438   5.148   5.164  0.8634 -0.5931  0.1597
 2301TIP3   OH228317   0.820   0.029   0.870 -0.2506 -0.4886  0.7635
 2301TIP3    H128318   0.731   0.021   0.904 -0.1402 -0.5303  1.0373
 2301TIP3    H228319   0.869  -0.041   0.911  0.9813  2.0290  4.0035
 2302TIP3   OH228320   0.153   2.955   4.437  0.2464  0.5089  0.2814
 2302TIP3    H128321   0.245   2.967   4.414  0.2953  1.3849  0.9040
 2302TIP3    H228322   0.155   2.923   4.527 -0.0610  0.6269  0.3314
 2303TIP3   OH228323   0.612   5.516  13.494 -0.4096  0.0342  0.2246
 2303TIP3    H128324   0.602   5.455  13.567 -2.5658  1.9868  1.7005
 2303TIP3    H228325   0.523   5.536  13.467  0.2949  0.9921 -1.5661
 2304TIP3   OH228326   3.071   4.827   0.346  0.2432  0.0360  0.3704
 2304TIP3    H128327   3.123   4.802   0.270 -0.8651  0.9915 -0.7401
 2304TIP3    H228328   3.135   4.842   0.415  1.3987  0.6514 -0.7963
 2305TIP3   OH228329   2.674   2.075   2.896  0.1512  0.0566  0.0428
 2305TIP3    H128330   2.635   2.161   2.881  0.5569  0.4903  1.3355
 2305TIP3    H228331   2.758   2.093   2.938  0.5001 -0.9574 -0.1850
 2306TIP3   OH228332   5.450   3.132  15.962  0.7438 -0.0986 -0.1182
 2306TIP3    H128333   5.410   3.182  15.891  0.6145  0.3652  0.2719
 2306TIP3    H228334   5.444   3.040  15.934  0.1033  0.0278 -0.4117
 2307TIP3   OH228335   0.771   2.950   1.563 -0.1550 -0.2571  0.6408
 2307TIP3    H128336   0.683   2.958   1.527 -0.3457 -0.7747  0.9942
 2307TIP3    H228337   0.827   2.944   1.485 -0.1986  2.1036  0.3542
 2308TIP3   OH228338   2.950   2.816  10.696 -0.5623 -0.3231 -0.1989
 2308TIP3    H128339   2.937   2.767  10.778  0.8018 -0.7211 -0.1988
 2308TIP3    H228340   2.931   2.906  10.720  0.3960 -0.3453  0.7270
 2309TIP3   OH228341   0.140   5.119  12.155 -0.4207  0.0797 -0.3102
 2309TIP3    H128342   0.133   5.167  12.238 -0.6830  0.0236 -0.2974
 2309TIP3    H228343   0.118   5.028  12.178 -0.4422  0.0535 -0.4308
 2310TIP3   OH228344   4.977   2.216  15.957  0.4604 -0.0028  0.1259
 2310TIP3    H128345   4.933   2.280  15.901  0.4527 -0.8133 -0.8043
 2310TIP3    H228346   4.909   2.186  16.017 -0.6992 -2.2073 -2.1235
 2311TIP3   OH228347   1.821   2.697  10.932  0.6082  0.2123  0.1855
 2311TIP3    H128348   1.869   2.677  10.852 -1.9690 -1.0746 -1.1880
 2311TIP3    H228349   1.814   2.793  10.933  0.8923  0.2526 -1.0090
 2312TIP3   OH228350   4.759   0.630  12.953  0.1214  0.7370 -0.3271
 2312TIP3    H128351   4.818   0.688  13.002  2.3321 -1.4269 -0.2170
 2312TIP3    H228352   4.756   0.668  12.865 -0.6703  2.4336  0.3709
 2313TIP3   OH228353   4.310   6.604   5.316  0.0211  0.1642 -0.1170
 2313TIP3    H128354   4.336   6.672   5.254  1.0511 -0.6296 -0.5957
 2313TIP3    H228355   4.277   6.652   5.392  0.5863  1.1851 -0.4940
 2314TIP3   OH228356   3.170   5.694   0.638  0.7623 -0.1640 -0.1429
 2314TIP3    H128357   3.086   5.650   0.638  1.2432 -1.1556 -1.5799
 2314TIP3    H228358   3.170   5.747   0.718 -0.6220 -1.2535  0.6116
 2315TIP3   OH228359   5.240   2.914  13.957 -0.1532 -0.2960  0.1067
 2315TIP3    H128360   5.199   2.992  13.919 -0.3984 -0.3355  0.2909
 2315TIP3    H228361   5.255   2.856  13.882  0.7443  0.2394 -0.1540
 2316TIP3   OH228362   1.114   0.899   6.271 -0.6159 -0.3066  0.1440
 2316TIP3    H128363   1.044   0.877   6.333  0.3732 -0.2275  1.3218
 2316TIP3    H228364   1.190   0.849   6.301 -0.1003 -0.2405 -0.9913
 2317TIP3   OH228365   5.200   4.914  11.555  0.6342  0.2536  0.7069
 2317TIP3    H128366   5.242   4.848  11.609  0.0510 -1.0632 -0.3958
 2317TIP3    H228367   5.108   4.912  11.581  0.1515 -1.0581 -0.8838
 2318TIP3   OH228368   5.238   1.667  12.954 -0.1230  0.0982 -0.1447
 2318TIP3    H128369   5.308   1.692  13.014 -0.5166  0.9587 -0.0322
 2318TIP3    H228370   5.158   1.698  12.995 -0.4498  0.2417 -0.8683
 2319TIP3   OH228371   4.423   3.149  13.115  0.0991 -0.4788  0.8216
 2319TIP3    H128372   4.369   3.223  13.145 -1.2623 -1.0957  0.0058
 2319TIP3    H228373   4.456   3.177  13.030 -1.5750 -1.3009 -0.1490
 2320TIP3   OH228374   0.876   4.642   3.289 -0.2562 -0.7608 -0.4896
 2320TIP3    H128375   0.966   4.644   3.321  0.4873  1.9471 -2.4033
 2320TIP3    H228376   0.827   4.699   3.349 -0.1060 -0.2045 -0.8856
 2321TIP3   OH228377   1.299   0.854  12.948  0.0217  0.0660  0.0744
 2321TIP3    H128378   1.382   0.875  12.905 -0.6065  1.4440 -0.5508
 2321TIP3    H228379   1.291   0.759  12.941  1.8282 -0.1604  0.7091
 2322TIP3   OH228380   6.360   5.906  13.896 -0.2866 -0.3745 -0.1047
 2322TIP3    H128381   6.300   5.839  13.930 -1.7062  0.6142 -0.5702
 2322TIP3    H228382   6.306   5.961  13.839  1.5350 -0.6530 -2.2402
 2323TIP3   OH228383   3.374   1.541  13.772 -0.0294 -0.2764  0.6114
 2323TIP3    H128384   3.385   1.547  13.867 -1.1382 -0.1222  0.7534
 2323TIP3    H228385   3.420   1.617  13.737 -1.0142  0.6122  1.1753
 2324TIP3   OH228386   4.071   2.248  11.549 -0.0414 -0.2477 -0.0565
 2324TIP3    H128387   4.152   2.204  11.573 -1.3148 -3.0825 -0.5622
 2324TIP3    H228388   4.084   2.273  11.457  0.2992 -0.6695 -0.1300
 2325TIP3   OH228389   3.570   6.760   2.317  0.2156  0.6867  0.5772
 2325TIP3    H128390   3.545   6.735   2.406  0.3530  0.8776  0.6715
 2325TIP3    H228391   3.664   6.780   2.324  0.0327  1.5879  0.5914
 2326TIP3   OH228392   0.558   0.335   0.632 -0.3232 -0.0226  0.3365
 2326TIP3    H128393   0.632   0.355   0.689 -0.9854 -0.1433  1.2583
 2326TIP3    H228394   0.491   0.299   0.691 -0.3172 -2.0479 -0.8128
 2327TIP3   OH228395   1.398   5.223  12.211  0.2973  0.3296  1.0929
 2327TIP3    H128396   1.479   5.195  12.255  0.0122 -0.3727  1.1926
 2327TIP3    H228397   1.416   5.212  12.118 -0.1655 -1.2639  1.1614
 2328TIP3   OH228398   3.746   3.648   3.142  0.2833  0.0294 -0.4024
 2328TIP3    H128399   3.750   3.627   3.235 -0.2822 -1.9662 -0.7955
 2328TIP3    H228400   3.837   3.669   3.118  0.7156 -1.0018  0.2662
 2329TIP3   OH228401   2.194   0.024   2.820  1.4289 -0.0692 -0.7213
 2329TIP3    H128402   2.259   0.077   2.773  2.6225 -0.4668  0.3967
 2329TIP3    H228403   2.244  -0.052   2.852  0.2679 -0.6945 -0.3437
 2330TIP3   OH228404   3.424   0.403  16.177 -0.2025  0.0624  0.3455
 2330TIP3    H128405   3.389   0.330  16.126 -2.0416  0.8330  0.4532
 2330TIP3    H228406   3.416   0.479  16.120  0.3261  0.4457  0.7659
 2331TIP3   OH228407   3.559   1.908   0.255 -0.1095 -0.0674  0.7919
 2331TIP3    H128408   3.488   1.857   0.216 -1.2532  0.1797  2.4612
 2331TIP3    H228409   3.601   1.951   0.180 -1.1338 -0.9182 -0.3234
 2332TIP3   OH228410   2.969   0.565   4.723  0.1021  0.0673 -0.4854
 2332TIP3    H128411   2.987   0.648   4.768  1.1244 -0.2479 -0.2760
 2332TIP3    H228412   2.906   0.520   4.779  0.1424  0.3687 -0.1965
 2333TIP3   OH228413   2.666   1.752  13.976 -0.3418 -0.2573 -0.3728
 2333TIP3    H128414   2.623   1.676  13.938  2.2766 -2.0063 -0.1221
 2333TIP3    H228415   2.742   1.766  13.919 -0.1472  1.4819  0.2634
 2334TIP3   OH228416   0.052   3.740  10.741 -0.4855  0.0283 -0.2130
 2334TIP3    H128417  -0.025   3.786  10.707  0.0212  2.1229  1.3240
 2334TIP3    H228418   0.048   3.751  10.836  0.2383 -2.2868  0.1660
 2335TIP3   OH228419   0.209   6.709   5.905 -0.0722 -0.0363 -0.2347
 2335TIP3    H128420   0.203   6.776   5.837  0.9667 -0.2623 -0.5789
 2335TIP3    H228421   0.219   6.626   5.856  0.6146 -0.2051  0.1765
 2336TIP3   OH228422   3.012   0.098   3.626  0.5643  0.4674 -0.4683
 2336TIP3    H128423   3.021   0.172   3.686 -1.3037 -0.7992  1.4689
 2336TIP3    H228424   2.919   0.075   3.629  1.1536 -2.2459 -0.6630
 2337TIP3   OH228425   0.887   6.669   4.495  0.0897 -0.9272 -0.3397
 2337TIP3    H128426   0.963   6.627   4.457  0.4382 -0.1280 -0.5367
 2337TIP3    H228427   0.872   6.621   4.577 -0.8545 -2.8670 -1.5543
 2338TIP3   OH228428   3.912   1.032   5.331 -0.0210  0.0835 -0.0811
 2338TIP3    H128429   3.902   0.938   5.340 -0.4463  0.0600 -0.7242
 2338TIP3    H228430   3.931   1.045   5.238 -0.0220  0.6356 -0.0072
 2339TIP3   OH228431   2.695   5.037  11.671 -0.1233 -0.7151  0.0350
 2339TIP3    H128432   2.624   5.047  11.733  0.4163 -1.6188  0.8193
 2339TIP3    H228433   2.757   4.978  11.714  1.9528  1.3787  0.1341
 2340TIP3   OH228434   3.337   4.419   2.097 -0.9297  0.7680  0.0148
 2340TIP3    H128435   3.325   4.418   2.002 -0.3804  0.8819 -0.0576
 2340TIP3    H228436   3.336   4.511   2.121 -1.7391  0.7152  0.2125
 2341TIP3   OH228437   4.658   3.400   2.363  0.8145  0.2139 -0.9140
 2341TIP3    H128438   4.565   3.417   2.377  0.6118  0.8387 -2.7614
 2341TIP3    H228439   4.670   3.409   2.268  2.2810 -2.2659 -1.0548
 2342TIP3   OH228440   1.561   4.313  15.460 -0.3656  0.0397  0.0076
 2342TIP3    H128441   1.647   4.287  15.430 -1.0643 -0.9622 -1.2012
 2342TIP3    H228442   1.545   4.397  15.417  0.0728  0.3441  0.4176
 2343TIP3   OH228443   0.047   1.268  15.753 -0.1555  0.1194 -0.6754
 2343TIP3    H128444   0.102   1.192  15.772 -0.2499  0.4937  1.3175
 2343TIP3    H228445   0.101   1.323  15.696  1.5266  0.3792  1.0545
 2344TIP3   OH228446   3.457   5.046   3.632  0.2573 -0.3982  0.6856
 2344TIP3    H128447   3.413   4.966   3.662  1.0882 -0.8072  0.8478
 2344TIP3    H228448   3.524   5.015   3.571 -1.2398  0.4083 -1.4552
 2345TIP3   OH228449   6.307   1.938   0.628  0.4475 -0.6925 -0.3476
 2345TIP3    H128450   6.277   1.906   0.714 -1.1303 -0.0807 -0.6283
 2345TIP3    H228451   6.370   2.006   0.649 -1.3947  0.8800  0.4353
 2346TIP3   OH228452   0.268   1.116   0.804 -0.2155  0.6349 -0.3957
 2346TIP3    H128453   0.357   1.085   0.787  0.6499  3.2345 -0.9913
 2346TIP3    H228454   0.279   1.189   0.865 -2.0257  0.4973  0.1381
 2347TIP3   OH228455   3.839   2.254  12.998 -0.4166 -0.0708  0.6067
 2347TIP3    H128456   3.880   2.193  12.937 -2.1889  1.3856 -2.3051
 2347TIP3    H228457   3.746   2.230  12.996 -0.9688  1.9227  0.2678
 2348TIP3   OH228458   6.631   0.208  14.080  0.2904 -0.0043 -0.3424
 2348TIP3    H128459   6.548   0.254  14.080  1.3196  1.9569 -0.4567
 2348TIP3    H228460   6.684   0.251  14.013  1.8678 -0.2591  0.6582
 2349TIP3   OH228461   1.602   0.667  12.924 -0.5260  0.0297  0.2518
 2349TIP3    H128462   1.627   0.610  12.852  0.2972 -0.1880  0.7032
 2349TIP3    H228463   1.509   0.649  12.937  0.0743 -2.7031  1.6467
 2350TIP3   OH228464   4.554   4.801   6.164 -0.5160  0.1955 -0.0507
 2350TIP3    H128465   4.597   4.717   6.180  1.4970  0.3360 -3.7246
 2350TIP3    H228466   4.610   4.866   6.206  1.4236  0.1102 -2.3221
 2351TIP3   OH228467   2.178   1.317   0.042 -0.6143 -0.1750  0.1070
 2351TIP3    H128468   2.086   1.326   0.016 -0.2497 -0.8206 -1.5248
 2351TIP3    H228469   2.197   1.398   0.090 -2.1365 -0.2253  0.8704
 2352TIP3   OH228470   2.394   0.482   0.163 -0.0957 -0.0992 -0.4722
 2352TIP3    H128471   2.447   0.555   0.193  0.3484 -0.1841 -1.0325
 2352TIP3    H228472   2.423   0.467   0.072  0.5680 -1.6466 -0.0366
 2353TIP3   OH228473   1.530   3.514   2.015  0.2008 -0.1180  0.6214
 2353TIP3    H128474   1.440   3.546   2.021 -0.5199 -1.9876  0.3389
 2353TIP3    H228475   1.565   3.555   1.935 -0.8707 -0.4699 -0.0406
 2354TIP3   OH228476   1.318   4.589  14.504 -0.0103  0.1703  0.0515
 2354TIP3    H128477   1.368   4.659  14.547  0.4736 -1.6801  2.7992
 2354TIP3    H228478   1.383   4.542  14.453  0.3946 -0.2533  0.9352
 2355TIP3   OH228479   4.028   4.799  11.824  0.2262 -0.2084 -0.1602
 2355TIP3    H128480   4.110   4.749  11.830  0.4618  0.0893 -0.8755
 2355TIP3    H228481   3.978   4.771  11.902 -0.2620 -2.6670 -1.2442
 2356TIP3   OH228482   4.755   0.488  17.233 -0.2461  0.3038  0.2806
 2356TIP3    H128483   4.751   0.514  17.325  0.4061 -1.2262  0.7582
 2356TIP3    H228484   4.692   0.546  17.189 -0.7363  0.8923  1.7158
 2357TIP3   OH228485   5.747   1.012   0.893 -0.1976 -0.2198 -0.3820
 2357TIP3    H128486   5.818   1.051   0.944 -2.6431  2.6535  1.1079
 2357TIP3    H228487   5.761   1.044   0.803  1.5916 -1.6267 -0.6721
 2358TIP3   OH228488   3.207   3.204  12.928  0.1994  0.5729  0.0200
 2358TIP3    H128489   3.224   3.135  12.993  1.7088  0.5053 -0.4247
 2358TIP3    H228490   3.176   3.278  12.980 -2.4259 -0.6825  0.4392
 2359TIP3   OH228491   3.257   3.998  15.602 -0.6202 -0.3678  0.1629
 2359TIP3    H128492   3.199   3.979  15.675 -1.2835 -0.6965 -0.4382
 2359TIP3    H228493   3.200   4.035  15.535 -0.1892 -0.9383 -0.5334
 2360TIP3   OH228494   0.353   3.112  16.750  0.0597 -0.1107  0.0141
 2360TIP3    H128495   0.287   3.047  16.776  1.1169 -0.0160  3.4474
 2360TIP3    H228496   0.434   3.062  16.744  0.3052  0.3579 -0.6619
 2361TIP3   OH228497   2.506   6.619   2.188 -0.6199 -0.6393 -0.5042
 2361TIP3    H128498   2.496   6.555   2.118  0.7737 -1.5329  0.0656
 2361TIP3    H228499   2.582   6.671   2.162 -1.4306  0.4681 -0.7092
 2362TIP3   OH228500   0.392   6.106   0.953  0.1777 -0.3494  0.0366
 2362TIP3    H128501   0.395   6.072   0.863 -1.4225 -0.7225  0.0985
 2362TIP3    H228502   0.303   6.140   0.963  0.6267  0.5810  1.1834
 2363TIP3   OH228503   1.296   5.865  12.244  0.3839  0.5573 -0.7130
 2363TIP3    H128504   1.337   5.947  12.269  2.3191 -0.5076 -0.2401
 2363TIP3    H228505   1.326   5.801  12.308 -1.0637 -0.5619 -1.0661
 2364TIP3   OH228506   3.929   5.921   0.958  0.4027 -0.0626  0.3387
 2364TIP3    H128507   4.022   5.934   0.976  0.5838 -0.4946 -0.2408
 2364TIP3    H228508   3.925   5.835   0.915 -0.1743  0.2601 -0.2741
 2365TIP3   OH228509   3.705   0.175  11.375  0.4599  0.0579  0.3271
 2365TIP3    H128510   3.734   0.260  11.407 -3.4785  2.1466 -0.9172
 2365TIP3    H228511   3.639   0.196  11.309  0.1838 -4.0240 -0.9780
 2366TIP3   OH228512   4.212   5.589  13.571  0.3938 -0.3389  0.2751
 2366TIP3    H128513   4.302   5.611  13.595 -0.4287  2.8401  0.9832
 2366TIP3    H228514   4.195   5.506  13.614  1.9981  0.5870  2.9337
 2367TIP3   OH228515   2.519   5.862   1.179  0.2922  0.3806  0.3829
 2367TIP3    H128516   2.499   5.953   1.202 -0.5151  0.3498 -0.1593
 2367TIP3    H228517   2.454   5.839   1.112  0.5723 -0.5529  0.4150
 2368TIP3   OH228518   4.336   0.568  13.387 -0.3776 -0.1571 -0.1291
 2368TIP3    H128519   4.428   0.568  13.414  0.3100 -1.4225 -2.1751
 2368TIP3    H228520   4.309   0.660  13.392 -0.2532 -0.1626  4.0874
 2369TIP3   OH228521   2.585   4.841   6.093  0.3748 -0.0125  0.1964
 2369TIP3    H128522   2.598   4.922   6.143 -1.4413  0.5359 -0.1542
 2369TIP3    H228523   2.648   4.780   6.131  0.9091  1.1868  1.3338
 2370TIP3   OH228524   5.096   4.998  11.893 -0.2567 -0.2001  0.2902
 2370TIP3    H128525   5.030   5.067  11.887 -0.2691 -0.3393 -2.1284
 2370TIP3    H228526   5.052   4.925  11.936 -0.2601  1.2061  2.8307
 2371TIP3   OH228527   6.282   1.686  13.333 -0.3844  0.1313  0.3873
 2371TIP3    H128528   6.308   1.613  13.277  0.4544  0.2953  0.5387
 2371TIP3    H228529   6.315   1.663  13.420 -0.2193  0.6287  0.4608
 2372TIP3   OH228530   6.249   2.723   2.673 -0.4323 -0.5349 -0.2013
 2372TIP3    H128531   6.247   2.659   2.744 -0.0286  0.6208  0.8902
 2372TIP3    H228532   6.334   2.766   2.681 -1.3053  1.2190  0.1146
 2373TIP3   OH228533   6.488   1.144   5.989 -0.0235 -0.1397  0.3656
 2373TIP3    H128534   6.430   1.099   6.051  0.5740 -0.8192  0.4424
 2373TIP3    H228535   6.523   1.218   6.040 -1.2883  0.6585  0.1259
 2374TIP3   OH228536   0.578   5.525  16.291  0.0188 -0.5222  0.0309
 2374TIP3    H128537   0.531   5.487  16.217  0.0424  0.4630 -0.5009
 2374TIP3    H228538   0.509   5.551  16.352 -0.0322 -0.7103  0.0544
 2375TIP3   OH228539   2.984   3.167   5.393  0.4008 -0.2324 -0.1889
 2375TIP3    H128540   3.038   3.097   5.355  1.1772 -0.7170  1.7250
 2375TIP3    H228541   3.046   3.223   5.440 -0.7462 -1.2933  2.8208
 2376TIP3   OH228542   4.776   2.040   3.734 -0.3988 -0.3608  0.1838
 2376TIP3    H128543   4.726   2.119   3.713 -0.6132 -0.1075  1.5730
 2376TIP3    H228544   4.715   1.985   3.785  0.0804 -0.9599  0.1293
 2377TIP3   OH228545   1.753   5.895  12.870 -0.2980  0.1162 -0.2202
 2377TIP3    H128546   1.748   5.940  12.785 -0.3040 -1.9015 -1.3448
 2377TIP3    H228547   1.685   5.937  12.923 -0.4025  1.3157 -1.2561
 2378TIP3   OH228548   1.760   0.704  14.970  0.0757  0.2420 -0.2874
 2378TIP3    H128549   1.735   0.797  14.978  0.0174  0.0988  1.5797
 2378TIP3    H228550   1.690   0.657  15.015  1.1852 -0.5377  0.6625
 2379TIP3   OH228551   4.522   1.949  16.841 -1.0336 -0.2855  0.0801
 2379TIP3    H128552   4.584   2.020  16.823 -0.7171 -0.4525  0.4748
 2379TIP3    H228553   4.565   1.898  16.910 -1.0974 -1.0603 -0.4415
 2380TIP3   OH228554   5.718   1.005   1.600 -0.4946  0.8819 -0.1599
 2380TIP3    H128555   5.631   1.036   1.626 -1.5927 -1.6934 -0.4048
 2380TIP3    H228556   5.715   1.003   1.505 -0.1759  0.7533 -0.1665
 2381TIP3   OH228557   2.852   1.087   4.772 -0.1247 -0.3305 -0.2694
 2381TIP3    H128558   2.861   1.013   4.713  0.1507 -1.2295  0.8648
 2381TIP3    H228559   2.758   1.096   4.785 -0.1740 -0.2763 -0.6613
 2382TIP3   OH228560   2.922   6.568  17.155  0.2892 -0.1899 -0.2944
 2382TIP3    H128561   2.891   6.589  17.067  0.7112 -0.4525 -0.5040
 2382TIP3    H228562   2.885   6.482  17.175 -1.7793  0.8501  0.7284
 2383TIP3   OH228563   6.382   2.280  14.740  0.0213 -1.1996  0.2716
 2383TIP3    H128564   6.422   2.280  14.827 -0.6052 -4.4987  0.7022
 2383TIP3    H228565   6.401   2.367  14.705  1.5853 -0.2599  3.0925
 2384TIP3   OH228566   0.044   0.391   0.641  0.2089  0.6353  0.1945
 2384TIP3    H128567   0.060   0.461   0.704  2.4546 -1.3748  2.0719
 2384TIP3    H228568   0.004   0.321   0.693  4.5004 -2.1022  0.3032
 2385TIP3   OH228569   6.656   5.419   4.379 -0.1989 -0.4199 -0.4846
 2385TIP3    H128570   6.640   5.337   4.425  0.2023 -1.3846 -1.9820
 2385TIP3    H228571   6.619   5.405   4.292  0.3933  0.7781 -0.9508
 2386TIP3   OH228572   3.701   4.003  11.611 -0.7951 -0.4265 -0.4722
 2386TIP3    H128573   3.756   4.056  11.553  0.0030  0.2768  0.8893
 2386TIP3    H228574   3.745   3.918  11.616  0.6172  0.3556  1.1743
 2387TIP3   OH228575   0.273   2.556   2.387  0.2722  0.0156  0.0737
 2387TIP3    H128576   0.336   2.549   2.458  1.9296 -0.3121 -1.3460
 2387TIP3    H228577   0.309   2.501   2.317 -1.5240 -0.0647 -0.8743
 2388TIP3   OH228578   3.054   5.650  12.244  0.0385  0.6828 -0.1885
 2388TIP3    H128579   3.121   5.602  12.196  0.7724  2.2488 -0.7736
 2388TIP3    H228580   3.026   5.589  12.313  0.2964 -0.8993 -1.4330
 2389TIP3   OH228581   3.050   4.344   1.831  0.1067 -0.0685 -0.5752
 2389TIP3    H128582   3.144   4.355   1.817 -0.0331 -0.7937 -2.2534
 2389TIP3    H228583   3.044   4.267   1.888  0.5464  0.5520  0.3349
 2390TIP3   OH228584   6.169   0.726  15.181  0.0831 -0.8234  0.1598
 2390TIP3    H128585   6.147   0.747  15.272  0.7671 -1.0228  0.3816
 2390TIP3    H228586   6.265   0.721  15.181  0.1497  0.2509 -0.8154
 2391TIP3   OH228587   3.696   0.534   1.324  0.1890  0.5906  0.4744
 2391TIP3    H128588   3.604   0.537   1.301 -0.0095 -0.8706  0.9912
 2391TIP3    H228589   3.715   0.622   1.359 -0.6626  1.3085 -0.7758
 2392TIP3   OH228590   0.332   2.456  17.199 -0.3913  0.4677 -0.1941
 2392TIP3    H128591   0.375   2.433  17.281 -0.7058  0.7345  0.0475
 2392TIP3    H228592   0.382   2.530  17.166 -0.1224  0.2149 -0.3629
 2393TIP3   OH228593   4.375   4.285  11.105 -0.2266 -0.7091  0.3947
 2393TIP3    H128594   4.415   4.216  11.051  0.4430  0.6352 -0.9043
 2393TIP3    H228595   4.391   4.257  11.195  0.9737 -1.7168 -0.0959
 2394TIP3   OH228596   0.327   5.475   5.248 -0.0294  0.0506 -0.2505
 2394TIP3    H128597   0.251   5.495   5.303  0.6190  0.6508  0.4475
 2394TIP3    H228598   0.328   5.380   5.243  0.4574 -0.0785  1.6158
 2395TIP3   OH228599   4.679   2.182  12.646 -0.3829 -0.0095  0.3658
 2395TIP3    H128600   4.702   2.094  12.677 -3.2913 -1.6645 -1.6234
 2395TIP3    H228601   4.696   2.179  12.552 -0.0074  1.7922  0.3465
 2396TIP3   OH228602   3.557   3.299   1.530  0.5559  0.3482 -0.6352
 2396TIP3    H128603   3.519   3.289   1.617 -0.7449  2.9960 -0.7989
 2396TIP3    H228604   3.559   3.393   1.515  4.0716  0.1861 -2.1153
 2397TIP3   OH228605   2.645   4.283  10.917  0.2450 -0.0759 -0.3760
 2397TIP3    H128606   2.613   4.345  10.851 -0.8489  0.7204  0.8340
 2397TIP3    H228607   2.740   4.294  10.916  0.0708  2.2464  0.2889
 2398TIP3   OH228608   0.416   4.637  11.340 -0.3923 -0.4421  0.6020
 2398TIP3    H128609   0.418   4.688  11.421  1.8135 -0.7659  0.7993
 2398TIP3    H228610   0.387   4.700  11.273 -0.6231  0.2575  1.3385
 2399TIP3   OH228611   6.486   1.611   5.642  0.3786  0.0942 -0.2188
 2399TIP3    H128612   6.420   1.578   5.580  1.3965  0.5743 -1.5892
 2399TIP3    H228613   6.451   1.587   5.728 -0.3867 -1.8672 -1.0180
 2400TIP3   OH228614   3.760   2.407   1.382  0.0259 -0.2528  0.0423
 2400TIP3    H128615   3.687   2.423   1.322  0.2778 -0.4533 -0.3182
 2400TIP3    H228616   3.832   2.379   1.326  0.7664  1.1319  0.2468
 2401TIP3   OH228617   5.761   5.670   5.484  0.3182 -0.1013 -0.0144
 2401TIP3    H128618   5.845   5.655   5.527  0.4986 -1.1087 -0.6727
 2401TIP3    H228619   5.741   5.762   5.500  1.0882 -0.0854  0.9426
 2402TIP3   OH228620   4.631   0.835  11.670  0.1877  0.7702 -0.8256
 2402TIP3    H128621   4.631   0.910  11.730 -1.3080 -0.8859  1.4142
 2402TIP3    H228622   4.539   0.822  11.648  0.5365  0.1846 -1.9784
 2403TIP3   OH228623   4.261   5.827  16.438  0.2450 -0.4228  0.6134
 2403TIP3    H128624   4.315   5.791  16.368 -0.1094 -0.1158  0.1740
 2403TIP3    H228625   4.208   5.895  16.395 -0.3014 -0.5389  1.0859
 2404TIP3   OH228626   4.888   4.979  13.880 -0.1259 -0.1199 -0.3047
 2404TIP3    H128627   4.864   5.069  13.903 -3.0350 -0.4654 -1.5346
 2404TIP3    H228628   4.977   4.986  13.844 -0.4736  2.3488 -0.8492
 2405TIP3   OH228629   3.342   0.890  15.627  0.3596  0.2647  0.2047
 2405TIP3    H128630   3.315   0.905  15.537  0.4440 -1.8548 -0.2281
 2405TIP3    H228631   3.436   0.872  15.622  0.3102 -0.1612  0.6693
 2406TIP3   OH228632   0.428   2.061  17.052 -0.0564 -0.2818  0.2800
 2406TIP3    H128633   0.492   2.101  16.992  0.7642 -1.1604  0.5441
 2406TIP3    H228634   0.346   2.065  17.004  0.3234  0.2369 -0.3611
 2407TIP3   OH228635   6.076   2.084   0.207 -0.0089  0.0018  0.4511
 2407TIP3    H128636   6.039   2.128   0.284 -0.3959 -0.3401  0.4671
 2407TIP3    H228637   6.052   2.140   0.134 -2.5286 -1.2966  0.1794
 2408TIP3   OH228638   0.596   2.270  16.270  0.4576 -0.3571 -0.1530
 2408TIP3    H128639   0.557   2.186  16.295 -0.4143  0.5169  1.5849
 2408TIP3    H228640   0.682   2.269  16.312 -1.0513  1.1583  3.2889
 2409TIP3   OH228641   2.435   6.022   4.469  0.1498  0.0236  0.1530
 2409TIP3    H128642   2.427   5.954   4.402 -1.0312 -1.7682  1.9657
 2409TIP3    H228643   2.503   5.989   4.528  0.3438  0.9767  0.4785
 2410TIP3   OH228644   0.413   3.912  16.082  0.0679 -0.2752  0.6321
 2410TIP3    H128645   0.371   3.829  16.107  1.1052 -0.9251  0.2518
 2410TIP3    H228646   0.464   3.938  16.159  0.7745 -0.6675  0.3035
 2411TIP3   OH228647   2.096   2.400  12.804 -0.5426 -0.0131  0.1799
 2411TIP3    H128648   2.064   2.429  12.718  0.0117  0.3285  0.0842
 2411TIP3    H228649   2.174   2.453  12.819  0.1366 -1.0310  0.2873
 2412TIP3   OH228650   3.087   6.217   5.698 -0.2190 -0.0628 -0.0688
 2412TIP3    H128651   3.099   6.287   5.762 -2.6259  1.4714 -1.1456
 2412TIP3    H228652   3.149   6.237   5.629 -0.7641  0.9669 -0.2850
 2413TIP3   OH228653   2.726   6.120   6.690 -0.3114 -0.1905 -0.5636
 2413TIP3    H128654   2.718   6.120   6.785  0.9347  1.5371 -0.4040
 2413TIP3    H228655   2.808   6.075   6.673  1.2904  2.4523 -0.4971
 2414TIP3   OH228656   6.305   2.770  13.998 -0.5289  0.4842  0.0679
 2414TIP3    H128657   6.227   2.812  13.961  0.3926  0.6001 -1.8684
 2414TIP3    H228658   6.320   2.816  14.080 -0.3796  3.0736 -1.3043
 2415TIP3   OH228659   5.573   4.291   1.282  0.4101 -0.0556 -0.1363
 2415TIP3    H128660   5.636   4.323   1.218  0.7934 -0.2869  0.1153
 2415TIP3    H228661   5.554   4.201   1.254  0.1768  0.0218 -0.2240
 2416TIP3   OH228662   5.307   1.504  15.517  0.3442 -0.3405  0.1469
 2416TIP3    H128663   5.327   1.441  15.448 -1.7114 -0.2841 -0.5732
 2416TIP3    H228664   5.319   1.589  15.476 -0.2832 -0.3036  0.0288
 2417TIP3   OH228665   1.453   1.331   5.370 -0.4332  0.0767  0.0132
 2417TIP3    H128666   1.438   1.332   5.465 -0.0067  0.4549  0.0831
 2417TIP3    H228667   1.527   1.271   5.359  0.9412  1.6656  0.1635
 2418TIP3   OH228668   1.933   3.167  17.062 -0.0086  0.0011 -0.0405
 2418TIP3    H128669   1.857   3.119  17.028 -0.0493  0.5052 -0.6803
 2418TIP3    H228670   2.008   3.119  17.029 -0.0449 -0.3999  0.4510
 2419TIP3   OH228671   3.468   6.536   4.566 -0.5669  0.5875 -0.3595
 2419TIP3    H128672   3.437   6.447   4.548 -0.3480  0.5221 -0.4105
 2419TIP3    H228673   3.467   6.580   4.481  0.0011  0.4230 -0.4521
 2420TIP3   OH228674   4.329   1.058   1.006 -0.8620 -0.0488  0.4008
 2420TIP3    H128675   4.402   0.996   0.996 -1.9111 -1.4707  1.2087
 2420TIP3    H228676   4.273   1.043   0.931  0.2815  2.0275 -0.9883
 2421TIP3   OH228677   4.748   3.024  13.160 -0.5257 -0.3177 -0.8255
 2421TIP3    H128678   4.840   3.046  13.143 -0.4242 -0.3892 -0.3762
 2421TIP3    H228679   4.703   3.046  13.079 -0.4181  1.4943 -0.4291
 2422TIP3   OH228680   1.681   3.225  13.692 -0.4932  0.1517  0.2197
 2422TIP3    H128681   1.620   3.153  13.709 -0.8312  0.6471  1.1300
 2422TIP3    H228682   1.625   3.302  13.681 -0.0690  0.5095  0.5308
 2423TIP3   OH228683   3.787   4.930  12.863 -0.2178 -0.3561  0.4300
 2423TIP3    H128684   3.707   4.895  12.901 -1.1199  0.2581 -0.8056
 2423TIP3    H228685   3.769   4.934  12.769  0.8983  0.7146  0.2329
 2424TIP3   OH228686   2.090   4.462  14.360 -0.0893 -0.7799 -0.0781
 2424TIP3    H128687   2.130   4.508  14.286  0.5601 -0.8361  0.2270
 2424TIP3    H228688   1.997   4.455  14.338 -0.5514  2.1349  0.5995
 2425TIP3   OH228689   5.184   5.420   3.404  0.0252 -0.9747 -0.2510
 2425TIP3    H128690   5.248   5.468   3.456 -0.9128 -0.4781  0.4746
 2425TIP3    H228691   5.236   5.369   3.343  1.1099 -0.5841  0.3264
 2426TIP3   OH228692   3.846   0.227   3.994 -0.4567 -1.0815  0.3147
 2426TIP3    H128693   3.866   0.184   4.077  0.3618  0.0010  0.7152
 2426TIP3    H228694   3.874   0.165   3.927 -0.6735 -1.7653  0.8537
 2427TIP3   OH228695   1.792   3.524   0.381  0.0319 -0.1739 -0.1273
 2427TIP3    H128696   1.856   3.484   0.322 -0.1300  0.1795 -0.5516
 2427TIP3    H228697   1.833   3.607   0.408 -0.4738  0.3316 -0.8560
 2428TIP3   OH228698   4.653   1.784   1.681  0.1280 -0.4843  0.3482
 2428TIP3    H128699   4.595   1.852   1.712  0.2105 -0.7187  1.0216
 2428TIP3    H228700   4.595   1.715   1.649 -0.0176 -1.3069  2.2613
 2429TIP3   OH228701   5.104   6.532  14.959 -0.4571 -0.2003 -0.7851
 2429TIP3    H128702   5.149   6.532  14.874  0.9872  0.3357 -0.0525
 2429TIP3    H228703   5.132   6.451  15.001  1.0811  0.8350  0.2819
 2430TIP3   OH228704   4.622   4.905  13.813  0.3376 -0.4893  0.6034
 2430TIP3    H128705   4.613   4.888  13.719 -0.5589 -0.9605  0.7650
 2430TIP3    H228706   4.716   4.895  13.830  0.2451 -2.5353  0.1463
 2431TIP3   OH228707   1.014   6.478  16.356  0.1593  0.0303 -0.1652
 2431TIP3    H128708   1.010   6.384  16.340  1.0098 -0.1782  0.8104
 2431TIP3    H228709   0.977   6.490  16.444 -0.2663  0.6554 -0.4135
 2432TIP3   OH228710   0.364   2.683   4.835 -0.6527  0.5468 -0.2450
 2432TIP3    H128711   0.432   2.739   4.871 -0.3306  0.4187 -0.6532
 2432TIP3    H228712   0.383   2.596   4.871 -0.3264  0.4174 -0.7289
 2433TIP3   OH228713   4.171   1.096  14.103  0.2922 -0.3770 -0.4583
 2433TIP3    H128714   4.166   1.037  14.028 -0.6733 -1.5914  0.5215
 2433TIP3    H228715   4.090   1.147  14.100  0.9811  0.7183 -1.1226
 2434TIP3   OH228716   1.630   1.303   3.469 -0.4189  0.0439 -0.4189
 2434TIP3    H128717   1.709   1.342   3.505  0.8179 -2.3111 -0.3549
 2434TIP3    H228718   1.565   1.310   3.539  1.2751 -2.4113  1.6030
 2435TIP3   OH228719   2.162   6.615   6.731 -0.4560 -0.4723 -0.1370
 2435TIP3    H128720   2.140   6.554   6.661  1.7703 -1.0805 -0.4010
 2435TIP3    H228721   2.193   6.693   6.686 -0.8944 -0.1140  0.1829
 2436TIP3   OH228722   4.150   0.120  15.136 -0.0869  0.1003 -0.0703
 2436TIP3    H128723   4.138   0.111  15.041 -0.1664 -0.3827 -0.0180
 2436TIP3    H228724   4.063   0.142  15.169  0.2306  1.7558 -0.2692
 2437TIP3   OH228725   6.411   5.852   0.411 -0.0629  0.5020  0.1078
 2437TIP3    H128726   6.331   5.877   0.458 -0.6467 -0.1069 -0.5366
 2437TIP3    H228727   6.404   5.898   0.327 -0.3100 -0.4560 -0.4047
 2438TIP3   OH228728   2.178   6.537   5.478 -0.6960  0.7873 -0.0999
 2438TIP3    H128729   2.210   6.607   5.421  1.7202  1.2245  1.6576
 2438TIP3    H228730   2.253   6.512   5.531 -2.2253 -1.2111  1.3071
 2439TIP3   OH228731   4.106   1.188  14.462 -0.3450 -0.6427 -0.0697
 2439TIP3    H128732   4.058   1.114  14.497  0.4090 -1.0613  0.1048
 2439TIP3    H228733   4.197   1.158  14.458  0.2029  0.7147  1.2734
 2440TIP3   OH228734   3.159   6.324   3.699 -0.4222 -0.0669  0.6763
 2440TIP3    H128735   3.132   6.401   3.650  0.1094  0.3183  0.9791
 2440TIP3    H228736   3.078   6.277   3.718 -0.5670 -0.6823 -1.3092
 2441TIP3   OH228737   6.278   4.811   1.208  0.2705 -0.3555 -0.6415
 2441TIP3    H128738   6.292   4.720   1.180 -0.2335  0.1391 -2.6258
 2441TIP3    H228739   6.186   4.828   1.189  0.4347  0.6810 -0.5561
 2442TIP3   OH228740   2.408   2.518   3.447  0.0207  0.1336  0.2278
 2442TIP3    H128741   2.332   2.560   3.406 -0.8351 -1.4820  0.0590
 2442TIP3    H228742   2.373   2.482   3.529  0.3454 -1.3905 -0.2613
 2443TIP3   OH228743   5.391   2.172   1.355  0.5026  0.5158 -0.4556
 2443TIP3    H128744   5.347   2.170   1.270 -0.0802  0.9223 -0.1675
 2443TIP3    H228745   5.320   2.162   1.419  0.7045  2.1066  0.0470
 2444TIP3   OH228746   6.403   0.123  15.221 -0.2369 -0.0259 -0.1448
 2444TIP3    H128747   6.476   0.177  15.251 -0.3895  0.4482 -0.5979
 2444TIP3    H228748   6.411   0.042  15.270  1.4300 -0.5376 -1.1887
 2445TIP3   OH228749   6.388   1.823  12.346  0.3913 -0.2267  0.8569
 2445TIP3    H128750   6.323   1.893  12.340 -0.5506 -1.1703 -0.4656
 2445TIP3    H228751   6.467   1.860  12.308  0.0736  0.3016  0.6954
 2446TIP3   OH228752   6.751   1.387  13.281 -0.8063  0.5014  0.3349
 2446TIP3    H128753   6.727   1.315  13.223 -0.8501 -0.2334  1.2292
 2446TIP3    H228754   6.678   1.392  13.343  0.3223 -0.3548  1.8016
 2447TIP3   OH228755   2.884   3.655   2.761  0.2137 -0.3153  0.1545
 2447TIP3    H128756   2.910   3.563   2.764  1.0098 -0.0903  0.7747
 2447TIP3    H228757   2.960   3.702   2.796 -1.6973  0.2431  4.0705
 2448TIP3   OH228758   1.688   0.234  14.985 -0.3437 -0.9323 -0.4943
 2448TIP3    H128759   1.676   0.151  15.031 -0.8898 -0.1518  0.8527
 2448TIP3    H228760   1.765   0.273  15.026  0.0280 -0.8552 -1.2534
 2449TIP3   OH228761   2.539   5.233  10.948 -0.2555 -0.1942  0.4222
 2449TIP3    H128762   2.541   5.289  10.870 -1.6259  0.1686  0.6286
 2449TIP3    H228763   2.624   5.248  10.990  0.4745 -0.3297 -0.9298
 2450TIP3   OH228764   1.775   6.549  14.667  0.5306 -0.1116  0.1628
 2450TIP3    H128765   1.707   6.604  14.707  0.2209 -0.6165  0.3398
 2450TIP3    H228766   1.821   6.608  14.607 -0.0233  0.2530  0.0856
 2451TIP3   OH228767   0.083   3.240   3.745 -0.3298  0.6224  0.2133
 2451TIP3    H128768   0.008   3.246   3.803 -2.6293 -0.3302 -2.4353
 2451TIP3    H228769   0.081   3.321   3.694 -0.4055  0.0069 -0.7934
 2452TIP3   OH228770   5.278   1.004   6.204  0.5024  0.3933  0.7196
 2452TIP3    H128771   5.367   0.983   6.232  1.4299  3.6432  0.6488
 2452TIP3    H228772   5.279   1.099   6.192 -2.7830  0.4363 -0.0768
 2453TIP3   OH228773   1.219   3.955  15.660 -0.2216 -0.1360 -0.4606
 2453TIP3    H128774   1.252   4.041  15.635  1.7283 -0.1966  1.6040
 2453TIP3    H228775   1.289   3.894  15.638 -1.2312 -1.1060 -1.1082
 2454TIP3   OH228776   3.939   6.656  10.893  0.4995  0.1996 -1.0374
 2454TIP3    H128777   3.978   6.703  10.819 -0.0438  0.8952 -0.9011
 2454TIP3    H228778   3.865   6.712  10.920 -0.3408 -0.8688 -1.0455
 2455TIP3   OH228779   5.397   1.782   0.144  0.5921 -0.3513  0.3812
 2455TIP3    H128780   5.385   1.803   0.052  4.2112  0.9828  0.0490
 2455TIP3    H228781   5.309   1.768   0.178 -0.9988  1.0402 -2.8207
 2456TIP3   OH228782   3.923   5.887  12.107  0.5560 -0.0040 -0.0137
 2456TIP3    H128783   3.899   5.874  12.199  0.6486 -0.3556 -0.0395
 2456TIP3    H228784   3.910   5.802  12.066 -0.9565  0.5082 -0.6602
 2457TIP3   OH228785   3.320   2.821   6.389  0.0810 -0.9523 -0.6337
 2457TIP3    H128786   3.252   2.830   6.323  0.5305 -0.8303 -1.0859
 2457TIP3    H228787   3.392   2.875   6.357  0.1219 -0.4731  0.2049
 2458TIP3   OH228788   5.300   4.998  17.050  0.3404 -0.3972  0.0795
 2458TIP3    H128789   5.230   5.040  17.000  0.7743 -1.2907 -1.3450
 2458TIP3    H228790   5.380   5.021  17.004  0.9556  0.1475  1.3690
 2459TIP3   OH228791   2.896   0.129  11.433  0.1832 -0.1222 -0.0374
 2459TIP3    H128792   2.911   0.065  11.503  0.3395  0.2680  0.2938
 2459TIP3    H228793   2.901   0.078  11.352  0.6784 -0.4701  0.2022
 2460TIP3   OH228794   0.769   0.945  16.714  0.1281  0.3299  0.0687
 2460TIP3    H128795   0.717   0.878  16.757  0.5976  0.0479  0.2053
 2460TIP3    H228796   0.816   0.898  16.645  0.1578  0.5916 -0.0916
 2461TIP3   OH228797   0.887   6.488  14.924  0.4688  0.2546 -0.1553
 2461TIP3    H128798   0.975   6.497  14.960  1.0824 -2.0897 -0.8485
 2461TIP3    H228799   0.833   6.460  14.998  1.1246 -1.7614 -0.3659
 2462TIP3   OH228800   4.783   4.257  12.994 -0.1906 -0.2647 -0.2551
 2462TIP3    H128801   4.846   4.201  13.039  0.6024 -0.2931 -1.3450
 2462TIP3    H228802   4.780   4.223  12.905 -0.9731  0.3835 -0.4852
 2463TIP3   OH228803   3.621   4.019  17.166  0.3678  0.0163  0.5081
 2463TIP3    H128804   3.682   3.965  17.217  0.1162 -1.6512 -0.8640
 2463TIP3    H228805   3.566   4.062  17.231  2.4389  0.9100  1.7566
 2464TIP3   OH228806   5.923   5.469  15.519  0.2179 -0.1404 -0.4711
 2464TIP3    H128807   5.890   5.394  15.568 -0.9343  0.6513  0.0190
 2464TIP3    H228808   5.931   5.438  15.429 -1.1927 -0.5866 -0.4660
 2465TIP3   OH228809   4.715   2.690   1.394 -0.0642  0.1828  0.5768
 2465TIP3    H128810   4.796   2.738   1.377  0.0829  0.0462  0.8712
 2465TIP3    H228811   4.645   2.751   1.372  0.1201  0.1294 -0.1574
 2466TIP3   OH228812   3.042   4.830  12.328 -0.2847  0.0959  0.0272
 2466TIP3    H128813   3.115   4.793  12.378  0.2909 -0.4707 -1.1915
 2466TIP3    H228814   3.063   4.923  12.320 -0.2550  0.1433  0.6174
 2467TIP3   OH228815   2.642   6.116   1.585  0.5384  0.2729  0.2024
 2467TIP3    H128816   2.640   6.204   1.623 -0.9184  0.5702 -0.4968
 2467TIP3    H228817   2.659   6.131   1.492  0.9648 -0.2427  0.1913
 2468TIP3   OH228818   3.333   0.659   3.545  0.5491  0.0999 -0.5901
 2468TIP3    H128819   3.320   0.580   3.492  1.9804  0.3587 -1.3957
 2468TIP3    H228820   3.246   0.696   3.554 -0.1195 -1.4323 -0.4142
 2469TIP3   OH228821   5.410   0.961  12.130  1.0826 -0.3955 -0.0727
 2469TIP3    H128822   5.343   0.906  12.089  1.4528 -0.3135 -0.7997
 2469TIP3    H228823   5.445   1.014  12.058  1.7820 -0.2865  0.3392
 2470TIP3   OH228824   4.663   4.099  15.966  0.0498  0.4626  0.6574
 2470TIP3    H128825   4.583   4.084  16.017 -1.1654  3.0303 -0.3008
 2470TIP3    H228826   4.668   4.023  15.907 -1.8967  0.3840  0.5122
 2471TIP3   OH228827   0.044   4.727  17.080 -0.0465  0.0171 -0.1920
 2471TIP3    H128828   0.090   4.800  17.040  1.1030 -1.0493 -0.9014
 2471TIP3    H228829   0.040   4.748  17.173  0.4945  0.8529 -0.3508
 2472TIP3   OH228830   5.437   1.916  13.581 -0.5264 -0.6988 -0.3141
 2472TIP3    H128831   5.521   1.954  13.552 -0.9346 -1.2353 -2.3711
 2472TIP3    H228832   5.462   1.837  13.628  0.2608  1.1703  2.7174
 2473TIP3   OH228833   3.737   4.639  11.301  0.3683  0.4561 -0.0956
 2473TIP3    H128834   3.692   4.558  11.325  0.4689  0.4969  0.2255
 2473TIP3    H228835   3.718   4.649  11.207 -0.9648  0.8966  0.2020
 2474TIP3   OH228836   3.487   1.247  10.953 -0.3172  0.2198  0.4576
 2474TIP3    H128837   3.554   1.315  10.959 -0.0892 -0.0726  1.4604
 2474TIP3    H228838   3.434   1.272  10.877 -1.7658  2.9395  2.2077
 2475TIP3   OH228839   6.247   6.221  15.957 -0.0867  0.5318 -0.4412
 2475TIP3    H128840   6.288   6.283  15.897 -0.8575  1.0578 -0.4399
 2475TIP3    H228841   6.191   6.167  15.902 -0.7952  1.0165 -0.2114
 2476TIP3   OH228842   5.133   0.439  15.215  0.2156  0.2492 -0.1432
 2476TIP3    H128843   5.055   0.408  15.169  1.4266  0.4842 -2.4955
 2476TIP3    H228844   5.168   0.360  15.258  0.7366 -0.7527 -2.2645
 2477TIP3   OH228845   0.711   1.085  11.936 -0.4225 -0.0016 -0.9014
 2477TIP3    H128846   0.685   1.009  11.989 -1.4359  1.7679  1.2662
 2477TIP3    H228847   0.684   1.061  11.847 -2.8210 -1.3218  0.0660
 2478TIP3   OH228848   4.612   6.586   1.294 -0.3696 -0.1362 -0.1927
 2478TIP3    H128849   4.529   6.559   1.333  0.0878 -0.4174  0.5974
 2478TIP3    H228850   4.587   6.642   1.220 -1.2545 -0.0184  0.1910
 2479TIP3   OH228851   0.434   2.029  13.648 -0.3282 -0.5207  0.2363
 2479TIP3    H128852   0.460   2.104  13.701 -0.8489 -0.4928  0.4530
 2479TIP3    H228853   0.407   2.066  13.564  0.4515 -0.5614 -0.0406
 2480TIP3   OH228854   3.276   5.035   3.335  0.0075 -0.2253  0.4599
 2480TIP3    H128855   3.309   5.124   3.348 -0.3243  0.0356 -0.3830
 2480TIP3    H228856   3.222   5.041   3.257 -2.7880 -0.4469  2.2512
 2481TIP3   OH228857   0.254   4.623   2.005 -0.3568 -0.2897  0.2864
 2481TIP3    H128858   0.196   4.560   1.963  0.9930 -0.7950 -0.9106
 2481TIP3    H228859   0.196   4.678   2.058 -2.2555  0.6902 -2.5701
 2482TIP3   OH228860   4.830   0.154   4.187 -0.6228 -0.6488  0.2180
 2482TIP3    H128861   4.745   0.113   4.205 -1.9557  1.7074 -0.3193
 2482TIP3    H228862   4.876   0.092   4.131 -1.6647 -2.2967  1.1221
 2483TIP3   OH228863   2.268   6.558   4.763 -0.1669  0.2639  0.2194
 2483TIP3    H128864   2.337   6.599   4.816  0.5543  1.4179 -1.5029
 2483TIP3    H228865   2.202   6.626   4.752 -1.0687 -0.4747  0.9119
 2484TIP3   OH228866   6.566   3.799   0.105  0.5994  0.3985  0.1120
 2484TIP3    H128867   6.487   3.764   0.147  0.0897 -1.2996 -2.0914
 2484TIP3    H228868   6.534   3.872   0.052  0.5589 -0.0005 -0.4226
 2485TIP3   OH228869   0.348   5.698  14.871  0.3730 -0.8644  0.0346
 2485TIP3    H128870   0.257   5.671  14.858 -0.2956  0.5726  1.5221
 2485TIP3    H228871   0.375   5.732  14.785 -0.7992 -0.4053 -0.1699
 2486TIP3   OH228872   0.032   1.513  17.170  0.6427 -0.4904 -0.8289
 2486TIP3    H128873  -0.013   1.480  17.092  1.2232 -0.6355 -1.1102
 2486TIP3    H228874   0.089   1.441  17.197  0.9459 -0.1931 -0.6704
 2487TIP3   OH228875   3.106   3.807   2.200 -0.1981 -1.1409 -1.1996
 2487TIP3    H128876   3.103   3.810   2.295 -2.0382  1.7907 -1.2339
 2487TIP3    H228877   3.199   3.816   2.178  0.0291  0.5693  0.3257
 2488TIP3   OH228878   6.413   5.238   0.014 -0.2431  0.6024  0.8036
 2488TIP3    H128879   6.443   5.322   0.048 -0.4884  1.0216  0.0084
 2488TIP3    H228880   6.319   5.236   0.031 -0.1390  0.2245  1.3584
 2489TIP3   OH228881   1.298   5.879  13.832  0.9002 -0.7004 -0.0941
 2489TIP3    H128882   1.358   5.880  13.757  0.9361  2.3921 -0.1774
 2489TIP3    H228883   1.351   5.909  13.905 -0.0150 -0.0054  0.3048
 2490TIP3   OH228884   0.183   2.257   5.573  0.3925  0.2382  0.0185
 2490TIP3    H128885   0.230   2.316   5.631  0.1706 -0.1956  0.6521
 2490TIP3    H228886   0.092   2.287   5.576  0.5601  0.8450 -0.9092
 2491TIP3   OH228887   1.380   6.567  16.862 -0.1720  0.1082  0.2272
 2491TIP3    H128888   1.375   6.661  16.846 -2.3749  0.0562  0.1991
 2491TIP3    H228889   1.447   6.557  16.930  1.2441  1.4904 -0.8954
 2492TIP3   OH228890   4.924   6.375   1.936 -0.6009  0.9606  0.4690
 2492TIP3    H128891   5.012   6.396   1.966 -0.4970  0.5406  0.4614
 2492TIP3    H228892   4.878   6.459   1.935  0.1557  1.3891 -0.7047
 2493TIP3   OH228893   5.314   1.308  13.447  0.3434 -0.1795  0.9711
 2493TIP3    H128894   5.355   1.393  13.427  0.4800 -0.5387 -0.3498
 2493TIP3    H228895   5.387   1.247  13.453  0.1086 -0.5775 -0.0929
 2494TIP3   OH228896   3.846   2.531  16.117  0.0242  0.2757  0.3619
 2494TIP3    H128897   3.840   2.560  16.026  0.3141 -0.5566  0.0685
 2494TIP3    H228898   3.815   2.606  16.168  1.2035  1.2723 -0.3296
 2495TIP3   OH228899   2.155   0.907  12.633 -0.4627  0.2270 -0.1953
 2495TIP3    H128900   2.207   0.894  12.712  0.5584 -0.6524 -0.9722
 2495TIP3    H228901   2.215   0.950  12.572 -1.5850  1.9605 -0.1428
 2496TIP3   OH228902   2.641   5.100  11.410 -0.1893  0.1643  0.1032
 2496TIP3    H128903   2.671   5.081  11.499  0.8389 -0.8428 -0.4340
 2496TIP3    H228904   2.711   5.068  11.354 -1.2206 -0.0177 -1.1149
 2497TIP3   OH228905   1.489   3.027   0.291  0.1911  0.2895 -0.2543
 2497TIP3    H128906   1.585   3.024   0.290  0.2170  1.0582 -0.8607
 2497TIP3    H228907   1.464   2.969   0.363  1.1568  1.2334  0.8872
 2498TIP3   OH228908   0.815   3.317  12.673 -0.5836 -0.0400  0.1620
 2498TIP3    H128909   0.842   3.408  12.682  1.2372 -0.6391  1.0613
 2498TIP3    H228910   0.866   3.284  12.599 -0.7731 -0.5060  0.2360
 2499TIP3   OH228911   4.063   3.910   2.957 -0.4407  0.2499  0.0020
 2499TIP3    H128912   3.984   3.933   3.005 -0.7439  0.1953 -0.4672
 2499TIP3    H228913   4.126   3.979   2.979 -0.1002 -0.5427  1.6072
 2500TIP3   OH228914   4.354   1.093   1.331  0.2566 -0.1274  0.3909
 2500TIP3    H128915   4.268   1.113   1.368 -0.9575 -0.6138 -1.9678
 2500TIP3    H228916   4.342   1.103   1.236  2.8557 -0.0634  0.0049
 2501TIP3   OH228917   5.792   4.460   1.190  0.9233 -0.0679  0.4897
 2501TIP3    H128918   5.830   4.425   1.270  0.2394 -2.5576 -0.2052
 2501TIP3    H228919   5.846   4.424   1.120 -0.1146 -0.1595 -0.2878
 2502TIP3   OH228920   0.016   3.808   6.524  0.2863 -0.3149  0.2833
 2502TIP3    H128921  -0.038   3.729   6.522 -0.5116  0.1954  0.8795
 2502TIP3    H228922   0.083   3.790   6.590 -0.2094 -0.3014  0.7970
 2503TIP3   OH228923   1.493   5.986  11.264  0.4545  0.0728 -0.4121
 2503TIP3    H128924   1.509   5.902  11.222  1.4978  0.2224 -0.3216
 2503TIP3    H228925   1.425   6.027  11.210 -0.9549 -1.3010  0.2203
 2504TIP3   OH228926   3.672   4.372  15.795 -0.1594  0.3974  0.6736
 2504TIP3    H128927   3.700   4.341  15.708  1.3761  0.9065  0.9549
 2504TIP3    H228928   3.605   4.309  15.822 -1.0359  0.4993 -1.0706
 2505TIP3   OH228929   4.717   4.547   3.808 -0.1835 -0.0527  0.0820
 2505TIP3    H128930   4.787   4.589   3.759  0.8252 -1.1872  0.4933
 2505TIP3    H228931   4.666   4.501   3.743  0.5678 -0.7407 -0.0407
 2506TIP3   OH228932   5.709   0.361   3.422  0.2973 -0.5139  0.4302
 2506TIP3    H128933   5.800   0.374   3.395 -0.0200 -0.0341 -0.4493
 2506TIP3    H228934   5.703   0.267   3.443  0.9143 -0.6031  0.2258
 2507TIP3   OH228935   2.936   3.037   2.744 -0.1321  0.6063  0.0543
 2507TIP3    H128936   2.870   3.075   2.686  0.2532 -0.2545 -0.9907
 2507TIP3    H228937   2.906   2.947   2.759 -0.4520  0.9417  1.5680
 2508TIP3   OH228938   4.241   3.179  13.957 -0.2841 -0.0127  0.0664
 2508TIP3    H128939   4.273   3.098  13.996 -1.2658 -0.3819  0.1361
 2508TIP3    H228940   4.309   3.205  13.894  0.1136 -0.7909  0.1712
 2509TIP3   OH228941   4.875   0.691   0.716 -0.1480 -0.2251  0.1240
 2509TIP3    H128942   4.876   0.689   0.621  0.0823  0.5162  0.1091
 2509TIP3    H228943   4.939   0.625   0.742  0.5272  0.2832 -0.2412
 2510TIP3   OH228944   3.661   6.080   2.502 -0.0218 -0.1979  0.3717
 2510TIP3    H128945   3.670   6.130   2.583  0.9677 -1.8839  1.3591
 2510TIP3    H228946   3.607   6.005   2.526 -1.1614  0.1566 -0.9827
 2511TIP3   OH228947   3.090   6.148   4.882  0.5067 -0.0066  0.0028
 2511TIP3    H128948   3.064   6.063   4.848  0.4189  0.4977 -1.2516
 2511TIP3    H228949   3.037   6.211   4.833  0.3354  0.7676  1.1343
 2512TIP3   OH228950   4.778   1.581   3.873  0.0848  0.2371  0.1987
 2512TIP3    H128951   4.706   1.555   3.931  0.2104 -0.5536  0.0162
 2512TIP3    H228952   4.856   1.573   3.927  0.2230 -0.6827 -0.1141
 2513TIP3   OH228953   4.178   5.409   0.343  0.2732  0.2786  0.0781
 2513TIP3    H128954   4.245   5.406   0.274 -0.1391  0.3907 -0.3380
 2513TIP3    H228955   4.169   5.319   0.372 -0.5078  0.0035 -0.9693
 2514TIP3   OH228956   0.785   5.803   5.274  0.4252  0.7145  0.1367
 2514TIP3    H128957   0.762   5.729   5.219  2.4256  1.5753 -2.0215
 2514TIP3    H228958   0.833   5.764   5.348  0.2619 -0.2295 -0.2411
 2515TIP3   OH228959   1.303   5.418   0.595  0.4996  0.0980  0.0473
 2515TIP3    H128960   1.223   5.388   0.551  0.2971  0.1361  0.3853
 2515TIP3    H228961   1.369   5.353   0.570  0.7208  0.8146 -1.3537
 2516TIP3   OH228962   1.190   6.164   1.602 -0.2452  0.0169 -0.3951
 2516TIP3    H128963   1.226   6.117   1.527  1.3876  1.4435 -0.5562
 2516TIP3    H228964   1.095   6.161   1.588 -0.1236 -1.9428 -1.1354
 2517TIP3   OH228965   5.918   5.401   1.956 -0.0482  0.3383  0.0877
 2517TIP3    H128966   5.891   5.491   1.941 -1.5609 -0.1740 -0.4279
 2517TIP3    H228967   5.895   5.383   2.047 -2.4138 -0.3698 -0.5887
 2518TIP3   OH228968   3.414   5.400   0.859  0.2009 -0.3416  0.8539
 2518TIP3    H128969   3.387   5.423   0.948  2.6410 -0.5212  1.7050
 2518TIP3    H228970   3.470   5.324   0.870  1.3998  0.2640 -0.7271
 2519TIP3   OH228971   5.635   5.600   0.366  0.1391  0.2458  0.5548
 2519TIP3    H128972   5.553   5.555   0.386 -0.4797  0.8189 -0.5708
 2519TIP3    H228973   5.667   5.556   0.287  2.8334 -2.3907  2.8936
 2520TIP3   OH228974   1.621   0.713  11.465  0.5006  0.6846  0.2726
 2520TIP3    H128975   1.668   0.702  11.383  1.2865 -0.4442  0.8428
 2520TIP3    H228976   1.544   0.656  11.456  1.3353 -0.5918  0.8329
 2521TIP3   OH228977   2.017   2.540  13.038 -0.4135 -0.1337 -0.0232
 2521TIP3    H128978   2.029   2.635  13.030 -2.2599  0.1654  0.2754
 2521TIP3    H228979   2.026   2.507  12.948  0.0833  0.3488 -0.1518
 2522TIP3   OH228980   1.012   2.285   1.037 -0.5733  0.1164 -0.1138
 2522TIP3    H128981   0.936   2.230   1.056 -1.4041  0.9454 -0.8850
 2522TIP3    H228982   1.011   2.295   0.941 -0.2483  1.1600 -0.0280
 2523TIP3   OH228983   4.846   1.044   5.396  0.1019  0.1475 -0.2127
 2523TIP3    H128984   4.801   1.090   5.468  0.1068  0.3063 -0.3088
 2523TIP3    H228985   4.939   1.049   5.418 -0.0064 -1.7159  0.8927
 2524TIP3   OH228986   5.658   5.693  16.652  0.0493  0.1315  0.4338
 2524TIP3    H128987   5.735   5.695  16.595 -0.4949  0.6692 -0.3041
 2524TIP3    H228988   5.693   5.704  16.740  0.8075  0.4621  0.0991
 2525TIP3   OH228989   4.069   1.087   2.967 -0.0711 -0.4045 -0.5938
 2525TIP3    H128990   4.074   1.153   2.898 -2.4023  0.3022 -0.1561
 2525TIP3    H228991   4.078   1.138   3.048 -0.4120 -0.8203 -0.2947
 2526TIP3   OH228992   4.981   5.510  15.944 -0.4246 -0.5276  0.1118
 2526TIP3    H128993   4.889   5.483  15.941 -0.3045 -0.9862  0.3634
 2526TIP3    H228994   5.009   5.489  16.033  0.9409 -3.8585 -0.9544
 2527TIP3   OH228995   6.565   5.079   2.250 -0.7611  0.1432 -0.1057
 2527TIP3    H128996   6.627   5.054   2.318 -1.5830 -0.8201  0.2994
 2527TIP3    H228997   6.523   5.159   2.283 -2.2242 -1.1302  1.2350
 2528TIP3   OH228998   2.852   4.529  16.765  0.2198  0.3199 -0.2051
 2528TIP3    H128999   2.818   4.594  16.827  2.3545  2.4767 -1.1391
 2528TIP3    H229000   2.830   4.564  16.679  2.0125  0.2377 -0.7366
 2529TIP3   OH229001   3.799   5.362  10.867 -0.5397  0.0776  0.5690
 2529TIP3    H129002   3.749   5.282  10.883 -0.3401 -0.5384 -1.6172
 2529TIP3    H229003   3.733   5.426  10.839 -0.4182 -0.0273  0.0338
 2530TIP3   OH229004   4.474   5.550   6.319 -0.4696  0.1861 -0.2260
 2530TIP3    H129005   4.458   5.644   6.328 -0.0432  0.2137  0.3258
 2530TIP3    H229006   4.473   5.518   6.409 -2.1295 -0.6116 -0.4907
 2531TIP3   OH229007   5.951   1.165   0.969  0.6507 -0.1265  0.1494
 2531TIP3    H129008   6.001   1.162   1.050 -0.2420 -0.2414  0.7150
 2531TIP3    H229009   6.012   1.200   0.904  0.5291  3.0601  1.5607
 2532TIP3   OH229010   3.989   2.806   1.462  0.6420  0.4979  0.2763
 2532TIP3    H129011   3.980   2.887   1.411  1.5830  1.1922  1.1758
 2532TIP3    H229012   4.033   2.833   1.542  0.2453 -0.7808  0.9517
 2533TIP3   OH229013   1.276   4.587  11.513 -0.6701 -0.0259  0.3042
 2533TIP3    H129014   1.275   4.572  11.607 -2.4323  1.1697  0.5121
 2533TIP3    H229015   1.358   4.546  11.483 -0.9111 -1.9703  2.0650
 2534TIP3   OH229016   1.589   1.303  16.760  0.0195 -0.1259  0.6285
 2534TIP3    H129017   1.559   1.394  16.764 -0.3102 -0.1925 -0.1089
 2534TIP3    H229018   1.555   1.271  16.677  3.8230  0.3591 -1.2862
 2535TIP3   OH229019   4.558   4.726  14.546  0.7338 -0.6516  0.5485
 2535TIP3    H129020   4.587   4.714  14.456 -0.6513  0.1810 -0.0493
 2535TIP3    H229021   4.603   4.658  14.596  1.9107 -0.7988 -0.6766
 2536TIP3   OH229022   4.048   4.379  14.996  0.4025 -0.1865 -0.1892
 2536TIP3    H129023   4.007   4.418  15.073  0.9551 -0.4944  0.2690
 2536TIP3    H229024   3.987   4.396  14.924 -0.5280 -0.6506  0.4784
 2537TIP3   OH229025   3.915   5.662  15.921  0.0763  0.2827 -0.5475
 2537TIP3    H129026   3.844   5.599  15.907 -0.1748  0.4864 -0.2209
 2537TIP3    H229027   3.917   5.713  15.840 -0.7041  0.8087 -0.2567
 2538TIP3   OH229028   3.703   3.411  14.921 -0.1776  0.2070  0.3532
 2538TIP3    H129029   3.648   3.362  14.860  0.9817 -0.6866 -0.0044
 2538TIP3    H229030   3.649   3.421  14.999 -0.8584 -0.6560  0.0133
 2539TIP3   OH229031   1.654   0.731   1.118 -0.5850  0.6179 -0.2604
 2539TIP3    H129032   1.646   0.819   1.081 -0.2250  0.7338 -0.0711
 2539TIP3    H229033   1.708   0.743   1.196  0.2064  0.0925 -0.7161
 2540TIP3   OH229034   3.612   6.039   2.231 -0.0336  0.3933 -0.8269
 2540TIP3    H129035   3.647   6.050   2.319 -1.7709  0.1953 -0.0795
 2540TIP3    H229036   3.661   6.103   2.178  0.3097  1.2569  0.4816
 2541TIP3   OH229037   5.248   1.945  15.282 -0.0697 -0.3005 -0.0638
 2541TIP3    H129038   5.337   1.936  15.315  0.4062  0.1074 -1.2037
 2541TIP3    H229039   5.251   1.907  15.195 -0.3360  2.0913 -1.1938
 2542TIP3   OH229040   1.478   1.466  11.785 -0.2515  0.1234  0.0751
 2542TIP3    H129041   1.510   1.393  11.837  1.3627  0.6536 -0.1106
 2542TIP3    H229042   1.386   1.446  11.768 -0.3430 -0.9055  1.6407
 2543TIP3   OH229043   1.081   1.657   3.671  0.2517 -0.2560  0.7484
 2543TIP3    H129044   1.137   1.734   3.665 -0.4048  0.1515 -0.1492
 2543TIP3    H229045   1.139   1.584   3.649  0.8006 -0.0013  1.3210
 2544TIP3   OH229046   0.772   3.122  16.373  0.3680 -0.2775  0.3798
 2544TIP3    H129047   0.678   3.102  16.379  0.3761 -0.1035  1.1075
 2544TIP3    H229048   0.776   3.192  16.308 -0.3342  1.7275  2.3796
 2545TIP3   OH229049   6.008   2.968  10.387 -0.3238 -1.0830  0.3389
 2545TIP3    H129050   6.055   2.954  10.305  0.2810  1.4251  0.1659
 2545TIP3    H229051   6.077   2.981  10.452 -0.5590  2.5583  0.0986
 2546TIP3   OH229052   6.523   5.846   3.975  0.0578 -0.1963 -0.0279
 2546TIP3    H129053   6.446   5.857   3.919 -0.1547 -1.7231 -0.0592
 2546TIP3    H229054   6.592   5.817   3.915  1.2399  2.8224 -0.3472
 2547TIP3   OH229055   4.225   0.285  10.717  0.5258  0.4145 -0.4707
 2547TIP3    H129056   4.235   0.281  10.812 -1.1110 -1.9171 -0.2948
 2547TIP3    H229057   4.309   0.256  10.683  1.4164  2.0859  0.1970
 2548TIP3   OH229058   0.311   4.936   4.130 -0.5636  0.7787  0.5671
 2548TIP3    H129059   0.239   4.989   4.095 -1.1709  0.7768  1.7511
 2548TIP3    H229060   0.386   4.996   4.130 -0.7521  1.0219  0.0460
 2549TIP3   OH229061   3.328   6.469  16.699  0.0107  0.3794 -0.3745
 2549TIP3    H129062   3.398   6.522  16.660 -0.9203  1.5115 -0.5855
 2549TIP3    H229063   3.347   6.470  16.793 -0.8757  2.5474 -0.1578
 2550TIP3   OH229064   0.120   0.944  14.313 -0.0034  0.3518  0.0313
 2550TIP3    H129065   0.201   0.979  14.278 -0.4240 -0.4935 -1.9200
 2550TIP3    H229066   0.072   0.911  14.237 -0.4689 -2.6873  1.4580
 2551TIP3   OH229067   1.399   6.739  15.341  0.0263  0.0985  0.2120
 2551TIP3    H129068   1.331   6.806  15.335  2.3058  2.6102  0.4652
 2551TIP3    H229069   1.399   6.713  15.433 -1.3676 -0.8800 -0.0311
 2552TIP3   OH229070   1.350   4.848   4.189  0.1922 -0.1034  0.8360
 2552TIP3    H129071   1.345   4.894   4.273  1.7980  0.3501  0.7024
 2552TIP3    H229072   1.262   4.858   4.152  0.1620  1.8459  1.3284
 2553TIP3   OH229073   5.669   5.416   3.187  0.1236 -0.1553  0.8560
 2553TIP3    H129074   5.614   5.414   3.265  0.4681  0.4921  1.1217
 2553TIP3    H229075   5.747   5.368   3.211 -0.1267 -0.6812  0.6286
 2554TIP3   OH229076   5.592   2.616  10.573  0.0336 -0.0201 -0.1699
 2554TIP3    H129077   5.627   2.544  10.625  0.7783 -0.4041 -1.1815
 2554TIP3    H229078   5.669   2.658  10.535 -0.4511  0.7492 -0.3231
 2555TIP3   OH229079   4.732   1.394  11.751  0.1997  0.1326  0.4416
 2555TIP3    H129080   4.822   1.403  11.719  0.9471  0.6396  2.5063
 2555TIP3    H229081   4.689   1.338  11.686  1.8492  0.2929 -0.8659
 2556TIP3   OH229082   3.538   4.185   5.085  0.0575  0.1940 -0.5505
 2556TIP3    H129083   3.558   4.113   5.146 -0.0556  0.5628 -0.0671
 2556TIP3    H229084   3.447   4.169   5.059  0.3818 -0.4643 -1.3299
 2557TIP3   OH229085   5.146   0.369  11.908 -0.1979  0.2356 -0.4047
 2557TIP3    H129086   5.178   0.451  11.871 -1.0267  0.3056 -0.9785
 2557TIP3    H229087   5.114   0.319  11.833 -2.8793  0.7994  0.2820
 2558TIP3   OH229088   2.413   0.153   4.908  0.4135  0.1251 -0.2657
 2558TIP3    H129089   2.471   0.212   4.860  2.3959 -0.0942  1.7233
 2558TIP3    H229090   2.339   0.209   4.935  1.7992  1.5407  0.7711
 2559TIP3   OH229091   2.922   3.993  14.549  0.5130  0.7601 -0.7756
 2559TIP3    H129092   2.991   3.941  14.508 -0.4798  1.2033 -3.1811
 2559TIP3    H229093   2.840   3.955  14.516 -0.2950  2.1295 -0.4283
 2560TIP3   OH229094   3.304   2.712  13.298 -0.4103  0.5224 -0.2420
 2560TIP3    H129095   3.242   2.754  13.357 -1.3513 -0.3468 -0.5775
 2560TIP3    H229096   3.308   2.621  13.328  0.3371  0.4508 -0.5258
 2561TIP3   OH229097   4.114   2.668   4.760  0.2494  0.6844 -0.2968
 2561TIP3    H129098   4.154   2.680   4.674  1.5440  2.5520  0.4904
 2561TIP3    H229099   4.187   2.681   4.822 -0.8257  0.2791  1.1019
 2562TIP3   OH229100   3.706   4.982  13.545 -0.2302 -0.0787 -0.0418
 2562TIP3    H129101   3.753   5.041  13.486  0.0158 -1.7232 -1.5464
 2562TIP3    H229102   3.618   4.975  13.508 -0.3618 -0.4030  0.3218
 2563TIP3   OH229103   4.177   4.810  14.847  0.7620  0.2852 -0.5278
 2563TIP3    H129104   4.138   4.888  14.887  0.4149 -0.1058 -0.0913
 2563TIP3    H229105   4.186   4.749  14.920 -1.9342 -1.2797 -1.3554
 2564TIP3   OH229106   2.647   6.549  15.992 -0.5119 -0.0295 -0.0359
 2564TIP3    H129107   2.740   6.556  15.968 -0.9449  1.8400 -1.4033
 2564TIP3    H229108   2.632   6.455  16.001  1.4377 -0.3948 -0.1277
 2565TIP3   OH229109   4.353   6.135   6.557  0.6639  0.1363 -0.2205
 2565TIP3    H129110   4.388   6.051   6.585  0.1012  0.4045  1.3657
 2565TIP3    H229111   4.275   6.113   6.505 -0.9597 -0.3396  2.2516
 2566TIP3   OH229112   1.252   2.696  15.297  0.5469  0.3119  0.3689
 2566TIP3    H129113   1.253   2.672  15.390 -1.9470 -0.6381  0.2242
 2566TIP3    H229114   1.194   2.772  15.293  0.2406  0.0410 -0.4561
 2567TIP3   OH229115   0.628   4.405   5.429 -0.8335  0.1347 -0.2212
 2567TIP3    H129116   0.657   4.470   5.492  0.1702  0.7266 -1.2570
 2567TIP3    H229117   0.535   4.426   5.414 -0.5978  1.1522 -0.3268
 2568TIP3   OH229118   4.076   3.335   1.393  0.4787  0.0386  0.1091
 2568TIP3    H129119   4.122   3.255   1.368 -0.0548  0.6436 -3.3227
 2568TIP3    H229120   4.126   3.406   1.352 -2.3838  0.8537 -2.2888
 2569TIP3   OH229121   3.914   5.022  15.322  0.1290 -0.3516  0.1736
 2569TIP3    H129122   3.923   5.061  15.409 -0.3752  0.6804 -0.2170
 2569TIP3    H229123   4.001   5.029  15.284  0.2555 -0.4346  0.4399
 2570TIP3   OH229124   0.719   5.123  13.354  0.0801 -0.1860 -0.7021
 2570TIP3    H129125   0.739   5.185  13.284 -0.7315 -0.0424 -0.8227
 2570TIP3    H229126   0.623   5.124  13.360 -0.0609 -2.3317 -1.5549
 2571TIP3   OH229127   6.241   0.628   4.967 -0.1951 -0.7863 -0.0025
 2571TIP3    H129128   6.221   0.623   5.060 -0.1809 -0.0748  0.0407
 2571TIP3    H229129   6.160   0.660   4.926  0.4651  1.0727  0.0480
 2572TIP3   OH229130   2.447   3.948  15.418 -0.5107 -0.2464  0.5915
 2572TIP3    H129131   2.510   3.876  15.417 -1.4615 -1.2200 -2.4995
 2572TIP3    H229132   2.380   3.921  15.480 -0.3246 -1.5459  0.2462
 2573TIP3   OH229133   1.191   4.502  13.853  0.6139  0.0788 -0.0833
 2573TIP3    H129134   1.172   4.586  13.896 -1.1725 -0.0582 -0.5344
 2573TIP3    H229135   1.275   4.517  13.809  1.1941  1.0552  1.2730
 2574TIP3   OH229136   2.486   3.184   4.315 -0.3273 -0.3688  0.5682
 2574TIP3    H129137   2.546   3.183   4.241 -0.4767 -1.1779  0.4521
 2574TIP3    H229138   2.407   3.226   4.281 -0.5759 -1.1835  0.1169
 2575TIP3   OH229139   0.267   0.228   3.670 -0.0791 -0.6132 -0.6616
 2575TIP3    H129140   0.268   0.136   3.643 -1.8786 -0.3713 -1.6872
 2575TIP3    H229141   0.286   0.277   3.590 -1.1478 -0.0349 -0.5706
 2576TIP3   OH229142   5.909   6.642  10.523  0.3525  0.4213 -0.4669
 2576TIP3    H129143   5.833   6.695  10.549  0.0218  0.1324 -0.8407
 2576TIP3    H229144   5.963   6.701  10.472  0.3134  0.5892 -0.3165
 2577TIP3   OH229145   0.176   2.347  11.805  0.4432 -0.2907  0.2838
 2577TIP3    H129146   0.215   2.373  11.889 -0.2530  0.2167  0.4592
 2577TIP3    H229147   0.180   2.426  11.751 -0.9608 -0.0155  0.5471
 2578TIP3   OH229148   3.659   6.427  15.732 -0.2557  0.0000 -0.2545
 2578TIP3    H129149   3.641   6.521  15.720 -1.0608  0.1216  1.5922
 2578TIP3    H229150   3.677   6.395  15.643  1.1695  2.1030 -0.8064
 2579TIP3   OH229151   2.302   3.642  13.532  0.0199  0.0884  0.1590
 2579TIP3    H129152   2.265   3.570  13.583  0.7000  0.3881  1.1176
 2579TIP3    H229153   2.382   3.666  13.579  0.0094  1.2145 -0.3548
 2580TIP3   OH229154   0.369   6.016  14.953 -0.1170 -0.1454 -0.0461
 2580TIP3    H129155   0.374   6.071  14.875 -0.7838 -0.6045 -0.4227
 2580TIP3    H229156   0.393   5.928  14.921 -0.7350 -0.3995  0.1884
 2581TIP3   OH229157   5.535   6.371  14.629  0.2673  0.0609  0.0266
 2581TIP3    H129158   5.466   6.343  14.567 -0.3938  1.8433 -0.0870
 2581TIP3    H229159   5.601   6.412  14.573  0.8308 -0.4729  0.2850
 2582TIP3   OH229160   1.006   0.131   1.562 -0.4530  0.3067  0.6717
 2582TIP3    H129161   0.976   0.220   1.542 -0.6713  0.0310 -0.2898
 2582TIP3    H229162   1.094   0.127   1.524 -1.1926 -0.4924 -1.1005
 2583TIP3   OH229163   0.413   5.386   6.177 -0.3546  0.0631  0.1557
 2583TIP3    H129164   0.355   5.312   6.194  0.3843 -0.3953  0.7550
 2583TIP3    H229165   0.499   5.356   6.207  0.0504  0.9925 -0.0460
 2584TIP3   OH229166   1.949   3.262   3.581 -0.0707  0.3650 -0.1472
 2584TIP3    H129167   1.882   3.255   3.513 -1.4249 -1.9098  1.2632
 2584TIP3    H229168   2.010   3.191   3.562 -1.1044 -1.0747  1.5485
 2585TIP3   OH229169   1.555   0.030   2.503 -0.2700 -1.0514 -0.5414
 2585TIP3    H129170   1.464   0.048   2.479 -0.5879  0.3938  1.4240
 2585TIP3    H229171   1.582   0.108   2.551  1.7080 -1.8615 -0.2576
 2586TIP3   OH229172   1.457   6.565   0.712  0.1737 -0.2612 -1.0307
 2586TIP3    H129173   1.448   6.472   0.732 -1.8392  0.0154 -0.4004
 2586TIP3    H229174   1.383   6.585   0.655 -0.7290  1.3714  0.5787
 2587TIP3   OH229175   2.149   1.461  16.480  0.3140 -0.4765  0.2116
 2587TIP3    H129176   2.134   1.371  16.509 -0.0794 -0.1164  1.1629
 2587TIP3    H229177   2.169   1.453  16.386  0.9040 -1.6048  0.4182
 2588TIP3   OH229178   0.864   0.975  15.847  0.2446 -0.4715  0.1505
 2588TIP3    H129179   0.876   0.922  15.925 -2.8881  1.1684  1.9768
 2588TIP3    H229180   0.878   1.065  15.877  0.6341  0.0987 -1.6360
 2589TIP3   OH229181   6.769   0.086   0.084 -0.2195  0.0037 -0.0833
 2589TIP3    H129182   6.761   0.049   0.172 -0.9628  1.4276  0.4660
 2589TIP3    H229183   6.687   0.062   0.040 -0.3067  0.2004 -0.0303
 2590TIP3   OH229184   1.747   5.043  11.911  0.5067  0.4585  0.0171
 2590TIP3    H129185   1.793   5.088  11.981 -0.5205  0.9966  0.3685
 2590TIP3    H229186   1.695   4.976  11.955  2.5044 -1.5750 -0.5466
 2591TIP3   OH229187   0.974   3.089   4.861  0.5337  0.5953 -0.8939
 2591TIP3    H129188   1.059   3.128   4.839  0.6885 -0.3064 -1.9498
 2591TIP3    H229189   0.912   3.161   4.851  1.2459  1.5327  0.8262
 2592TIP3   OH229190   0.418   3.812   4.910 -0.4925 -0.3896 -0.1795
 2592TIP3    H129191   0.347   3.875   4.894  0.1191 -0.0196 -1.6408
 2592TIP3    H229192   0.419   3.757   4.832  1.2232  0.0216 -0.4836
 2593TIP3   OH229193   0.204   3.632  15.942 -0.2144 -0.2701  0.3109
 2593TIP3    H129194   0.230   3.645  16.033  0.2386  0.6035  0.0749
 2593TIP3    H229195   0.287   3.629  15.894 -0.3435  4.2924 -0.6787
 2594TIP3   OH229196   5.833   1.470   1.189  0.4939  0.2048 -0.0976
 2594TIP3    H129197   5.829   1.550   1.242  1.1048 -0.8079  1.5337
 2594TIP3    H229198   5.794   1.402   1.243 -0.2891 -0.5865 -1.5793
 2595TIP3   OH229199   5.717   2.537   2.023  0.0432 -0.1444  0.6057
 2595TIP3    H129200   5.713   2.448   2.057 -4.7093  0.0509  1.2335
 2595TIP3    H229201   5.747   2.591   2.096 -1.4609 -0.7722  1.7221
 2596TIP3   OH229202   0.963   4.313  12.972 -0.2705  0.3293  0.4305
 2596TIP3    H129203   0.963   4.401  12.933 -0.7342  0.1978  0.1200
 2596TIP3    H229204   0.967   4.254  12.898 -0.9567  0.0776  0.5868
 2597TIP3   OH229205   1.598   1.607   3.542 -0.3421 -0.2156 -0.0302
 2597TIP3    H129206   1.613   1.659   3.463 -0.3262  0.9408  0.7060
 2597TIP3    H229207   1.648   1.527   3.528  1.9843  1.1391 -0.0386
 2598TIP3   OH229208   5.244   6.089  13.481 -0.2448  0.4789  0.0763
 2598TIP3    H129209   5.317   6.141  13.448 -1.1148  0.5582 -1.8402
 2598TIP3    H229210   5.204   6.143  13.549 -1.5238  2.7130 -2.2747
 2599TIP3   OH229211   6.753   3.746   1.327  0.0653  0.0783  0.6800
 2599TIP3    H129212   6.753   3.841   1.315  1.6513 -0.0604 -0.8481
 2599TIP3    H229213   6.840   3.719   1.300 -0.6110 -1.9039  0.3578
 2600TIP3   OH229214   1.412   5.527  10.825  0.8503  0.2891  0.1733
 2600TIP3    H129215   1.416   5.435  10.799  0.3026  0.6926 -1.4961
 2600TIP3    H229216   1.486   5.538  10.884  0.0061 -1.5690  1.6841
 2601TIP3   OH229217   5.949   1.395  11.381 -0.3553  1.1285  0.5518
 2601TIP3    H129218   5.898   1.366  11.305 -1.2397  2.2860  0.6845
 2601TIP3    H229219   5.957   1.317  11.435  1.1440  0.0049 -1.1604
 2602TIP3   OH229220   1.625   2.862  12.310  0.7932  0.5111 -0.1738
 2602TIP3    H129221   1.669   2.946  12.321  1.1454  0.5867 -1.8466
 2602TIP3    H229222   1.584   2.868  12.223  0.4888 -0.8828 -0.1463
 2603TIP3   OH229223   2.033   5.617   3.877  0.4512 -0.2367 -0.7345
 2603TIP3    H129224   2.035   5.700   3.924 -0.9507  0.5354 -1.9453
 2603TIP3    H229225   2.121   5.582   3.886  1.3614  1.8406 -0.9771
 2604TIP3   OH229226   3.379   1.680  10.827 -0.0153  0.2410  0.6244
 2604TIP3    H129227   3.314   1.702  10.894  0.0446 -1.7457  1.4090
 2604TIP3    H229228   3.382   1.584  10.827  3.7267  0.1918  1.4715
 2605TIP3   OH229229   1.715   3.701  17.252 -0.1639 -0.4999  0.1108
 2605TIP3    H129230   1.732   3.630  17.190  0.1550  1.5646 -2.3769
 2605TIP3    H229231   1.622   3.691  17.275 -0.5676 -0.8345 -1.4911
 2606TIP3   OH229232   5.534   1.699   2.150 -0.3275  0.7420 -0.0423
 2606TIP3    H129233   5.456   1.650   2.124  0.9944 -1.4418 -0.1608
 2606TIP3    H229234   5.554   1.668   2.238  1.2168  0.1160 -0.5675
 2607TIP3   OH229235   2.445   5.872  11.110 -0.9322 -0.3386 -0.2360
 2607TIP3    H129236   2.518   5.890  11.051 -1.3569  1.2017 -0.3314
 2607TIP3    H229237   2.384   5.944  11.096  0.6546  2.4295  4.7579
 2608TIP3   OH229238   4.506   0.477   5.498  0.3434  0.0608 -0.0598
 2608TIP3    H129239   4.430   0.535   5.496 -1.1676 -1.6960  1.5136
 2608TIP3    H229240   4.527   0.468   5.591  0.7402 -1.5994 -0.2747
 2609TIP3   OH229241   0.463   5.724   5.272 -0.1479  0.0924 -0.0652
 2609TIP3    H129242   0.416   5.641   5.281 -0.3463  0.0297 -1.4775
 2609TIP3    H229243   0.555   5.698   5.265 -0.3008 -0.1305 -1.6546
 2610TIP3   OH229244   2.181   4.006   1.353  0.0533 -0.1076  0.2478
 2610TIP3    H129245   2.128   4.018   1.432 -0.4891 -1.8049  0.1846
 2610TIP3    H229246   2.229   3.925   1.369  0.5871 -0.0064 -0.8160
 2611TIP3   OH229247   0.759   2.010   6.035  0.1837  0.0695 -0.4131
 2611TIP3    H129248   0.699   2.057   5.977 -0.2669 -0.5775 -0.4758
 2611TIP3    H229249   0.725   1.921   6.038  0.3196  0.0376  0.6746
 2612TIP3   OH229250   1.743   1.592  16.116 -0.6177  0.3619  0.0017
 2612TIP3    H129251   1.831   1.632  16.118 -0.5602  0.2183  1.1327
 2612TIP3    H229252   1.752   1.513  16.169 -1.4487  0.3940  0.1952
 2613TIP3   OH229253   2.556   6.661  16.612  0.2317  0.4983  0.3554
 2613TIP3    H129254   2.567   6.572  16.577  0.5500  0.8704 -0.5145
 2613TIP3    H229255   2.463   6.680  16.600  0.5407  1.0471 -1.3739
 2614TIP3   OH229256   3.225   2.107  11.262  0.4855  0.4377 -0.3490
 2614TIP3    H129257   3.258   2.122  11.173  0.3708 -0.5304 -0.5631
 2614TIP3    H229258   3.143   2.157  11.266  0.1813  0.0109 -0.9955
 2615TIP3   OH229259   5.059   3.726   5.602 -0.0085  0.1342 -0.0261
 2615TIP3    H129260   4.973   3.691   5.624  0.0677  0.6149  1.1258
 2615TIP3    H229261   5.114   3.704   5.678  0.7503  0.2711 -0.5226
 2616TIP3   OH229262   0.428   5.359  11.820 -0.0513 -0.0260  0.2979
 2616TIP3    H129263   0.486   5.337  11.746 -1.0666 -0.6613 -0.3407
 2616TIP3    H229264   0.433   5.454  11.827  1.0705 -0.0658  0.2701
 2617TIP3   OH229265   1.600   4.081   0.503  0.4753 -0.4854 -0.6694
 2617TIP3    H129266   1.639   4.159   0.544 -1.6768  0.6105 -0.5364
 2617TIP3    H229267   1.628   4.086   0.412  1.7934 -0.5467 -0.2863
 2618TIP3   OH229268   4.181   2.909  16.977 -0.1306 -0.0460 -0.4303
 2618TIP3    H129269   4.128   2.883  17.052  1.3921  2.7083  1.7895
 2618TIP3    H229270   4.168   2.839  16.913 -3.0578 -1.5484  1.5911
 2619TIP3   OH229271   3.506   0.791   0.909  0.3903 -0.2723 -0.2277
 2619TIP3    H129272   3.457   0.866   0.875 -0.0310 -1.0241 -1.3544
 2619TIP3    H229273   3.487   0.720   0.847  1.0111 -1.2328  0.6427
 2620TIP3   OH229274   6.679   2.603  15.585 -0.0259 -0.0855  0.0892
 2620TIP3    H129275   6.671   2.593  15.679  0.5328  1.2949  0.3022
 2620TIP3    H229276   6.598   2.565  15.550 -0.2265 -0.6359  1.1048
 2621TIP3   OH229277   2.980   0.405  11.140  0.1977 -0.0323  0.0962
 2621TIP3    H129278   3.073   0.383  11.147  0.7923  1.0764 -2.9352
 2621TIP3    H229279   2.938   0.323  11.116  0.5099 -0.3431  0.5854
 2622TIP3   OH229280   1.179   5.107  14.336  0.2646 -0.4129 -0.0120
 2622TIP3    H129281   1.165   5.012  14.345 -0.2032 -0.1642  2.4437
 2622TIP3    H229282   1.097   5.146  14.363  1.7063  0.7559  3.1231
 2623TIP3   OH229283   4.143   4.841   4.491 -0.1661  0.0438 -0.2182
 2623TIP3    H129284   4.075   4.896   4.530  1.4155  0.2192  2.5341
 2623TIP3    H229285   4.137   4.859   4.397 -2.1225  2.0972  0.2049
 2624TIP3   OH229286   3.103   6.403  15.599  0.7823 -0.0121 -0.1125
 2624TIP3    H129287   3.057   6.449  15.669  0.1122  0.1859 -0.6712
 2624TIP3    H229288   3.178   6.361  15.642  1.8228  2.1582  0.2952
 2625TIP3   OH229289   6.488   6.552  12.838 -0.0963  0.2005 -0.2892
 2625TIP3    H129290   6.396   6.531  12.821  0.1867 -0.8021 -0.6562
 2625TIP3    H229291   6.524   6.471  12.874  0.3596  0.9549  1.0157
 2626TIP3   OH229292   1.570   1.926   3.590  0.1197  0.3288 -0.1582
 2626TIP3    H129293   1.649   1.961   3.631  0.5107  0.8290 -1.2891
 2626TIP3    H229294   1.592   1.918   3.497 -0.8718 -0.3625 -0.3580
 2627TIP3   OH229295   5.990   0.335  15.271  0.0740  0.4726 -0.2009
 2627TIP3    H129296   6.056   0.383  15.322  1.4340  0.0701 -1.5268
 2627TIP3    H229297   5.968   0.394  15.199 -1.7470  0.9857  0.7128
 2628TIP3   OH229298   4.257   0.839  11.324 -0.2716 -0.2289  0.9568
 2628TIP3    H129299   4.260   0.743  11.329  1.1204 -0.1721  1.7771
 2628TIP3    H229300   4.344   0.864  11.291 -0.3209  0.7785  1.5475
 2629TIP3   OH229301   2.986   1.064   3.620 -0.1848  0.2880 -0.5669
 2629TIP3    H129302   2.896   1.047   3.650 -0.1267 -1.0989 -1.0893
 2629TIP3    H229303   3.008   1.150   3.656 -2.4465  1.6173 -2.0890
 2630TIP3   OH229304   5.307   5.241  16.092  0.1845  0.1891 -0.3523
 2630TIP3    H129305   5.216   5.215  16.103  0.5893 -0.7582  0.9121
 2630TIP3    H229306   5.310   5.332  16.122 -0.5508  0.6239 -1.5268
 2631TIP3   OH229307   1.095   6.109  12.243  0.0388  0.0950 -0.1602
 2631TIP3    H129308   1.028   6.132  12.307 -0.1396  1.2043 -0.7236
 2631TIP3    H229309   1.178   6.134  12.285 -0.0206  0.1716 -0.0886
 2632TIP3   OH229310   3.771   3.971  11.017  0.7420  0.2450  0.2364
 2632TIP3    H129311   3.788   4.060  10.986 -0.0821  0.4648  0.3983
 2632TIP3    H229312   3.789   3.915  10.942 -1.7824  0.8064 -0.8742
 2633TIP3   OH229313   0.500   6.006   2.301 -0.0206 -0.0578  0.4756
 2633TIP3    H129314   0.574   6.031   2.247  1.2585  1.8639  2.9315
 2633TIP3    H229315   0.424   6.011   2.242  1.4192  0.5385 -1.4331
 2634TIP3   OH229316   0.861   5.995   0.625 -0.6619 -0.7168 -0.1922
 2634TIP3    H129317   0.831   5.927   0.565  0.5982 -1.4598 -0.0199
 2634TIP3    H229318   0.842   6.077   0.579 -1.1752 -1.2102 -0.8963
 2635TIP3   OH229319   1.164   2.220   1.265 -0.1919  0.0626 -0.2854
 2635TIP3    H129320   1.158   2.131   1.298  2.6660 -0.4868 -0.9836
 2635TIP3    H229321   1.118   2.218   1.181 -1.4488 -0.2980  0.3750
 2636TIP3   OH229322   0.421   6.704   0.594  0.2509  0.3979  0.0304
 2636TIP3    H129323   0.356   6.768   0.564  0.3572  1.4933  1.9874
 2636TIP3    H229324   0.505   6.747   0.579  0.4263 -0.0937 -0.4213
 2637TIP3   OH229325   2.154   3.835  13.409 -0.2482  0.4261 -0.2315
 2637TIP3    H129326   2.185   3.769  13.471 -0.3604  0.8067  0.2322
 2637TIP3    H229327   2.189   3.918  13.442 -1.0921  0.7548 -0.1357
 2638TIP3   OH229328   1.248   0.297  16.516 -0.5314 -0.1221  0.3323
 2638TIP3    H129329   1.225   0.205  16.511  3.0158 -1.0769 -1.2872
 2638TIP3    H229330   1.323   0.300  16.576 -1.5670  2.0375  1.6648
 2639TIP3   OH229331   3.105   5.100   3.118  0.1288 -0.2346 -0.2147
 2639TIP3    H129332   3.164   5.050   3.061 -0.1305 -0.6551 -0.1228
 2639TIP3    H229333   3.018   5.066   3.098 -0.0813  0.3683 -0.3354
 2640TIP3   OH229334   5.435   5.819  15.915  0.3011  0.8497 -0.5207
 2640TIP3    H129335   5.515   5.866  15.889  1.0601  0.5582  1.1719
 2640TIP3    H229336   5.467   5.740  15.959 -0.9478  0.1216 -0.8905
 2641TIP3   OH229337   6.480   6.371   6.089 -0.0653 -0.1773 -0.0236
 2641TIP3    H129338   6.452   6.386   5.999  0.7234  0.9115 -0.1045
 2641TIP3    H229339   6.418   6.307   6.123 -0.6465 -0.2591 -1.1995
 2642TIP3   OH229340   6.464   5.857   2.462  0.2547  0.7580 -0.2654
 2642TIP3    H129341   6.496   5.767   2.468  0.3561  0.8380  0.6118
 2642TIP3    H229342   6.468   5.890   2.552  1.0705  1.9287 -0.6993
 2643TIP3   OH229343   4.524   6.295  13.168 -0.4945 -0.5128  0.2445
 2643TIP3    H129344   4.520   6.240  13.246  0.4874 -1.9420 -0.6747
 2643TIP3    H229345   4.452   6.357  13.179 -1.7820 -2.0970  1.2375
 2644TIP3   OH229346   2.475   5.810   0.252  0.2765  0.1645  0.2177
 2644TIP3    H129347   2.521   5.892   0.268  1.3596  0.1486 -2.3556
 2644TIP3    H229348   2.462   5.808   0.157 -2.1565 -1.3929  0.4911
 2645TIP3   OH229349   1.243   4.362   4.048  0.3696 -0.1494  0.2626
 2645TIP3    H129350   1.212   4.289   3.995  0.0924 -0.2771  0.5998
 2645TIP3    H229351   1.325   4.388   4.007 -0.3282  0.4075 -0.8464
 2646TIP3   OH229352   5.572   2.670  14.384 -0.8693  0.1235  0.2650
 2646TIP3    H129353   5.498   2.728  14.362 -0.0804  0.6973 -1.0333
 2646TIP3    H229354   5.647   2.729  14.389 -0.5413 -0.3976  1.9974
 2647TIP3   OH229355   0.847   5.915  13.108 -0.0475 -0.4000  0.2301
 2647TIP3    H129356   0.931   5.883  13.076 -0.3890 -1.5201  0.4152
 2647TIP3    H229357   0.844   5.890  13.200 -0.7812 -0.8163  0.1070
 2648TIP3   OH229358   1.859   0.116   0.993  0.1594  0.1084  0.3854
 2648TIP3    H129359   1.924   0.169   1.039 -1.3697  1.2953  1.2672
 2648TIP3    H229360   1.846   0.161   0.909  2.5167 -1.7359 -1.1262
 2649TIP3   OH229361   3.198   1.275   5.287  0.3031  0.1574 -0.3165
 2649TIP3    H129362   3.151   1.195   5.309  0.7634  0.1860  0.8123
 2649TIP3    H229363   3.280   1.245   5.248  0.6031  0.0639  0.3730
 2650TIP3   OH229364   5.125   0.028  16.663 -0.0399 -1.0414  0.2104
 2650TIP3    H129365   5.132   0.094  16.595  3.0996 -1.2496  0.1682
 2650TIP3    H229366   5.080   0.073  16.735  1.4494  0.9984 -0.0353
 2651TIP3   OH229367   4.255   4.956  17.164  0.1888 -0.3978 -0.2144
 2651TIP3    H129368   4.284   5.045  17.148 -1.6889  0.8149  2.4073
 2651TIP3    H229369   4.224   4.956  17.254 -1.4211 -3.2827 -0.6259
 2652TIP3   OH229370   2.759   1.665   6.294  0.2794 -0.1110 -0.3848
 2652TIP3    H129371   2.805   1.714   6.226 -0.2293  1.1725  0.1730
 2652TIP3    H229372   2.693   1.726   6.328  0.6911 -0.6225  1.4410
 2653TIP3   OH229373   5.839   2.564  13.752 -0.1067  0.1215  0.3420
 2653TIP3    H129374   5.811   2.596  13.838  1.2335 -0.8897  1.1927
 2653TIP3    H229375   5.762   2.519  13.717 -0.6759  0.5608  1.0042
 2654TIP3   OH229376   5.029   5.225  16.185  0.5226 -0.0963 -0.5515
 2654TIP3    H129377   4.985   5.143  16.160  0.8330 -0.1760 -0.8536
 2654TIP3    H229378   4.965   5.271  16.239 -0.5567  0.5318 -2.2889
 2655TIP3   OH229379   0.862   0.654  14.848  0.1086 -0.2159  0.1683
 2655TIP3    H129380   0.801   0.728  14.839  0.4043  0.0507  0.3668
 2655TIP3    H229381   0.854   0.627  14.939 -0.2449 -0.6465  0.0156
 2656TIP3   OH229382   5.414   0.717   3.477  0.0885  0.5241  0.3407
 2656TIP3    H129383   5.469   0.681   3.408 -0.2752  1.9142 -0.7201
 2656TIP3    H229384   5.325   0.704   3.447 -0.0609  3.1968 -0.6494
 2657TIP3   OH229385   4.047   2.750  12.140  0.0592 -0.3615 -0.4960
 2657TIP3    H129386   3.996   2.670  12.132  0.0605 -0.2835 -1.3410
 2657TIP3    H229387   4.069   2.755  12.233  0.9098 -1.8657 -0.5750
 2658TIP3   OH229388   0.059   4.297  12.534 -0.0209  0.6827 -0.4682
 2658TIP3    H129389   0.021   4.358  12.598 -1.4013 -0.2780 -0.3303
 2658TIP3    H229390   0.026   4.211  12.560  1.8197 -0.1447 -0.7098
 2659TIP3   OH229391   0.327   0.580   4.294  0.3415 -0.2339 -0.8001
 2659TIP3    H129392   0.280   0.654   4.256 -1.2506 -0.4998  0.5323
 2659TIP3    H229393   0.281   0.503   4.262 -1.3554 -0.4641  1.8487
 2660TIP3   OH229394   1.700   4.068  10.600  0.2338  0.3687 -0.4629
 2660TIP3    H129395   1.636   4.107  10.541 -0.2058 -0.7730 -0.7584
 2660TIP3    H229396   1.750   4.143  10.633 -0.9188  1.2334 -0.6076
 2661TIP3   OH229397   4.886   4.211   3.111  0.5496  0.3678  0.0246
 2661TIP3    H129398   4.956   4.269   3.082  0.1682 -0.0383 -1.8060
 2661TIP3    H229399   4.858   4.165   3.032 -2.3051  1.0604  0.5110
 2662TIP3   OH229400   3.111   4.790   3.292  0.3150  0.1015  0.1732
 2662TIP3    H129401   3.180   4.854   3.272 -0.4711  0.5753 -1.1394
 2662TIP3    H229402   3.030   4.841   3.289 -0.2986 -0.8922 -0.5557
 2663TIP3   OH229403   0.105   5.579  14.812  0.1891 -0.0697  0.0819
 2663TIP3    H129404   0.047   5.518  14.765 -1.5442 -0.6955  2.7709
 2663TIP3    H229405   0.065   5.665  14.799  0.3162 -0.0770 -0.3902
 2664TIP3   OH229406   0.372   4.206  14.557  0.1219  0.0894 -0.1107
 2664TIP3    H129407   0.320   4.238  14.483  0.2313 -1.0276 -0.6948
 2664TIP3    H229408   0.451   4.260  14.557  1.2176 -1.4070 -2.2878
 2665TIP3   OH229409   3.711   2.878  14.734  0.5058 -0.1435 -0.2848
 2665TIP3    H129410   3.655   2.871  14.657 -0.1246  1.4704 -0.0186
 2665TIP3    H229411   3.674   2.815  14.796 -1.8987  1.6932  0.3444
 2666TIP3   OH229412   0.569   6.086   5.672  0.1061 -0.4005 -0.2788
 2666TIP3    H129413   0.651   6.080   5.721  0.9718  1.5050 -1.3870
 2666TIP3    H229414   0.576   6.018   5.605  0.8801 -0.1063 -0.5008
 2667TIP3   OH229415   2.658   0.412  11.592 -0.5576  0.4626 -0.0212
 2667TIP3    H129416   2.627   0.423  11.502 -0.3329  1.3716  0.0050
 2667TIP3    H229417   2.744   0.372  11.583 -1.4689 -1.6705 -0.1085
 2668TIP3   OH229418   3.743   5.886   5.362  0.5087  0.9911 -0.2609
 2668TIP3    H129419   3.710   5.976   5.358  0.5851  1.0043 -0.6476
 2668TIP3    H229420   3.673   5.833   5.325  1.5366  1.1966 -2.6888
 2669TIP3   OH229421   5.451   6.654  15.040  0.7071 -1.0205  0.4204
 2669TIP3    H129422   5.379   6.713  15.059  1.5977  0.1929  0.1263
 2669TIP3    H229423   5.432   6.576  15.093  0.5179  0.2714  2.3864
 2670TIP3   OH229424   1.494   5.458  12.724  0.2796  0.0886  0.2633
 2670TIP3    H129425   1.529   5.538  12.763  2.0960  0.2287 -1.4848
 2670TIP3    H229426   1.561   5.392  12.743 -0.3900 -0.6217  0.2097
 2671TIP3   OH229427   0.613   6.072  12.260 -0.2978  0.5107  0.1419
 2671TIP3    H129428   0.600   6.015  12.184  0.9852  1.1301 -0.5669
 2671TIP3    H229429   0.687   6.128  12.236  0.1467  0.7096  1.8657
 2672TIP3   OH229430   5.074   4.130  14.904 -0.4411  0.2131 -0.7336
 2672TIP3    H129431   5.098   4.118  14.996 -0.5087 -0.9653 -0.8582
 2672TIP3    H229432   5.022   4.053  14.882 -1.9457  1.3273 -1.2833
 2673TIP3   OH229433   6.253   4.036  14.809  0.4874 -0.5579 -0.1416
 2673TIP3    H129434   6.194   4.059  14.881 -0.1895 -0.3641 -0.7439
 2673TIP3    H229435   6.321   3.981  14.849 -1.8155 -3.5121  0.0255
 2674TIP3   OH229436   2.874   4.596   0.427 -0.0313 -0.1799  0.0374
 2674TIP3    H129437   2.835   4.683   0.437  0.3193  0.0077 -0.2295
 2674TIP3    H229438   2.961   4.604   0.466 -0.6853 -0.9317  1.7665
 2675TIP3   OH229439   5.918   1.254   5.960 -0.5045  0.8969 -0.4456
 2675TIP3    H129440   5.875   1.316   5.902  1.4618  0.3306 -2.6782
 2675TIP3    H229441   5.882   1.273   6.047 -1.9080  3.3370 -1.4593
 2676TIP3   OH229442   6.008   2.506  15.973  0.0384  0.0481  0.0619
 2676TIP3    H129443   5.913   2.515  15.981  0.1742  0.5740  1.3660
 2676TIP3    H229444   6.025   2.509  15.879 -1.1398  0.9982 -0.1395
 2677TIP3   OH229445   0.393   1.936  14.208  0.1327  0.4294 -0.0585
 2677TIP3    H129446   0.343   1.987  14.144 -0.8099  0.4604  0.6880
 2677TIP3    H229447   0.348   1.851  14.210  1.3144 -0.2502 -0.8323
 2678TIP3   OH229448   4.858   4.329  13.874 -0.1628 -0.7154  0.2167
 2678TIP3    H129449   4.930   4.277  13.910 -0.2631 -0.7748  0.3293
 2678TIP3    H229450   4.877   4.418  13.901 -0.0446 -0.7062  0.1082
 2679TIP3   OH229451   5.571   1.559   1.495  0.0610 -0.1983 -0.4078
 2679TIP3    H129452   5.543   1.562   1.404 -1.0265  2.8054 -0.0784
 2679TIP3    H229453   5.517   1.491   1.535  0.6301 -1.6305 -1.9602
 2680TIP3   OH229454   2.176   5.377  16.118 -0.1908  0.5189 -0.5161
 2680TIP3    H129455   2.166   5.282  16.115  0.2522  0.4670 -0.3186
 2680TIP3    H229456   2.208   5.401  16.031  0.7944  0.3615 -0.2025
 2681TIP3   OH229457   0.005   0.969   1.027 -0.1951 -0.2366  0.0325
 2681TIP3    H129458  -0.008   0.923   0.944  0.2729 -2.2723  1.0035
 2681TIP3    H229459   0.093   0.944   1.055  0.0339  1.2085  0.6781
 2682TIP3   OH229460   4.238   4.179  14.621 -0.3789 -0.4628 -0.0140
 2682TIP3    H129461   4.298   4.184  14.696 -0.1266 -0.4225 -0.2162
 2682TIP3    H229462   4.165   4.235  14.645  0.1970  0.4080 -0.2472
 2683TIP3   OH229463   2.346   3.289  14.211  0.3382  0.2791 -0.2721
 2683TIP3    H129464   2.366   3.316  14.301  1.3166 -0.0687 -0.3799
 2683TIP3    H229465   2.266   3.236  14.219  0.2993  0.4217  0.3557
 2684TIP3   OH229466   2.106   4.402  13.951  0.1790  0.2677 -0.1168
 2684TIP3    H129467   2.048   4.421  13.877  0.1845  1.2611  0.1246
 2684TIP3    H229468   2.057   4.338  14.003  0.5328 -1.1091 -1.3937
 2685TIP3   OH229469   4.788   4.986  12.794 -0.3318 -0.4721 -0.3306
 2685TIP3    H129470   4.709   4.945  12.830 -1.3467  2.4507  1.0821
 2685TIP3    H229471   4.859   4.954  12.850 -0.9060 -1.1419  0.0353
 2686TIP3   OH229472   6.447   4.405   0.725  0.4817  0.0125  0.5179
 2686TIP3    H129473   6.512   4.334   0.727 -0.2664 -0.8041 -1.5769
 2686TIP3    H229474   6.491   4.476   0.680 -0.0048 -0.5154 -0.8368
 2687TIP3   OH229475   5.668   3.343   5.805 -0.1247 -0.0897  0.0136
 2687TIP3    H129476   5.763   3.341   5.799 -0.0997 -3.0746 -0.1537
 2687TIP3    H229477   5.649   3.386   5.888  1.3921 -0.1039  0.3807
 2688TIP3   OH229478   3.183   2.704  15.560 -0.2159  0.2239  0.7505
 2688TIP3    H129479   3.134   2.747  15.630  0.9744  0.2654  1.5888
 2688TIP3    H229480   3.248   2.770  15.533  0.7309 -0.5426  1.1087
 2689TIP3   OH229481   2.995   4.357   2.832 -0.2725 -0.1886  0.8929
 2689TIP3    H129482   3.083   4.395   2.843 -0.4776  0.2492  1.0622
 2689TIP3    H229483   2.986   4.346   2.737  0.0687 -0.4816  0.8956
 2690TIP3   OH229484   0.646   5.048  14.325 -0.0046 -0.4156 -0.1857
 2690TIP3    H129485   0.724   5.026  14.377 -0.1564  0.7426  0.5748
 2690TIP3    H229486   0.631   4.972  14.270 -0.1711 -1.9676  1.8867
 2691TIP3   OH229487   6.495   3.879   1.146  0.4260 -0.3426  0.4061
 2691TIP3    H129488   6.575   3.911   1.188  0.4375 -0.6544  0.6277
 2691TIP3    H229489   6.440   3.851   1.219  0.8387 -1.8027  0.1830
 2692TIP3   OH229490   2.636   0.662   1.654 -0.2576  0.1491  0.5700
 2692TIP3    H129491   2.657   0.679   1.745 -2.7827 -0.8645  1.4210
 2692TIP3    H229492   2.582   0.736   1.627  1.2444  0.9147 -0.4237
 2693TIP3   OH229493   4.683   4.145   3.265  0.1274  0.5299  0.0145
 2693TIP3    H129494   4.755   4.181   3.213 -0.4477  1.4688 -0.1468
 2693TIP3    H229495   4.726   4.109   3.343  0.9578 -0.6095 -0.9407
 2694TIP3   OH229496   1.875   5.653  14.170  0.2020  0.6635  0.3842
 2694TIP3    H129497   1.844   5.652  14.260  2.1521  1.2410  1.1054
 2694TIP3    H229498   1.910   5.741  14.157 -2.7920  1.6641 -1.9938
 2695TIP3   OH229499   3.787   1.365   5.829  0.3477  0.0116  0.3491
 2695TIP3    H129500   3.757   1.434   5.888  0.1685  1.1220 -0.9848
 2695TIP3    H229501   3.724   1.294   5.842  1.4081 -0.5706  2.8553
 2696TIP3   OH229502   6.148   5.663   2.706  0.1083 -0.2275  0.3671
 2696TIP3    H129503   6.114   5.726   2.769  0.8504  1.0937 -0.4922
 2696TIP3    H229504   6.243   5.664   2.721  0.1633 -0.8635  0.0861
 2697TIP3   OH229505   0.824   6.272  12.271 -0.2495 -0.1828 -0.7055
 2697TIP3    H129506   0.889   6.308  12.210 -1.1716  1.4250 -0.8064
 2697TIP3    H229507   0.846   6.311  12.355 -0.2588 -0.7233 -0.4528
 2698TIP3   OH229508   1.651   0.720   4.637 -0.2337  0.3987  0.7921
 2698TIP3    H129509   1.671   0.775   4.561 -0.7413  0.3668  0.6339
 2698TIP3    H229510   1.654   0.631   4.604 -1.2161  0.4160  0.6211
 2699TIP3   OH229511   0.254   2.947  16.375  0.6260  0.4363  0.5073
 2699TIP3    H129512   0.175   2.946  16.321  1.3047 -0.4484 -0.5211
 2699TIP3    H229513   0.304   2.871  16.345  2.2833  1.4919  0.4878
 2700TIP3   OH229514   0.959   0.444   5.852 -0.0172 -0.1793  0.3866
 2700TIP3    H129515   1.040   0.412   5.892 -0.6126 -2.0629  0.1887
 2700TIP3    H229516   0.893   0.438   5.922 -0.6725 -1.8160 -0.3149
 2701TIP3   OH229517   2.218   0.787  14.688 -0.0338  0.0015 -0.1339
 2701TIP3    H129518   2.133   0.825  14.710 -0.5613 -0.8393 -0.6593
 2701TIP3    H229519   2.214   0.773  14.593  0.8498  0.3229 -0.2257
 2702TIP3   OH229520   2.995   6.349  14.290  0.6372  0.6633  0.0261
 2702TIP3    H129521   3.073   6.294  14.287 -0.6177 -1.2665  0.7919
 2702TIP3    H229522   3.025   6.432  14.326  2.5486  0.4020 -0.8817
 2703TIP3   OH229523   5.103   0.491   0.806 -0.0342 -0.1329 -0.4641
 2703TIP3    H129524   5.153   0.528   0.879  2.9223 -0.5975 -2.0871
 2703TIP3    H229525   5.113   0.397   0.814  0.6409 -0.1855 -1.6120
 2704TIP3   OH229526   2.690   6.331   5.742 -0.4091 -0.1139  0.0384
 2704TIP3    H129527   2.734   6.310   5.824  0.5093 -1.5233 -0.7549
 2704TIP3    H229528   2.752   6.303   5.674 -1.2241  0.8234 -1.1299
 2705TIP3   OH229529   5.012   3.775   2.313  0.1224  0.2329  0.0893
 2705TIP3    H129530   5.103   3.747   2.317 -0.0382 -0.2216  0.7571
 2705TIP3    H229531   4.999   3.800   2.222  1.0399  0.7431  0.0897
 2706TIP3   OH229532   1.817   0.386  15.357  0.2203 -0.2143  0.1998
 2706TIP3    H129533   1.838   0.479  15.358 -1.2601  0.1811 -1.3314
 2706TIP3    H229534   1.813   0.363  15.265 -0.0216 -1.6600  0.5417
 2707TIP3   OH229535   5.943   5.354   3.095  0.2548 -0.1407  0.0977
 2707TIP3    H129536   6.032   5.379   3.120  0.4046 -0.9170  0.3788
 2707TIP3    H229537   5.948   5.337   3.001  0.5745 -0.8355  0.2300
 2708TIP3   OH229538   5.229   0.490  16.635 -0.3011  0.3572  0.0587
 2708TIP3    H129539   5.190   0.576  16.621 -2.0935 -0.3231  0.6182
 2708TIP3    H229540   5.156   0.435  16.664  0.7422 -1.4333 -0.5711
 2709TIP3   OH229541   4.053   0.126   5.818 -0.1605 -0.2418 -0.3371
 2709TIP3    H129542   4.103   0.068   5.760  0.9027  1.1129 -0.8259
 2709TIP3    H229543   4.112   0.142   5.892 -0.6295 -0.1398  0.0203
 2710TIP3   OH229544   1.768   5.622  11.771 -0.8913 -0.8344  0.2225
 2710TIP3    H129545   1.819   5.645  11.693 -1.3463 -0.7855 -0.0618
 2710TIP3    H229546   1.774   5.699  11.827 -0.6600 -0.8259  0.1894
 2711TIP3   OH229547   1.656   4.079  14.513  0.0485 -0.4154  0.4390
 2711TIP3    H129548   1.609   4.068  14.431  1.0241 -2.5097  0.0954
 2711TIP3    H229549   1.722   4.146  14.495  0.5706 -1.2029 -0.6488
 2712TIP3   OH229550   5.046   2.812   0.619 -0.0895  0.5777 -0.1033
 2712TIP3    H129551   4.952   2.817   0.607  0.0939  0.0728 -2.0347
 2712TIP3    H229552   5.060   2.837   0.710 -2.0218  1.2155  0.0540
 2713TIP3   OH229553   0.479   3.988   1.775  0.4138 -0.0115 -0.2027
 2713TIP3    H129554   0.562   3.941   1.784  0.3735  0.1168  1.1330
 2713TIP3    H229555   0.421   3.945   1.838 -0.6728 -0.3669 -1.4254
 2714TIP3   OH229556   5.638   4.630  14.446  0.1333 -0.3101  0.2169
 2714TIP3    H129557   5.685   4.555  14.484  1.2411  0.7813  1.1028
 2714TIP3    H229558   5.679   4.644  14.361  1.0780  0.2836  0.7482
 2715TIP3   OH229559   2.652   6.279  15.665  0.0680  0.8405 -0.6960
 2715TIP3    H129560   2.730   6.229  15.645  0.0013 -0.0918  1.1273
 2715TIP3    H229561   2.615   6.236  15.742 -1.0145  2.5931 -0.1658
 2716TIP3   OH229562   6.218   2.563  14.215  0.2678 -0.0105 -0.0358
 2716TIP3    H129563   6.287   2.607  14.164  0.3734 -1.7883 -1.5682
 2716TIP3    H229564   6.157   2.532  14.148 -0.5983 -0.8052  1.1063
 2717TIP3   OH229565   1.468   0.917   3.851  0.3933  1.0640  0.3963
 2717TIP3    H129566   1.541   0.856   3.841  0.6849  1.6395 -1.3653
 2717TIP3    H229567   1.395   0.862   3.881  0.9083  0.0440 -0.1674
 2718TIP3   OH229568   6.311   0.418   0.030  0.2609 -0.5836 -0.5956
 2718TIP3    H129569   6.348   0.469   0.102 -0.0833 -0.8219 -0.2527
 2718TIP3    H229570   6.346   0.461  -0.049 -0.4137  0.4933 -0.3360
 2719TIP3   OH229571   1.689   1.933   6.686  0.2359  0.1174  0.2788
 2719TIP3    H129572   1.774   1.934   6.641  0.4474 -1.5756  0.5846
 2719TIP3    H229573   1.645   1.855   6.652 -0.3123 -0.2219  1.7253
 2720TIP3   OH229574   1.246   4.557   4.990 -0.0974 -0.1637  0.0935
 2720TIP3    H129575   1.244   4.553   5.086 -0.9765  0.5513  0.1255
 2720TIP3    H229576   1.278   4.645   4.970 -1.9796  0.4972 -0.2140
 2721TIP3   OH229577   0.967   2.255   2.192  0.5341 -0.1546 -0.4075
 2721TIP3    H129578   0.878   2.281   2.170 -0.5662 -1.2486  2.3449
 2721TIP3    H229579   1.010   2.337   2.217 -1.5016 -0.1022  3.6890
 2722TIP3   OH229580   3.472   5.922   2.658 -0.3387  0.1043  0.6894
 2722TIP3    H129581   3.514   5.964   2.733 -1.1652  1.3538  0.4709
 2722TIP3    H229582   3.382   5.907   2.686 -0.7431  0.8687 -0.1386
 2723TIP3   OH229583   1.044   6.393   5.897 -0.1634  0.0175  0.1954
 2723TIP3    H129584   1.017   6.483   5.882 -1.2821 -0.3720 -0.2921
 2723TIP3    H229585   1.123   6.399   5.950 -0.2398  1.2789  0.1782
 2724TIP3   OH229586   0.576   2.559   5.800 -0.3257 -0.1353 -0.1418
 2724TIP3    H129587   0.607   2.649   5.805 -1.1217  0.1600 -0.2957
 2724TIP3    H229588   0.539   2.541   5.886 -0.1146 -0.3333 -0.0929
 2725TIP3   OH229589   6.620   6.738  11.200  0.4854  0.0613  0.7283
 2725TIP3    H129590   6.571   6.797  11.142  1.6305 -0.2402 -0.6107
 2725TIP3    H229591   6.596   6.650  11.169 -1.0252 -0.2247  2.5515
 2726TIP3   OH229592   1.500   5.544  16.392  0.0352  0.9330 -0.4862
 2726TIP3    H129593   1.495   5.516  16.483 -1.0591  1.9573 -0.2166
 2726TIP3    H229594   1.472   5.467  16.342 -0.8271  0.8385  0.1247
 2727TIP3   OH229595   3.622   3.109   1.327  0.4854 -0.0640 -0.3982
 2727TIP3    H129596   3.578   3.138   1.407  0.0617 -2.7207  0.4334
 2727TIP3    H229597   3.560   3.049   1.285  1.7543 -0.8145 -1.2979
 2728TIP3   OH229598   4.519   5.182  11.466  0.3948 -0.5115 -0.0469
 2728TIP3    H129599   4.550   5.232  11.390 -0.6101  1.1246  0.5524
 2728TIP3    H229600   4.432   5.151  11.440  0.3544 -0.5756  0.1652
 2729TIP3   OH229601   6.296   0.520   3.451 -0.3882 -0.0680  0.5650
 2729TIP3    H129602   6.218   0.494   3.500  0.1696 -1.4927  0.7127
 2729TIP3    H229603   6.303   0.615   3.467 -1.1996 -0.1937  1.8027
 2730TIP3   OH229604   5.098   3.089  13.810  0.5321 -0.3475  0.0500
 2730TIP3    H129605   5.160   3.161  13.808 -0.5493  0.6574  0.9960
 2730TIP3    H229606   5.067   3.081  13.720 -1.1722  2.0940  0.3080
 2731TIP3   OH229607   3.609   0.040   1.375 -0.4027 -0.5636  0.5805
 2731TIP3    H129608   3.664   0.081   1.308  1.5980 -0.7631  2.0277
 2731TIP3    H229609   3.540  -0.005   1.325  0.0518  0.6431 -1.2433
 2732TIP3   OH229610   2.184   1.925  12.419  0.1976  0.1052  0.0350
 2732TIP3    H129611   2.129   1.985  12.468 -1.7215  0.4551 -2.3488
 2732TIP3    H229612   2.263   1.975  12.398 -0.6137  1.2339 -0.4185
 2733TIP3   OH229613   5.493   3.063  16.580 -0.7450  0.0483 -0.0410
 2733TIP3    H129614   5.492   3.130  16.513 -2.0135  0.5003  0.3898
 2733TIP3    H229615   5.576   3.076  16.627  1.2637 -1.6912 -2.8284
 2734TIP3   OH229616   0.995   1.289   3.086  0.1490  0.1469 -0.4157
 2734TIP3    H129617   1.010   1.370   3.135 -0.8217  0.2383 -0.2511
 2734TIP3    H229618   0.913   1.305   3.039 -1.0231 -1.3665  0.9956
 2735TIP3   OH229619   3.772   3.437   3.381  0.7516 -0.6203 -0.2860
 2735TIP3    H129620   3.858   3.430   3.339  0.0288 -0.8598 -1.8370
 2735TIP3    H229621   3.755   3.350   3.416  1.8906 -0.1046  1.6864
 2736TIP3   OH229622   0.303   5.481   6.454 -0.6054  0.1064  0.7571
 2736TIP3    H129623   0.246   5.419   6.409 -0.9940  0.0989  1.2525
 2736TIP3    H229624   0.381   5.431   6.476  0.6050  0.6485 -1.8765
 2737TIP3   OH229625   1.961   2.040   5.577 -0.4139 -0.4589 -0.1561
 2737TIP3    H129626   2.004   1.955   5.570 -1.6863 -1.1945  0.5791
 2737TIP3    H229627   1.903   2.031   5.653  0.2280  1.4334  0.6078
 2738TIP3   OH229628   2.075   2.926  11.346  0.0662 -0.0589 -0.2972
 2738TIP3    H129629   1.980   2.918  11.344  0.2656 -3.2680 -1.5276
 2738TIP3    H229630   2.096   2.979  11.270 -0.7431  2.5616  1.1638
 2739TIP3   OH229631   2.309   2.488   1.089  0.7775 -0.2430 -0.1271
 2739TIP3    H129632   2.233   2.522   1.135  0.7790  0.2366 -0.4736
 2739TIP3    H229633   2.312   2.395   1.113  0.6093 -0.0691  0.5985
 2740TIP3   OH229634   3.890   4.230  12.518 -0.1229  0.1473 -0.0625
 2740TIP3    H129635   3.826   4.187  12.575 -2.2158 -1.3865 -3.3012
 2740TIP3    H229636   3.847   4.311  12.490  0.1645  0.0632 -0.7654
 2741TIP3   OH229637   6.082   4.760  13.093  0.1383  0.8772 -0.0150
 2741TIP3    H129638   6.177   4.744  13.095 -0.1454 -0.9824  1.2315
 2741TIP3    H229639   6.073   4.855  13.104  1.8250  0.9275  1.3406
 2742TIP3   OH229640   6.153   4.983  11.054  0.2071  1.0902 -0.5637
 2742TIP3    H129641   6.166   4.974  11.149 -1.7061 -0.8369 -0.4175
 2742TIP3    H229642   6.062   4.961  11.040  0.6508  0.5380 -2.9718
 2743TIP3   OH229643   4.743   2.713   0.188  0.0882 -0.1695 -0.3152
 2743TIP3    H129644   4.821   2.763   0.214  0.6858 -0.9893 -0.4774
 2743TIP3    H229645   4.753   2.629   0.233 -1.3041  0.1175  0.5902
 2744TIP3   OH229646   3.431   2.008   0.803  0.0702 -0.6291  0.0016
 2744TIP3    H129647   3.491   1.948   0.758  2.5133  1.3148  0.4785
 2744TIP3    H229648   3.433   2.088   0.751 -4.1549 -1.1750 -1.3607
 2745TIP3   OH229649   5.078   6.065   0.328 -0.3690  0.0236 -0.2243
 2745TIP3    H129650   5.100   6.157   0.340  2.9153  0.1895 -4.6668
 2745TIP3    H229651   5.009   6.066   0.261 -0.7948 -0.7562  0.1962
 2746TIP3   OH229652   1.926   5.521   2.313  0.3735 -0.2820  0.1628
 2746TIP3    H129653   1.979   5.578   2.257  0.7077 -1.4626 -0.7532
 2746TIP3    H229654   1.928   5.564   2.399  1.1998  0.7095 -0.3251
 2747TIP3   OH229655   6.032   5.005   1.494  0.0247 -0.2796  0.4259
 2747TIP3    H129656   6.056   5.039   1.580 -1.8453 -0.3598  1.0178
 2747TIP3    H229657   6.080   4.922   1.487  1.5370  0.5473  0.6286
 2748TIP3   OH229658   0.384   3.953   6.252  0.1144 -0.5841 -0.0060
 2748TIP3    H129659   0.299   3.971   6.292 -0.6913 -3.8995  0.0911
 2748TIP3    H229660   0.448   3.969   6.321 -0.2308  2.7255 -0.3082
 2749TIP3   OH229661   4.953   1.613  15.668 -0.3453 -0.0696 -0.1254
 2749TIP3    H129662   4.933   1.563  15.747 -1.8172 -0.9698 -1.0164
 2749TIP3    H229663   5.048   1.627  15.672 -0.4611  0.4115  2.0575
 2750TIP3   OH229664   4.428   6.677   0.563  0.4646  0.1554 -0.4186
 2750TIP3    H129665   4.510   6.697   0.606  0.4742  1.0057 -0.8095
 2750TIP3    H229666   4.394   6.762   0.535 -2.4275  0.3651  3.0296
 2751TIP3   OH229667   1.453   1.848  15.097 -0.2693 -0.4528  0.0620
 2751TIP3    H129668   1.491   1.761  15.111  0.8682  0.1082  0.5850
 2751TIP3    H229669   1.425   1.847  15.005 -0.3605 -1.3975  0.0849
 2752TIP3   OH229670   6.548   1.327  16.841 -0.0827 -0.6109  0.3995
 2752TIP3    H129671   6.504   1.275  16.774  0.4282  0.1411 -0.5480
 2752TIP3    H229672   6.630   1.355  16.800 -0.4548  1.1456  0.7784
 2753TIP3   OH229673   6.329   5.545   2.373  0.9999  0.0478  0.1183
 2753TIP3    H129674   6.386   5.588   2.437 -0.7415  1.6632  0.7000
 2753TIP3    H229675   6.290   5.618   2.324 -1.0187 -0.9180  0.1858
 2754TIP3   OH229676   0.531   6.746   2.313  0.3707 -0.3477 -0.1141
 2754TIP3    H129677   0.515   6.736   2.406  0.3083 -2.7462 -0.3062
 2754TIP3    H229678   0.448   6.775   2.276  0.3994  0.6063  0.5502
 2755TIP3   OH229679   1.185   4.353   3.282 -0.0871 -0.1287 -0.1918
 2755TIP3    H129680   1.201   4.293   3.355  0.4408  0.2533  0.0117
 2755TIP3    H229681   1.130   4.422   3.319 -1.1163 -0.7342 -0.5522
 2756TIP3   OH229682   2.294   0.016   1.069 -0.5682  0.1508  0.1004
 2756TIP3    H129683   2.340   0.084   1.020  0.0243 -0.3599 -0.0546
 2756TIP3    H229684   2.359  -0.019   1.129 -0.9142 -0.1895  0.2801
 2757TIP3   OH229685   1.459   6.258  13.990  0.0763 -0.3789 -0.4623
 2757TIP3    H129686   1.513   6.306  13.927  0.1768 -0.6917 -0.6148
 2757TIP3    H229687   1.373   6.254  13.950 -1.1805  3.3908  1.3453
 2758TIP3   OH229688   2.280   6.312   3.266  0.0011 -0.3906  0.2411
 2758TIP3    H129689   2.210   6.246   3.266 -1.2935  0.9169  1.3250
 2758TIP3    H229690   2.349   6.274   3.321 -0.0227 -1.5041 -0.4652
 2759TIP3   OH229691   2.946   4.200   0.607  0.4308 -0.0893  0.0658
 2759TIP3    H129692   3.021   4.148   0.580  0.8199 -0.4883  1.7735
 2759TIP3    H229693   2.883   4.189   0.536  0.5959 -2.7138  0.1937
 2760TIP3   OH229694   3.349   1.596   0.035  0.0615  0.6625 -0.4863
 2760TIP3    H129695   3.290   1.527   0.004  0.2441  0.9499 -1.5084
 2760TIP3    H229696   3.292   1.670   0.055  0.2057  1.9357 -4.1336
 2761TIP3   OH229697   5.318   3.218  13.455  0.2024 -0.1578  0.4458
 2761TIP3    H129698   5.303   3.210  13.361 -0.3427 -0.8366  0.5851
 2761TIP3    H229699   5.289   3.134  13.492 -0.3086  0.3802  1.3071
 2762TIP3   OH229700   6.187   5.092   0.714 -0.1866 -0.0092 -0.5299
 2762TIP3    H129701   6.166   5.002   0.689 -1.2089  0.3443 -0.9920
 2762TIP3    H229702   6.238   5.126   0.641 -1.1446  0.2740 -1.0787
 2763TIP3   OH229703   2.865   2.554  14.742  0.2938  0.4051  0.2116
 2763TIP3    H129704   2.830   2.536  14.829 -0.1759  0.6309  0.0729
 2763TIP3    H229705   2.843   2.646  14.725  1.3565  0.6920  0.3030
 2764TIP3   OH229706   4.295   1.883  15.707  0.4156  0.8876 -0.1342
 2764TIP3    H129707   4.277   1.827  15.783  0.8971  0.1965 -0.5203
 2764TIP3    H229708   4.258   1.968  15.731  1.8952  1.1325  1.5355
 2765TIP3   OH229709   6.132   3.770  15.859 -0.5892  0.3109 -0.4447
 2765TIP3    H129710   6.061   3.723  15.816 -2.4088  0.6361  1.9772
 2765TIP3    H229711   6.200   3.704  15.872 -0.1407  0.1110 -3.2579
 2766TIP3   OH229712   0.673   1.503  16.050 -0.4452 -0.1908  0.0317
 2766TIP3    H129713   0.753   1.544  16.017  0.1112  0.7563  2.4026
 2766TIP3    H229714   0.602   1.550  16.005  0.2724  0.9757  0.0743
 2767TIP3   OH229715   1.071   0.271  11.657  0.4757 -0.3214 -0.1838
 2767TIP3    H129716   0.989   0.222  11.651  0.3586 -0.1193 -0.2183
 2767TIP3    H229717   1.139   0.204  11.647  0.3432 -0.7032  1.2631
 2768TIP3   OH229718   1.701   5.614   0.756  0.4821  0.3767  0.3934
 2768TIP3    H129719   1.791   5.618   0.790 -0.3076  1.6061  2.5127
 2768TIP3    H229720   1.686   5.700   0.717 -0.5012  1.0722  2.1871
 2769TIP3   OH229721   4.027   5.883  12.585  0.3161 -0.4129  0.2437
 2769TIP3    H129722   3.933   5.864  12.593 -0.1198  1.1506 -0.7442
 2769TIP3    H229723   4.051   5.919  12.670 -0.2900  0.3686  0.0963
 2770TIP3   OH229724   5.890   3.265   3.800  0.0683  0.1534 -0.2375
 2770TIP3    H129725   5.814   3.210   3.780  0.8899 -1.0112 -0.2997
 2770TIP3    H229726   5.964   3.216   3.764  0.7456  1.7835 -1.1414
 2771TIP3   OH229727   2.619   5.993  11.908  0.3127 -0.4869 -0.1831
 2771TIP3    H129728   2.587   6.079  11.934 -0.7694 -1.2345  1.0772
 2771TIP3    H229729   2.682   6.011  11.838  0.4410  1.3439  0.3519
 2772TIP3   OH229730   6.229   6.512   5.544  0.2947 -0.3342  0.1372
 2772TIP3    H129731   6.241   6.433   5.491 -0.2682 -0.5170  0.2826
 2772TIP3    H229732   6.223   6.480   5.634  1.5270 -0.0015  0.3644
 2773TIP3   OH229733   0.969   2.054   0.205  0.1761 -0.1300  0.0115
 2773TIP3    H129734   0.923   2.075   0.124  0.1679 -1.0448 -0.2373
 2773TIP3    H229735   0.971   1.958   0.207 -1.7770 -0.1983  2.2010
 2774TIP3   OH229736   0.374   5.582   2.310  0.3339 -0.0999  0.3342
 2774TIP3    H129737   0.384   5.586   2.215 -1.0587  0.0718  0.1785
 2774TIP3    H229738   0.280   5.595   2.325  0.1493 -2.3454  1.5984
 2775TIP3   OH229739   1.491   0.869  15.140  0.1130  0.2437  0.0666
 2775TIP3    H129740   1.486   0.777  15.117 -1.2888 -0.0928  1.5145
 2775TIP3    H229741   1.548   0.873  15.216  0.8642  0.7008 -0.5059
 2776TIP3   OH229742   1.394   2.881  17.037 -0.0430  0.2257  0.3313
 2776TIP3    H129743   1.462   2.859  17.100  0.4738  2.4782  0.6704
 2776TIP3    H229744   1.411   2.973  17.016 -2.7403  0.7426  0.1144
 2777TIP3   OH229745   3.702   1.754   4.112  0.3656 -0.2066  0.2398
 2777TIP3    H129746   3.768   1.706   4.062  0.8667 -1.0277  1.6129
 2777TIP3    H229747   3.746   1.777   4.194 -0.3520  1.2982  0.2344
 2778TIP3   OH229748   5.568   2.890   3.819  0.1420  0.0644  0.0427
 2778TIP3    H129749   5.558   2.820   3.755  2.8961 -1.5101  1.1716
 2778TIP3    H229750   5.480   2.901   3.857 -1.3483  0.3621 -3.1680
 2779TIP3   OH229751   6.294   5.925   3.852 -0.4106  0.0696  0.5369
 2779TIP3    H129752   6.242   5.916   3.932 -0.2996 -1.4580  0.4708
 2779TIP3    H229753   6.232   5.958   3.787 -0.6561  0.7228  1.0865
 2780TIP3   OH229754   3.293   6.110  10.965 -0.0621  0.1286  0.1562
 2780TIP3    H129755   3.267   6.198  10.994 -1.2863 -0.0865 -0.2040
 2780TIP3    H229756   3.354   6.125  10.893 -3.7005  0.8903 -3.1487
 2781TIP3   OH229757   5.326   5.100  12.113  0.0062 -0.2178 -0.6737
 2781TIP3    H129758   5.239   5.140  12.107 -0.9992 -2.3180 -0.9875
 2781TIP3    H229759   5.352   5.111  12.204 -0.3185  0.9431 -0.7148
 2782TIP3   OH229760   3.246   3.596   5.064 -0.0436 -0.2137 -0.1928
 2782TIP3    H129761   3.295   3.541   5.125  0.3490 -0.4554 -0.7141
 2782TIP3    H229762   3.159   3.604   5.103  0.9047  1.8091  1.7669
 2783TIP3   OH229763   0.562   0.759  13.072 -0.0723 -0.6774 -0.5057
 2783TIP3    H129764   0.611   0.762  12.990 -1.3277  1.6935 -1.2678
 2783TIP3    H229765   0.629   0.769  13.140  0.7230  0.3063 -1.3966
 2784TIP3   OH229766   2.581   6.017   2.014  0.2578 -0.0759 -0.3512
 2784TIP3    H129767   2.495   6.043   1.982  0.3186 -1.2356 -1.5314
 2784TIP3    H229768   2.641   6.082   1.976  0.0003  0.2330 -0.2284
 2785TIP3   OH229769   5.501   5.780   5.304 -0.0707  0.2235  0.4487
 2785TIP3    H129770   5.563   5.764   5.233 -0.7732  1.0439 -0.3802
 2785TIP3    H229771   5.536   5.731   5.378  0.6794 -0.6514 -0.4584
 2786TIP3   OH229772   6.455   2.885  13.804 -0.0708  0.3360  0.1287
 2786TIP3    H129773   6.419   2.827  13.871  0.3939 -1.2485 -0.9280
 2786TIP3    H229774   6.538   2.845  13.779 -0.5417  0.4719 -1.8596
 2787TIP3   OH229775   1.080   5.800   1.416 -0.0411  0.0664 -0.4876
 2787TIP3    H129776   1.037   5.884   1.399 -0.0718  0.2399  0.3764
 2787TIP3    H229777   1.008   5.740   1.436 -0.1313 -0.5332 -2.4393
 2788TIP3   OH229778   6.128   4.407  12.254 -0.1573 -0.5690 -0.5410
 2788TIP3    H129779   6.128   4.498  12.286  1.2243  0.2312 -2.6457
 2788TIP3    H229780   6.042   4.397  12.212 -0.3700 -0.2823 -0.1830
 2789TIP3   OH229781   3.064   5.264  14.413 -0.5290  0.1476 -0.2531
 2789TIP3    H129782   3.026   5.317  14.484  0.4841  0.5191  0.0382
 2789TIP3    H229783   3.065   5.323  14.338  0.9410  0.7118  0.1671
 2790TIP3   OH229784   0.953   2.159  15.279 -0.0327 -0.1355  0.0569
 2790TIP3    H129785   0.893   2.212  15.331 -1.2320 -2.3714  1.1226
 2790TIP3    H229786   0.932   2.179  15.188 -2.3585 -0.7665  0.4026
 2791TIP3   OH229787   0.475   2.848  12.743  0.2114 -0.0427 -0.2488
 2791TIP3    H129788   0.534   2.921  12.726  0.9773 -0.6730 -0.3562
 2791TIP3    H229789   0.439   2.865  12.830 -0.2228  0.8570 -0.5930
 2792TIP3   OH229790   5.272   4.395   4.151  0.1152  0.0970  0.0380
 2792TIP3    H129791   5.198   4.382   4.092  0.0098  0.8635 -0.0115
 2792TIP3    H229792   5.233   4.392   4.239  0.1466 -0.2559  0.0405
 2793TIP3   OH229793   5.612   1.622   2.406  0.6966  0.1986 -0.0567
 2793TIP3    H129794   5.645   1.706   2.437  2.0872 -0.6750  0.9556
 2793TIP3    H229795   5.579   1.579   2.485 -1.4352  0.3565 -0.7801
 2794TIP3   OH229796   3.139   6.219   3.427 -0.1702 -0.1298  0.7902
 2794TIP3    H129797   3.221   6.227   3.378 -0.6041 -1.1910 -0.1753
 2794TIP3    H229798   3.097   6.304   3.417 -0.7768 -0.6297 -1.7752
 2795TIP3   OH229799   3.760   5.755   5.605 -0.2901  0.4319 -0.2781
 2795TIP3    H129800   3.777   5.825   5.542 -1.2451  1.0694  0.1400
 2795TIP3    H229801   3.788   5.791   5.689 -1.7955  0.7650  0.1145
 2796TIP3   OH229802   0.143   2.377  13.947  0.3034  0.5130 -0.2810
 2796TIP3    H129803   0.183   2.377  13.860 -0.5445  0.1535 -0.6816
 2796TIP3    H229804   0.050   2.390  13.930  0.0305 -0.3231  0.5196
 2797TIP3   OH229805   3.326   0.724  14.290  0.1883  0.3101 -0.1191
 2797TIP3    H129806   3.344   0.760  14.377 -0.6735  1.5664 -0.4204
 2797TIP3    H229807   3.235   0.751  14.272  0.3114 -0.0453 -1.3439
 2798TIP3   OH229808   6.497   2.569   2.939  0.5935  0.0168 -0.1063
 2798TIP3    H129809   6.593   2.568   2.944  0.5883 -1.5188  0.0839
 2798TIP3    H229810   6.468   2.566   3.030  0.3955 -1.6674 -0.2004
 2799TIP3   OH229811   0.979   4.529  14.323  0.4003 -0.0727 -0.2744
 2799TIP3    H129812   0.952   4.598  14.383  0.1529 -0.4245  0.0289
 2799TIP3    H229813   1.074   4.536  14.318  0.3484  0.4918 -0.4988
 2800TIP3   OH229814   4.758   3.775   1.038 -0.0310 -0.6726 -0.6619
 2800TIP3    H129815   4.732   3.729   0.958  0.5210  0.0317 -1.2610
 2800TIP3    H229816   4.692   3.844   1.048  1.0921  0.6214 -1.7494
 2801TIP3   OH229817   5.909   4.918  12.788  0.2244  0.4902  0.0210
 2801TIP3    H129818   5.876   4.921  12.878  2.5498  1.6015  0.9182
 2801TIP3    H229819   5.925   5.009  12.765  1.7834  0.0826 -0.6455
 2802TIP3   OH229820   0.113   5.676   2.329 -0.1775  0.3063 -0.0400
 2802TIP3    H129821   0.072   5.744   2.276 -0.5557  0.3474  0.2997
 2802TIP3    H229822   0.042   5.615   2.347  0.6236 -1.4513 -2.2989
 2803TIP3   OH229823   3.998   1.666   4.994 -0.5033  0.6134 -0.1274
 2803TIP3    H129824   4.008   1.617   5.076  0.2219  1.9227  0.5858
 2803TIP3    H229825   4.085   1.703   4.978 -1.0268  1.6426 -0.6545
 2804TIP3   OH229826   3.668   1.278  13.742  0.2426 -0.3138 -0.6875
 2804TIP3    H129827   3.640   1.347  13.682  1.8672  1.8609  0.8626
 2804TIP3    H229828   3.601   1.277  13.810 -0.4594 -1.2432 -1.3642
 2805TIP3   OH229829   0.949   6.592   0.970  0.5870  0.0069 -0.5644
 2805TIP3    H129830   0.937   6.568   1.062  1.5749  1.1384 -0.1237
 2805TIP3    H229831   0.975   6.510   0.928 -1.0332 -0.8035 -0.1022
 2806TIP3   OH229832   0.970   3.361  16.508 -0.2580  0.1004 -0.3539
 2806TIP3    H129833   0.935   3.353  16.419 -1.3081 -2.2905  0.1772
 2806TIP3    H229834   0.942   3.447  16.538 -3.8952 -0.7812 -0.7841
 2807TIP3   OH229835   0.885   5.884  13.812  0.1947 -0.5539 -0.2244
 2807TIP3    H129836   0.886   5.943  13.887  2.2537 -0.8385  0.0257
 2807TIP3    H229837   0.806   5.832  13.824 -0.6052  0.7960  0.6174
 2808TIP3   OH229838   1.516   5.926   1.277 -0.2823 -0.3055 -0.7174
 2808TIP3    H129839   1.590   5.944   1.336 -0.9124 -0.8880  0.2738
 2808TIP3    H229840   1.486   5.839   1.302  0.0027 -0.9824 -2.5403
 2809TIP3   OH229841   4.918   5.209   0.747  0.0712 -0.4835  0.8402
 2809TIP3    H129842   4.887   5.294   0.778  1.2545  0.4579 -0.4173
 2809TIP3    H229843   4.910   5.152   0.822 -2.7809  0.1641  1.1352
 2810TIP3   OH229844   1.234   2.030   2.577 -0.2521 -0.3239  0.0965
 2810TIP3    H129845   1.160   2.051   2.520 -1.4883  0.0275  1.7447
 2810TIP3    H229846   1.200   1.961   2.635  1.0917 -0.9545  0.1679
 2811TIP3   OH229847   2.520   4.637   2.727 -0.7132 -0.3887 -0.0239
 2811TIP3    H129848   2.442   4.583   2.713  0.8933 -2.4535 -1.5708
 2811TIP3    H229849   2.586   4.600   2.668  1.6358  0.9028  1.6427
 2812TIP3   OH229850   6.705   3.446   1.336 -0.4138 -0.5754 -0.1445
 2812TIP3    H129851   6.688   3.538   1.358 -1.7309 -0.8525  0.1051
 2812TIP3    H229852   6.689   3.442   1.241  0.2239 -0.4339 -0.2619
 2813TIP3   OH229853   1.164   1.363   4.834 -0.2581 -0.1767 -0.0835
 2813TIP3    H129854   1.150   1.270   4.816  0.4324 -0.1821 -0.6185
 2813TIP3    H229855   1.259   1.374   4.833 -0.2764  0.2984  1.2161
 2814TIP3   OH229856   4.181   1.514  14.843  0.0254 -0.0087 -0.4239
 2814TIP3    H129857   4.271   1.503  14.811  0.6953  0.9051  1.0599
 2814TIP3    H229858   4.138   1.431  14.821  0.9623 -0.1422 -1.9170
 2815TIP3   OH229859   5.818   6.390   5.656 -0.0709 -1.0253  0.0119
 2815TIP3    H129860   5.808   6.305   5.614 -2.1027 -1.6987  1.6646
 2815TIP3    H229861   5.740   6.440   5.630 -0.0111 -0.4881  0.8004
 2816TIP3   OH229862   3.275   3.823   3.120 -0.0533  0.1657 -0.2061
 2816TIP3    H129863   3.347   3.762   3.134 -1.6938 -1.9617 -0.5775
 2816TIP3    H229864   3.234   3.833   3.206 -1.1125 -1.0610 -0.5394
 2817TIP3   OH229865   4.306   5.449   0.802 -0.2531 -0.2205 -0.0594
 2817TIP3    H129866   4.280   5.505   0.875 -1.2738  0.0980 -0.6340
 2817TIP3    H229867   4.352   5.375   0.842  2.7361  1.8380  0.6018
 2818TIP3   OH229868   4.961   0.485  13.963 -0.0728 -0.0361 -0.5531
 2818TIP3    H129869   4.948   0.569  13.919 -0.3048 -1.0177 -2.4686
 2818TIP3    H229870   5.040   0.449  13.922  0.1510 -0.6701  0.3987
 2819TIP3   OH229871   1.783   2.669   5.141 -0.0456 -0.1906  0.5809
 2819TIP3    H129872   1.701   2.634   5.176 -0.4545  0.1276 -0.0337
 2819TIP3    H229873   1.772   2.663   5.046  0.8426 -0.5858  0.4990
 2820TIP3   OH229874   0.038   2.275  13.520  0.2290 -0.0515 -0.3265
 2820TIP3    H129875   0.112   2.328  13.488  0.2400 -1.6405 -3.1762
 2820TIP3    H229876   0.000   2.328  13.590  0.6817  3.4304 -2.4766
 2821TIP3   OH229877   4.280   2.486   4.009 -0.4891 -0.1827 -0.1661
 2821TIP3    H129878   4.187   2.495   4.028 -0.3697  1.2174 -0.1284
 2821TIP3    H229879   4.286   2.480   3.914 -0.5289  1.4331 -0.2954
 2822TIP3   OH229880   1.272   5.223  12.804 -0.2072  0.5690  0.7220
 2822TIP3    H129881   1.330   5.293  12.774 -1.1707  1.3925  0.7434
 2822TIP3    H229882   1.332   5.153  12.832  0.7571  1.1320  0.1250
 2823TIP3   OH229883   1.171   4.042   1.874 -0.1097  0.5420 -0.6554
 2823TIP3    H129884   1.093   3.988   1.889  0.2086  0.0378 -0.7820
 2823TIP3    H229885   1.158   4.118   1.931  0.0018 -0.2498  0.4789
 2824TIP3   OH229886   5.540   0.032   0.235  0.4468  0.0680 -0.4953
 2824TIP3    H129887   5.446   0.021   0.250  0.4048  0.8927 -0.1449
 2824TIP3    H229888   5.569  -0.055   0.207 -0.7029  0.1895 -2.1886
 2825TIP3   OH229889   0.477   4.105  16.290  0.2262  0.2570  0.1809
 2825TIP3    H129890   0.538   4.134  16.358  0.8781  0.6408 -0.5451
 2825TIP3    H229891   0.391   4.117  16.329  0.6095 -0.6282  1.3576
 2826TIP3   OH229892   0.519   2.493   3.503  0.3181  1.1683 -0.1725
 2826TIP3    H129893   0.506   2.478   3.409 -0.9294 -1.3189  0.3036
 2826TIP3    H229894   0.492   2.410   3.544  0.5101  2.2983  2.4146
 2827TIP3   OH229895   5.603   3.572   4.264 -0.5785  0.4771 -0.1835
 2827TIP3    H129896   5.666   3.640   4.240 -2.0519  1.3535 -1.7523
 2827TIP3    H229897   5.645   3.490   4.235  0.7809  0.7597  0.8459
 2828TIP3   OH229898   6.107   4.596  15.280  0.3755  0.0628 -0.5301
 2828TIP3    H129899   6.148   4.675  15.316 -0.5696  0.3079  0.0481
 2828TIP3    H229900   6.077   4.623  15.193  1.1451 -0.0291 -0.8324
 2829TIP3   OH229901   5.913   0.537  16.472  0.7329  0.3659  0.5929
 2829TIP3    H129902   5.993   0.485  16.481  0.6494  0.2307  0.5457
 2829TIP3    H229903   5.919   0.602  16.543  1.0055  0.5162  0.4338
 2830TIP3   OH229904   4.686   4.449   2.695 -1.0680  0.4058  0.7023
 2830TIP3    H129905   4.775   4.416   2.708 -1.3106 -1.5753 -1.8128
 2830TIP3    H229906   4.680   4.525   2.752  2.5599  1.2378  0.2172
 2831TIP3   OH229907   3.580   1.357  14.812  0.5087 -0.7394  0.5673
 2831TIP3    H129908   3.561   1.317  14.898 -1.3363 -1.3491 -0.0719
 2831TIP3    H229909   3.600   1.448  14.832  0.2176 -0.8991  1.6603
 2832TIP3   OH229910   2.284   3.328   1.335  0.4506  0.6439  0.0146
 2832TIP3    H129911   2.250   3.404   1.290 -0.2407 -0.2093 -0.9420
 2832TIP3    H229912   2.210   3.294   1.385  0.1552 -0.5542 -1.1710
 2833TIP3   OH229913   4.553   0.821  13.181 -0.7644  0.3981  0.6435
 2833TIP3    H129914   4.470   0.832  13.134 -0.6885 -0.6804  0.2350
 2833TIP3    H229915   4.606   0.766  13.123 -0.2150  0.0555  1.4553
 2834TIP3   OH229916   4.733   2.327  17.260 -0.7206 -0.8967  0.3839
 2834TIP3    H129917   4.665   2.370  17.311 -0.7141  0.4529 -0.6994
 2834TIP3    H229918   4.690   2.300  17.179 -0.9524 -3.8238  1.3840
 2835TIP3   OH229919   3.619   1.994   2.566  0.0749 -0.2546  0.4939
 2835TIP3    H129920   3.592   1.902   2.553  0.0702 -0.1422 -0.3092
 2835TIP3    H229921   3.587   2.015   2.654  0.8501 -1.2927  1.0448
 2836TIP3   OH229922   1.492   2.243   0.160  0.4105  0.0271 -0.2815
 2836TIP3    H129923   1.431   2.242   0.086  1.0196 -0.9511 -0.8016
 2836TIP3    H229924   1.578   2.233   0.119  0.7805 -0.2321  0.5422
 2837TIP3   OH229925   6.578   3.514  13.716 -0.3132 -0.2284 -0.2851
 2837TIP3    H129926   6.503   3.454  13.716 -1.2556  0.8835  1.0582
 2837TIP3    H229927   6.578   3.552  13.804 -1.2216  3.4437 -1.6697
 2838TIP3   OH229928   4.055   6.543   1.285 -0.4660  0.0220  0.1305
 2838TIP3    H129929   4.133   6.501   1.249 -0.1759  0.8472 -0.2369
 2838TIP3    H229930   4.078   6.564   1.375 -0.5842 -0.5356  0.2899
 2839TIP3   OH229931   6.313   0.364   1.425  0.1269  0.8556  0.7004
 2839TIP3    H129932   6.337   0.349   1.517 -0.5193  0.1273  0.7636
 2839TIP3    H229933   6.244   0.299   1.408 -0.7544  1.9212  0.1129
 2840TIP3   OH229934   2.733   0.259   1.001 -0.1504  0.4020 -0.2286
 2840TIP3    H129935   2.808   0.211   1.038  0.7770  0.5890 -1.7552
 2840TIP3    H229936   2.773   0.330   0.951 -1.3271  0.2745 -1.4067
 2841TIP3   OH229937   4.863   4.333  16.841 -0.0443  0.3787 -0.0858
 2841TIP3    H129938   4.779   4.371  16.814 -1.1461 -1.1707  1.0085
 2841TIP3    H229939   4.867   4.348  16.935  1.5965  1.6344 -0.3074
 2842TIP3   OH229940   1.427   1.259  11.010 -0.1343 -0.6159  0.0934
 2842TIP3    H129941   1.494   1.222  10.952 -0.5427 -0.6306 -0.3746
 2842TIP3    H229942   1.441   1.215  11.094  0.5290 -0.5206  0.0402
 2843TIP3   OH229943   3.285   3.095   3.884  0.0639  0.8130 -0.0681
 2843TIP3    H129944   3.337   3.143   3.949 -0.8084  1.8307 -0.0965
 2843TIP3    H229945   3.201   3.081   3.928  0.2317 -0.5029 -0.1521
 2844TIP3   OH229946   6.694   0.666  11.215 -0.0736 -0.3053  0.2641
 2844TIP3    H129947   6.766   0.719  11.250  0.3009  2.1684 -3.5879
 2844TIP3    H229948   6.733   0.580  11.199  1.6465  0.5589 -0.4300
 2845TIP3   OH229949   1.580   5.027  14.324  0.2909  0.0132  0.3085
 2845TIP3    H129950   1.665   5.062  14.296  1.0132 -0.6210  1.5964
 2845TIP3    H229951   1.585   5.028  14.420 -0.2395 -2.1832  0.4038
 2846TIP3   OH229952   2.170   2.145   4.816  0.2276  0.2677 -0.1065
 2846TIP3    H129953   2.231   2.212   4.784 -0.7490  0.6014 -1.4033
 2846TIP3    H229954   2.151   2.092   4.738  0.0760 -0.7938  0.6404
 2847TIP3   OH229955   4.449   5.065   4.060  0.0961 -0.2112  0.1317
 2847TIP3    H129956   4.427   5.026   4.145 -0.5139 -0.0278  0.0597
 2847TIP3    H229957   4.527   5.119   4.078 -0.3953  0.3194  0.7102
 2848TIP3   OH229958   0.627   0.392   0.113 -0.1503 -0.4837 -0.3692
 2848TIP3    H129959   0.658   0.303   0.131  1.2946  0.2924  1.3496
 2848TIP3    H229960   0.669   0.415   0.030 -0.9584 -1.5592 -1.1086
 2849TIP3   OH229961   6.419   5.191   4.884  0.2788  0.5972  0.2757
 2849TIP3    H129962   6.513   5.172   4.889 -0.0166 -1.6861 -1.3881
 2849TIP3    H229963   6.401   5.198   4.790 -1.8731 -3.4085  0.1559
 2850TIP3   OH229964   2.468   1.942  15.244  0.4261  0.0770 -0.7891
 2850TIP3    H129965   2.451   1.869  15.185 -2.4844  0.0673 -0.1323
 2850TIP3    H229966   2.476   2.018  15.187  1.3479 -0.4244 -1.3542
 2851TIP3   OH229967   0.375   4.905   1.825 -0.4625 -0.1911  0.2753
 2851TIP3    H129968   0.454   4.901   1.880 -0.2981  2.1348  0.2991
 2851TIP3    H229969   0.303   4.890   1.886 -0.1153 -2.0324  0.3045
 2852TIP3   OH229970   3.221   5.902  16.562  0.0157  0.9794 -0.2141
 2852TIP3    H129971   3.273   5.823  16.578 -1.4570  0.1109  0.5034
 2852TIP3    H229972   3.285   5.972  16.551  1.5862 -0.7560 -4.0331
 2853TIP3   OH229973   1.095   1.828   2.707  0.2426 -0.1210  0.1168
 2853TIP3    H129974   1.046   1.772   2.647  1.4402 -0.0968 -0.9264
 2853TIP3    H229975   1.036   1.900   2.727 -0.1269 -0.0574 -1.1549
 2854TIP3   OH229976   2.557   3.832  15.776  0.0568 -0.0406  0.7431
 2854TIP3    H129977   2.514   3.809  15.858  0.7618 -0.7966  0.9094
 2854TIP3    H229978   2.650   3.832  15.796  0.1810  0.8996  0.2169
 2855TIP3   OH229979   4.450   6.341   6.309 -0.0694  0.3413  0.2141
 2855TIP3    H129980   4.435   6.420   6.361 -0.7385 -0.4634  1.3083
 2855TIP3    H229981   4.520   6.295   6.356 -0.7407 -0.4425  0.4733
 2856TIP3   OH229982   4.136   6.738  12.362  0.0766  0.6150 -0.1714
 2856TIP3    H129983   4.080   6.812  12.386 -0.0364  0.3009  0.5392
 2856TIP3    H229984   4.176   6.765  12.279 -0.1818  1.3523 -0.0652
 2857TIP3   OH229985   2.941   0.936  12.166  0.7332 -0.7397 -0.0213
 2857TIP3    H129986   2.977   0.894  12.088  0.3473  0.0509 -0.6415
 2857TIP3    H229987   2.987   0.894  12.239  1.0886 -1.5063 -0.6630
 2858TIP3   OH229988   3.161   3.495  13.999 -0.7178  0.3712  0.0448
 2858TIP3    H129989   3.162   3.400  13.987  0.9063  0.2289  1.0133
 2858TIP3    H229990   3.241   3.514  14.048 -1.0407  2.2406 -0.0725
 2859TIP3   OH229991   5.694   3.770   3.936  0.0352 -0.0839 -0.0467
 2859TIP3    H129992   5.689   3.802   3.846 -2.7385 -0.2585 -0.0277
 2859TIP3    H229993   5.737   3.684   3.929 -1.3172 -0.6867 -1.4148
 2860TIP3   OH229994   6.721   1.536  11.109 -0.2921 -0.2559 -0.0193
 2860TIP3    H129995   6.700   1.584  11.189 -0.9256 -0.1606 -0.2356
 2860TIP3    H229996   6.778   1.466  11.138 -0.9881 -0.5798  0.6210
 2861TIP3   OH229997   4.874   1.236   4.125 -0.0640  0.8658  0.1746
 2861TIP3    H129998   4.807   1.243   4.193  1.0494 -0.5025  1.4936
 2861TIP3    H229999   4.826   1.218   4.045 -1.4092  2.3527  0.5924
 2862TIP3   OH230000   2.724   1.309   6.383 -0.4620 -0.5477  0.4142
 2862TIP3    H130001   2.630   1.299   6.394 -0.3332 -1.7628  0.5691
 2862TIP3    H230002   2.760   1.222   6.403  0.5008 -0.7191 -1.7599
 2863TIP3   OH230003   6.414   0.474   4.514 -0.2683 -0.3847 -0.5669
 2863TIP3    H130004   6.436   0.388   4.478 -0.1115 -0.0751 -1.2209
 2863TIP3    H230005   6.393   0.528   4.438 -0.3961  0.1519 -0.1612
 2864TIP3   OH230006   0.836   5.897  14.598 -0.2619 -0.3635 -0.2434
 2864TIP3    H130007   0.836   5.833  14.669  1.8234 -0.0465  0.0966
 2864TIP3    H230008   0.881   5.853  14.526 -1.0580 -0.1511 -0.8947
 2865TIP3   OH230009   0.354   6.559  11.817  0.0110  0.2082 -0.6529
 2865TIP3    H130010   0.272   6.578  11.770 -2.1875  0.7183  2.9989
 2865TIP3    H230011   0.417   6.621  11.780 -2.7508  3.7686 -0.0420
 2866TIP3   OH230012   4.432   2.755  15.818 -0.1865 -0.6906 -0.2476
 2866TIP3    H130013   4.484   2.835  15.830 -0.8850 -0.0594 -1.2665
 2866TIP3    H230014   4.461   2.697  15.888 -0.1446  0.7039  0.9434
 2867TIP3   OH230015   3.646   1.556   5.269 -0.1972  0.3255  0.2561
 2867TIP3    H130016   3.607   1.642   5.285  0.7498  0.7204  0.5269
 2867TIP3    H230017   3.586   1.513   5.209 -1.0398  0.9106  0.6560
 2868TIP3   OH230018   3.410   5.944   5.044 -0.2316 -0.2789 -0.1214
 2868TIP3    H130019   3.437   5.911   4.958 -2.0164 -0.5215 -0.6296
 2868TIP3    H230020   3.364   6.026   5.024 -0.9056 -0.4796  0.5890
 2869TIP3   OH230021   4.741   0.240  13.022 -0.0513 -0.4795  0.0073
 2869TIP3    H130022   4.790   0.312  12.983 -1.8168  1.3132  0.9434
 2869TIP3    H230023   4.651   0.254  12.994 -0.5692 -1.9151  0.8265
 2870TIP3   OH230024   1.394   5.127  15.514 -0.2061 -0.1491 -0.5849
 2870TIP3    H130025   1.478   5.083  15.526 -0.4615 -1.1465 -2.0736
 2870TIP3    H230026   1.416   5.210  15.471 -0.0304 -0.9024 -1.9984
 2871TIP3   OH230027   3.061   5.822  16.208  0.0949 -0.9360  0.2988
 2871TIP3    H130028   3.122   5.806  16.135  1.5730  0.0025  1.2670
 2871TIP3    H230029   3.017   5.738  16.221 -1.4726 -0.7150 -2.7408
 2872TIP3   OH230030   6.339   3.105  13.904 -0.4159 -0.0508  0.1538
 2872TIP3    H130031   6.383   3.028  13.867  0.0630  0.9461 -1.4761
 2872TIP3    H230032   6.246   3.088  13.891 -0.2707  0.0862 -1.2114
 2873TIP3   OH230033   2.286   6.600  15.054 -0.7246 -0.3403  0.1629
 2873TIP3    H130034   2.192   6.585  15.052 -0.7953 -0.2286  1.6562
 2873TIP3    H230035   2.299   6.679  15.002 -1.4778 -0.2602  0.0828
 2874TIP3   OH230036   6.276   2.648   2.391  0.1486  0.1705  0.3027
 2874TIP3    H130037   6.251   2.679   2.478 -1.5574  1.0952 -0.4619
 2874TIP3    H230038   6.336   2.715   2.359 -0.0860  0.4061  0.3491
 2875TIP3   OH230039   4.959   3.194  12.481  0.0845 -0.2457  0.0786
 2875TIP3    H130040   4.880   3.160  12.523  0.2794  0.6577  1.2089
 2875TIP3    H230041   5.021   3.121  12.484 -0.7595 -1.0452 -1.0401
 2876TIP3   OH230042   4.446   5.917  15.701  0.1415 -0.1583  0.0755
 2876TIP3    H130043   4.467   5.916  15.794 -0.9484 -1.5023  0.3436
 2876TIP3    H230044   4.506   5.853  15.662 -0.0285 -0.2954  0.0311
 2877TIP3   OH230045   2.820   0.839  14.389 -0.1442  0.0263 -0.4310
 2877TIP3    H130046   2.833   0.923  14.345 -1.6879  1.0947  1.0271
 2877TIP3    H230047   2.888   0.836  14.457  0.5177 -0.3930 -1.0834
 2878TIP3   OH230048   4.124   4.582   2.003 -0.0063  0.0004 -0.0548
 2878TIP3    H130049   4.081   4.534   2.075  0.0558 -0.2597 -0.1892
 2878TIP3    H230050   4.117   4.674   2.029  0.4939 -0.1213  0.5484
 2879TIP3   OH230051   5.706   4.184  13.917 -0.3247  0.0548  0.2970
 2879TIP3    H130052   5.684   4.266  13.874 -0.5599 -1.4771 -2.7655
 2879TIP3    H230053   5.735   4.209  14.005 -2.4570  3.1834  0.2458
 2880TIP3   OH230054   3.450   6.235  14.955 -0.1295 -0.1024  0.0128
 2880TIP3    H130055   3.461   6.227  15.050  0.5861 -0.3970 -0.0925
 2880TIP3    H230056   3.524   6.188  14.918 -0.5596 -0.2289 -0.7039
 2881TIP3   OH230057   5.794   6.724  14.395 -0.2864  0.0904 -0.0022
 2881TIP3    H130058   5.737   6.770  14.456  0.4276 -0.5154  1.1463
 2881TIP3    H230059   5.879   6.767  14.402  0.7455 -2.0490  2.0042
 2882TIP3   OH230060   0.506   6.306   0.554  0.0778 -0.0053 -0.0263
 2882TIP3    H130061   0.584   6.361   0.568 -0.4561  0.2355  2.5066
 2882TIP3    H230062   0.514   6.237   0.620 -1.8158 -0.0009  0.2627
 2883TIP3   OH230063   1.309   3.405   0.908  0.3366 -0.7727  0.0467
 2883TIP3    H130064   1.402   3.393   0.927  0.7378 -1.5303 -2.0954
 2883TIP3    H230065   1.306   3.477   0.845 -0.6874  0.1105  1.0526
 2884TIP3   OH230066   3.318   0.002  12.621 -0.2450  0.4597 -0.2040
 2884TIP3    H130067   3.260  -0.063  12.660 -0.6652  1.3577  0.7157
 2884TIP3    H230068   3.400  -0.045  12.607  0.1770  0.2158  2.4309
 2885TIP3   OH230069   4.866   6.309  17.047  0.3399  0.2673 -0.3909
 2885TIP3    H130070   4.950   6.264  17.048  0.2230  0.0324 -0.9588
 2885TIP3    H230071   4.848   6.327  17.140  2.3137  2.7874 -0.3845
 2886TIP3   OH230072   2.914   2.252  15.752 -0.2076 -0.4009  0.4389
 2886TIP3    H130073   2.856   2.328  15.755 -0.6798 -0.7010 -0.7176
 2886TIP3    H230074   2.976   2.272  15.683 -0.4648 -1.1467 -0.0163
 2887TIP3   OH230075   2.558   2.776   4.900 -0.6322 -0.0632 -0.9895
 2887TIP3    H130076   2.566   2.681   4.888 -2.6144 -0.6357  1.2952
 2887TIP3    H230077   2.519   2.807   4.818 -0.4948 -1.3148 -1.5569
 2888TIP3   OH230078   2.433   0.119  15.198 -0.2060  0.0984  0.1526
 2888TIP3    H130079   2.362   0.057  15.211 -1.0447  1.1744  0.8601
 2888TIP3    H230080   2.473   0.129  15.285  0.4675 -0.0869 -0.1282
 2889TIP3   OH230081   6.505   6.294  12.202  0.2498 -0.0353  0.2658
 2889TIP3    H130082   6.533   6.343  12.279  0.8526  1.7301 -1.0300
 2889TIP3    H230083   6.468   6.360  12.144  0.4397 -1.2226 -1.2540
 2890TIP3   OH230084   2.198   2.146  13.014 -0.0119  0.0490 -0.3068
 2890TIP3    H130085   2.121   2.203  13.002  0.1311  0.2711 -0.1707
 2890TIP3    H230086   2.235   2.173  13.097 -0.0584 -0.3851 -0.1413
 2891TIP3   OH230087   5.971   4.343  15.262  0.4440 -0.4375  0.5744
 2891TIP3    H130088   6.011   4.429  15.279  1.6046 -0.4536 -1.6610
 2891TIP3    H230089   6.022   4.283  15.316  2.6894 -0.2563 -1.1597
 2892TIP3   OH230090   6.256   3.362   3.531  0.0519 -0.0759 -0.0565
 2892TIP3    H130091   6.161   3.350   3.535  0.0814 -0.4418 -0.3753
 2892TIP3    H230092   6.292   3.286   3.578  0.1852  0.0889  0.1086
 2893TIP3   OH230093   4.252   1.612  15.507 -0.5436  0.3011 -0.0296
 2893TIP3    H130094   4.282   1.659  15.430 -0.9371  1.9716  0.7830
 2893TIP3    H230095   4.331   1.573  15.545 -0.5347 -1.7948 -2.0149
 2894TIP3   OH230096   2.099   5.093  16.068 -0.3940  0.1045 -0.5779
 2894TIP3    H130097   2.077   5.007  16.103  1.8706 -0.2445  0.0947
 2894TIP3    H230098   2.164   5.076  16.000  0.8780  1.3181  0.2681
 2895TIP3   OH230099   5.427   5.219   4.762 -0.8158  0.2197 -0.1049
 2895TIP3    H130100   5.348   5.214   4.815 -1.3032  1.7926 -0.6161
 2895TIP3    H230101   5.399   5.188   4.676 -0.4255 -0.8388  0.1382
 2896TIP3   OH230102   5.091   4.213  13.994  0.7821  0.3434  0.4939
 2896TIP3    H130103   5.136   4.174  14.069  1.8655  0.3547 -0.1406
 2896TIP3    H230104   5.141   4.292  13.975 -0.1607  0.9454  0.4521
 2897TIP3   OH230105   4.566   4.196  15.593 -0.1612 -0.2567  0.0753
 2897TIP3    H130106   4.650   4.199  15.638 -0.1863 -0.8077  0.1666
 2897TIP3    H230107   4.509   4.147  15.653 -0.9875  1.4464  0.7399
 2898TIP3   OH230108   1.457   0.248  16.126  0.0371  0.1766  0.1270
 2898TIP3    H130109   1.395   0.194  16.174 -1.4539  2.0522  0.4566
 2898TIP3    H230110   1.406   0.286  16.054  0.7478  1.7717  0.4060
 2899TIP3   OH230111   3.362   4.806   6.356 -0.1190  0.1722  0.2700
 2899TIP3    H130112   3.357   4.791   6.262 -1.5213 -1.9323  0.6127
 2899TIP3    H230113   3.277   4.844   6.378  0.9460  2.6360  0.4503
 2900TIP3   OH230114   6.374   1.311  15.465  0.5189 -0.0565  0.1756
 2900TIP3    H130115   6.448   1.313  15.526  1.0020 -0.2231 -0.3889
 2900TIP3    H230116   6.296   1.317  15.521  0.9658  0.4446  0.7599
 2901TIP3   OH230117   4.325   2.690  15.554  0.1836 -0.3439 -0.3063
 2901TIP3    H130118   4.348   2.597  15.559  0.0254 -0.3208  1.8503
 2901TIP3    H230119   4.357   2.727  15.636 -1.1606  1.1646 -0.4086
 2902TIP3   OH230120   5.952   3.994   3.797  0.5145  0.1227 -0.4458
 2902TIP3    H130121   6.041   4.007   3.766  0.8653  0.1436  0.5286
 2902TIP3    H230122   5.902   3.970   3.719  1.3087  0.3996 -1.0480
 2903TIP3   OH230123   0.274   6.674  16.873  0.0775 -0.2733  0.5030
 2903TIP3    H130124   0.194   6.625  16.854  0.5475 -1.5692  1.6857
 2903TIP3    H230125   0.345   6.614  16.850  0.7364  0.7654 -0.2906
 2904TIP3   OH230126   0.889   2.457  13.040 -0.2991 -0.2474 -0.0668
 2904TIP3    H130127   0.937   2.483  13.118 -0.2283 -0.1561 -0.1402
 2904TIP3    H230128   0.805   2.504  13.047 -0.8611 -1.3256  0.6601
 2905TIP3   OH230129   3.810   0.118  12.936 -0.1614  0.1138 -0.0205
 2905TIP3    H130130   3.744   0.050  12.951  0.2007 -0.3993 -0.7086
 2905TIP3    H230131   3.827   0.154  13.023 -1.0872  0.0126  0.2134
 2906TIP3   OH230132   0.865   3.256   4.503  0.4332  0.1767 -0.3158
 2906TIP3    H130133   0.913   3.173   4.499 -1.6522 -1.0698 -1.5684
 2906TIP3    H230134   0.918   3.312   4.559  2.8808 -1.3438 -0.9743
 2907TIP3   OH230135   1.026   2.197  14.989 -0.5100  0.1749 -0.6790
 2907TIP3    H130136   1.107   2.196  14.937 -0.3587  1.4921 -0.4883
 2907TIP3    H230137   1.009   2.104  15.007  0.0463 -0.2381 -2.1121
 2908TIP3   OH230138   0.455   0.444   3.193 -0.4365  0.4186  0.0945
 2908TIP3    H130139   0.507   0.451   3.113  0.1299  0.0506  0.4231
 2908TIP3    H230140   0.486   0.364   3.235 -0.9478  0.4426  0.5312
 2909TIP3   OH230141   3.613   2.106  14.865 -0.4501 -0.4392 -0.2794
 2909TIP3    H130142   3.575   2.021  14.890 -0.4411 -0.4318 -0.2401
 2909TIP3    H230143   3.537   2.161  14.847 -0.4673 -0.3149  0.1581
 2910TIP3   OH230144   5.792   0.605  16.774  0.2211  0.0770  0.0003
 2910TIP3    H130145   5.752   0.542  16.715  0.4987  0.4224 -0.5699
 2910TIP3    H230146   5.729   0.616  16.845 -0.2324 -0.1469 -0.3663
 2911TIP3   OH230147   5.146   1.461  12.405 -0.2872  0.1923 -0.5323
 2911TIP3    H130148   5.231   1.468  12.449 -0.8161 -0.8729  0.7083
 2911TIP3    H230149   5.092   1.527  12.449 -0.3418  0.2851 -0.7400
 2912TIP3   OH230150   5.498   1.060   3.175 -0.1006  0.6808 -0.0275
 2912TIP3    H130151   5.556   1.112   3.120  1.8982  0.2564  1.5481
 2912TIP3    H230152   5.519   0.969   3.154  0.5643  0.5130  1.2581
 2913TIP3   OH230153   5.013   4.488   1.802  0.4742  0.2061 -0.2139
 2913TIP3    H130154   4.976   4.401   1.790  1.1058 -0.3296  1.3483
 2913TIP3    H230155   5.076   4.498   1.730 -0.6494 -0.0120 -1.2420
 2914TIP3   OH230156   1.814   4.776   2.872  0.3004 -0.2327  0.1421
 2914TIP3    H130157   1.787   4.746   2.785 -0.2576 -2.3634  0.9908
 2914TIP3    H230158   1.737   4.764   2.927  1.4299 -1.6361  1.5198
 2915TIP3   OH230159   0.839   1.813  13.014  0.1999 -0.1178  0.0304
 2915TIP3    H130160   0.844   1.775  12.926  0.2489 -2.2453  0.8849
 2915TIP3    H230161   0.929   1.838  13.034  0.4385 -0.8698 -0.0466
 2916TIP3   OH230162   2.435   6.269   2.245 -0.0777 -0.1163 -0.0032
 2916TIP3    H130163   2.469   6.275   2.334  0.8894  0.9606 -0.4229
 2916TIP3    H230164   2.378   6.192   2.246 -1.0988  0.6316  1.8650
 2917TIP3   OH230165   1.723   3.834   5.452 -0.0274 -0.5288  0.1397
 2917TIP3    H130166   1.724   3.921   5.493 -0.8555 -0.6954  0.5321
 2917TIP3    H230167   1.816   3.812   5.441  0.1957  0.2732  0.3118
 2918TIP3   OH230168   0.445   2.109   6.093  0.4442 -0.1486  0.1631
 2918TIP3    H130169   0.411   2.056   6.020 -0.9836  0.9616 -0.0187
 2918TIP3    H230170   0.453   2.047   6.166 -1.7084 -0.5571  0.1143
 2919TIP3   OH230171   3.507   5.328   4.404 -0.4253  0.0803 -0.4250
 2919TIP3    H130172   3.504   5.418   4.371  0.6639  0.2617 -0.0500
 2919TIP3    H230173   3.436   5.324   4.468  0.0213  0.9120  0.1366
 2920TIP3   OH230174   1.298   2.606   3.791 -0.5709 -0.1197 -0.1755
 2920TIP3    H130175   1.237   2.626   3.862 -0.4430 -0.8432  0.1507
 2920TIP3    H230176   1.364   2.550   3.832 -0.7298 -0.9057 -0.9661
 2921TIP3   OH230177   5.738   1.809  10.962 -0.8302  0.2970  0.2714
 2921TIP3    H130178   5.746   1.829  10.869 -2.1936 -3.3731 -0.8329
 2921TIP3    H230179   5.828   1.788  10.989 -0.5472  0.5196 -0.4623
 2922TIP3   OH230180   2.278   1.962   3.193 -0.2487 -0.5586  0.0988
 2922TIP3    H130181   2.208   1.915   3.239 -1.4181  2.5761  1.8516
 2922TIP3    H230182   2.234   2.005   3.120  0.6067 -1.3098 -0.8963
 2923TIP3   OH230183   3.629   3.048  14.983  0.8327  0.0115  0.3315
 2923TIP3    H130184   3.657   3.015  14.898 -0.8914  0.4204 -0.4535
 2923TIP3    H230185   3.710   3.070  15.029  1.8354 -1.3385 -0.7316
 2924TIP3   OH230186   0.671   4.700  16.784 -0.1479  0.4505  0.3653
 2924TIP3    H130187   0.621   4.651  16.719  2.5419 -0.7033 -1.0114
 2924TIP3    H230188   0.717   4.633  16.835 -0.3791  1.4313  1.9361
 2925TIP3   OH230189   1.914   6.535   4.725 -0.2151  0.0490  0.1879
 2925TIP3    H130190   1.826   6.541   4.687  0.8676 -1.5584 -2.9844
 2925TIP3    H230191   1.970   6.585   4.664  1.3136 -0.4457  1.1250
 2926TIP3   OH230192   1.688   3.839   6.057  0.0932  0.3266 -0.3967
 2926TIP3    H130193   1.777   3.807   6.077 -0.4029 -0.8186  0.0952
 2926TIP3    H230194   1.645   3.843   6.143 -0.5176  0.2507 -0.6955
 2927TIP3   OH230195   4.877   5.618   4.888  0.2002 -0.3372  0.5238
 2927TIP3    H130196   4.832   5.568   4.956  2.3329 -0.7950  1.7136
 2927TIP3    H230197   4.902   5.700   4.932 -0.0847  0.2041 -0.3107
 2928TIP3   OH230198   2.151   2.406  11.650  0.6423 -0.1705 -0.4790
 2928TIP3    H130199   2.164   2.435  11.740 -2.4349 -1.8543  0.6453
 2928TIP3    H230200   2.108   2.480  11.607  2.4508  0.7771 -0.7619
 2929TIP3   OH230201   0.352   5.035  13.996 -0.6985  0.0441  0.4804
 2929TIP3    H130202   0.290   5.039  14.069 -0.5171  0.5296  0.6119
 2929TIP3    H230203   0.409   5.110  14.009 -0.9689  0.4241 -0.4311
 2930TIP3   OH230204   5.117   1.484   5.470  0.0334  0.4227 -0.2347
 2930TIP3    H130205   5.187   1.419   5.477 -1.0172 -0.7293  0.1101
 2930TIP3    H230206   5.064   1.454   5.396 -1.9718 -0.7248  1.5270
 2931TIP3   OH230207   6.674   6.116  15.266 -0.3803  0.0430 -0.7740
 2931TIP3    H130208   6.585   6.150  15.264 -0.1253  0.7724 -0.0755
 2931TIP3    H230209   6.713   6.154  15.345  0.3599 -0.7465 -0.7436
 2932TIP3   OH230210   1.641   0.526   2.300 -0.1680 -0.3104  0.2347
 2932TIP3    H130211   1.601   0.595   2.352  0.5285  0.5476 -0.3419
 2932TIP3    H230212   1.579   0.509   2.229 -1.3417 -1.8092  1.5351
 2933TIP3   OH230213   0.018   1.785  17.098  0.0441 -0.3271  0.1530
 2933TIP3    H130214   0.028   1.768  17.005  0.0435  0.3711  0.0198
 2933TIP3    H230215   0.010   1.698  17.138  1.3693 -0.6949 -0.3375
 2934TIP3   OH230216   2.956   1.569  10.371 -0.3095 -0.1405  0.0107
 2934TIP3    H130217   2.895   1.623  10.322  0.4959  1.4990  0.7389
 2934TIP3    H230218   2.913   1.555  10.456 -0.4653 -0.5659 -0.1344
 2935TIP3   OH230219   4.744   3.291  15.384 -0.4821  0.0249  0.2603
 2935TIP3    H130220   4.823   3.331  15.347 -0.6958  0.7420  0.5555
 2935TIP3    H230221   4.738   3.205  15.342 -1.7315  1.4556 -2.8045
 2936TIP3   OH230222   0.711   2.538   0.419 -0.6026 -0.2068  0.5372
 2936TIP3    H130223   0.729   2.631   0.403 -1.4935  0.0032  0.6837
 2936TIP3    H230224   0.777   2.511   0.482  0.7376 -0.1245 -0.7688
 2937TIP3   OH230225   4.940   6.264  15.693  0.3020  0.6100  0.0862
 2937TIP3    H130226   4.984   6.206  15.631  1.2678  0.9465  0.4342
 2937TIP3    H230227   4.849   6.235  15.693  1.0658 -2.1100  1.5861
 2938TIP3   OH230228   4.352   4.273  12.661 -0.1734  0.0241  0.1716
 2938TIP3    H130229   4.419   4.260  12.729  0.4299 -1.4993 -0.6557
 2938TIP3    H230230   4.270   4.248  12.702  0.3999 -2.5339 -0.0649
 2939TIP3   OH230231   4.356   4.675   5.019  0.2594  0.1813  0.2768
 2939TIP3    H130232   4.422   4.654   4.953 -0.0395 -3.2215  0.8937
 2939TIP3    H230233   4.273   4.675   4.971  0.3529  1.3298  0.0750
 2940TIP3   OH230234   4.476   1.002   4.120 -0.1306 -0.1547 -0.2354
 2940TIP3    H130235   4.477   0.911   4.150  0.4155 -0.0135  0.1835
 2940TIP3    H230236   4.424   1.048   4.185 -0.3940 -0.1602 -0.4392
 2941TIP3   OH230237   1.680   4.655   1.959 -0.2750  0.1388 -0.5319
 2941TIP3    H130238   1.625   4.585   1.994  0.9570 -0.4084  0.3616
 2941TIP3    H230239   1.700   4.627   1.869 -2.4515  0.9647 -1.3397
 2942TIP3   OH230240   1.961   5.465   3.068  0.1552 -0.3238 -0.3426
 2942TIP3    H130241   1.961   5.558   3.090  0.0460 -0.2598 -0.6057
 2942TIP3    H230242   1.898   5.457   2.996 -0.0185 -0.6403 -0.1574
 2943TIP3   OH230243   6.001   1.535  16.108  0.3864 -0.0943 -0.4891
 2943TIP3    H130244   5.925   1.507  16.058 -0.8539 -0.1152  1.3210
 2943TIP3    H230245   5.995   1.486  16.190  2.2446  0.0761 -0.2101
 2944TIP3   OH230246   4.765   6.609  15.269  0.0319  0.2302 -0.2192
 2944TIP3    H130247   4.748   6.688  15.320 -1.0258 -1.0968  1.6056
 2944TIP3    H230248   4.812   6.551  15.329  0.4031 -0.7010 -1.3721
 2945TIP3   OH230249   5.386   6.749   2.043 -0.0976 -0.1060 -0.2718
 2945TIP3    H130250   5.456   6.798   2.085  0.4794 -0.4594 -0.8062
 2945TIP3    H230251   5.409   6.657   2.058  1.0267 -0.2969 -2.7338
 2946TIP3   OH230252   5.286   6.531   1.510 -0.5402 -0.2972 -0.1518
 2946TIP3    H130253   5.372   6.570   1.493  0.1372 -1.1648  1.0611
 2946TIP3    H230254   5.256   6.574   1.589 -1.9088  1.0211 -1.3452
 2947TIP3   OH230255   2.836   2.543  15.331 -0.1571 -0.2434 -0.5210
 2947TIP3    H130256   2.829   2.467  15.389  0.3403  0.5542  0.6366
 2947TIP3    H230257   2.926   2.574  15.342 -1.0223  2.0484  1.1151
 2948TIP3   OH230258   0.999   2.111  15.686  0.2166  0.3250  0.0717
 2948TIP3    H130259   0.935   2.155  15.742  0.1226  1.7692 -1.0971
 2948TIP3    H230260   1.083   2.146  15.713  0.2991  0.0866  0.1297
 2949TIP3   OH230261   3.071   2.616   5.118  0.0535  0.6324 -0.6786
 2949TIP3    H130262   3.035   2.598   5.031 -0.9832  0.4372 -0.2268
 2949TIP3    H230263   3.155   2.569   5.119  0.0668  0.6174 -1.5551
 2950TIP3   OH230264   5.380   3.311  14.164 -0.3228 -0.4006 -0.3064
 2950TIP3    H130265   5.390   3.216  14.174  1.5620 -0.3904 -1.4829
 2950TIP3    H230266   5.413   3.329  14.076 -0.7078  1.3426 -0.1262
 2951TIP3   OH230267   2.452   2.152   6.093 -0.5628  0.6318 -0.3683
 2951TIP3    H130268   2.548   2.146   6.091 -0.5771 -1.2965  1.6566
 2951TIP3    H230269   2.431   2.218   6.026  2.1633  1.2281 -0.7519
 2952TIP3   OH230270   2.458   6.321   2.598 -0.2335 -0.3609  0.0361
 2952TIP3    H130271   2.509   6.340   2.677 -0.4592 -1.5518  0.4808
 2952TIP3    H230272   2.372   6.359   2.615 -0.8967 -2.2913  1.2096
 2953TIP3   OH230273   0.429   5.138   2.085 -0.4705  0.1649 -0.3948
 2953TIP3    H130274   0.383   5.211   2.044 -0.1331  0.1407 -0.8252
 2953TIP3    H230275   0.361   5.072   2.101 -0.9324  0.8900  0.7650
 2954TIP3   OH230276   2.879   2.572  12.315  0.1808 -0.5678 -0.1042
 2954TIP3    H130277   2.830   2.539  12.390  1.1729 -0.8529  0.4362
 2954TIP3    H230278   2.917   2.495  12.274 -2.3172 -0.7112 -2.4069
 2955TIP3   OH230279   6.722   2.925   2.255 -0.3320  0.1630 -0.4430
 2955TIP3    H130280   6.812   2.899   2.273 -0.2581  0.0654 -0.9367
 2955TIP3    H230281   6.668   2.866   2.308 -0.1661 -0.8708 -1.3944
 2956TIP3   OH230282   6.378   0.819  12.550 -0.4783  0.4127  0.2773
 2956TIP3    H130283   6.322   0.745  12.574  0.6511  0.0162  1.8376
 2956TIP3    H230284   6.376   0.821  12.455 -0.0772 -1.9914  0.1773
 2957TIP3   OH230285   0.705   4.850   0.804  0.2569 -0.1785 -0.5125
 2957TIP3    H130286   0.610   4.847   0.799  0.3484 -1.5054 -2.9703
 2957TIP3    H230287   0.733   4.759   0.794  1.7922  0.3207 -1.1077
 2958TIP3   OH230288   4.789   3.368  13.643  0.1260  0.4881 -0.5393
 2958TIP3    H130289   4.843   3.313  13.700 -1.9488 -1.7758 -0.6015
 2958TIP3    H230290   4.797   3.456  13.679  2.0919 -0.1525  0.7323
 2959TIP3   OH230291   4.780   5.269   6.687  0.7240  0.4369  0.9047
 2959TIP3    H130292   4.694   5.286   6.724 -0.8207 -0.6315 -1.8288
 2959TIP3    H230293   4.812   5.192   6.734 -0.3739  0.1391  1.1832
 2960TIP3   OH230294   3.490   2.740  12.417 -0.7131  0.3307  0.4342
 2960TIP3    H130295   3.535   2.658  12.440 -2.5038 -1.0130 -0.5568
 2960TIP3    H230296   3.514   2.801  12.487  0.8274 -0.9696  1.1076
 2961TIP3   OH230297   4.043   1.806   5.541  0.0270 -0.6203  0.3615
 2961TIP3    H130298   4.110   1.874   5.553 -1.9196  1.6172 -0.5432
 2961TIP3    H230299   4.009   1.791   5.629 -1.2303  1.5379  0.3084
 2962TIP3   OH230300   3.885   3.127  15.051  0.1874 -0.0223 -0.1591
 2962TIP3    H130301   3.972   3.096  15.079 -0.5580 -2.9802 -0.7455
 2962TIP3    H230302   3.881   3.217  15.081  2.8498 -0.2805  1.3003
 2963TIP3   OH230303   1.637   3.951   1.060 -0.6274 -0.4724 -0.5496
 2963TIP3    H130304   1.648   3.931   0.967 -1.3618 -2.8335 -0.1894
 2963TIP3    H230305   1.723   3.935   1.098 -0.0941  1.3297 -0.9033
 2964TIP3   OH230306   4.819   4.756  17.311 -0.3762 -0.0738 -0.0577
 2964TIP3    H130307   4.842   4.664  17.323 -0.9003  0.0493  2.3962
 2964TIP3    H230308   4.903   4.802  17.318 -0.3124 -0.2493  0.3794
 2965TIP3   OH230309   6.124   0.539   4.378  0.6400 -0.6359  0.8076
 2965TIP3    H130310   6.093   0.627   4.359  0.0368 -0.9631  0.2297
 2965TIP3    H230311   6.112   0.529   4.472  0.5948 -0.1520  0.8565
 2966TIP3   OH230312   5.263   4.529   2.657 -0.5550  0.1066 -0.5335
 2966TIP3    H130313   5.236   4.596   2.720 -1.6162 -0.7577 -0.0278
 2966TIP3    H230314   5.184   4.511   2.606 -0.4799 -1.2188 -0.2145
 2967TIP3   OH230315   1.539   6.493   2.257  0.4622  0.0964  0.0136
 2967TIP3    H130316   1.576   6.434   2.323  0.3112  0.5667  0.5203
 2967TIP3    H230317   1.451   6.458   2.240  0.4356  0.0803  0.1890
 2968TIP3   OH230318   5.967   1.317   1.441 -0.2114 -0.2263  0.2551
 2968TIP3    H130319   6.024   1.274   1.505  2.2860  0.3837 -1.3996
 2968TIP3    H230320   5.944   1.400   1.482  0.6720 -0.1879  0.6980
 2969TIP3   OH230321   2.138   1.966   6.695  0.0608  0.4317  0.0270
 2969TIP3    H130322   2.047   1.951   6.673  0.0447  0.0457  0.3558
 2969TIP3    H230323   2.188   1.912   6.634  0.0803  0.8016 -0.2900
 2970TIP3   OH230324   5.487   3.660   5.783 -0.3844  0.3439 -0.3050
 2970TIP3    H130325   5.510   3.738   5.834 -1.2409 -0.4985  1.4554
 2970TIP3    H230326   5.549   3.593   5.811 -1.1644 -0.2641  0.0152
 2971TIP3   OH230327   1.679   5.452   2.213 -0.3890 -0.1362  0.1907
 2971TIP3    H130328   1.638   5.530   2.178  0.9688  0.1685 -0.8388
 2971TIP3    H230329   1.761   5.483   2.253 -0.5940 -0.8366  1.2054
 2972TIP3   OH230330   3.113   3.472   3.917  0.2367  0.3419  0.6164
 2972TIP3    H130331   3.069   3.399   3.961  0.3411 -0.8414 -1.1784
 2972TIP3    H230332   3.051   3.502   3.851 -0.5823  3.1728  2.4806
 2973TIP3   OH230333   5.436   0.161   3.234 -0.9697  0.2882  0.3100
 2973TIP3    H130334   5.523   0.179   3.270 -0.3199 -0.5836 -0.7804
 2973TIP3    H230335   5.415   0.073   3.267 -1.5263  0.5644  0.7097
 2974TIP3   OH230336   3.926   2.045   5.148 -0.2022  0.6265 -0.0531
 2974TIP3    H130337   3.923   1.956   5.183 -2.1959  0.5184 -0.3421
 2974TIP3    H230338   3.990   2.042   5.078 -0.2377 -0.5899 -0.0489
 2975TIP3   OH230339   0.726   0.194  16.026  0.6519  0.7405  0.4651
 2975TIP3    H130340   0.642   0.163  15.991  0.3673 -0.0626  1.8093
 2975TIP3    H230341   0.714   0.289  16.034  0.3549  0.8094 -0.5930
 2976TIP3   OH230342   0.455   3.439  14.846 -0.4580  0.5883 -0.0291
 2976TIP3    H130343   0.380   3.452  14.904  0.7625 -0.9178  2.0455
 2976TIP3    H230344   0.457   3.345  14.829  0.2019  0.7819 -1.1334
 2977TIP3   OH230345   1.355   6.749  14.302  0.8892  0.5818 -0.4290
 2977TIP3    H130346   1.325   6.802  14.375  1.6668  0.8198 -0.2752
 2977TIP3    H230347   1.280   6.747  14.242 -0.5084 -1.3038  1.2509
 2978TIP3   OH230348   2.958   6.035   1.372 -0.6172  0.1050  0.0472
 2978TIP3    H130349   3.008   5.968   1.418 -1.0118  0.0648  0.4230
 2978TIP3    H230350   2.898   5.986   1.315  0.8556  0.1562 -1.6118
 2979TIP3   OH230351   5.174   1.915   0.017  0.3589 -0.0798 -0.4917
 2979TIP3    H130352   5.143   1.829  -0.010 -0.0549 -0.4718  1.1317
 2979TIP3    H230353   5.187   1.963  -0.065 -0.1955 -1.4037 -1.3811
 2980TIP3   OH230354   6.110   1.188  16.956  0.1357 -0.4808 -0.2397
 2980TIP3    H130355   6.099   1.174  17.050 -1.0645 -1.7756 -0.5451
 2980TIP3    H230356   6.041   1.250  16.932  0.4802 -0.1033 -0.2628
 2981TIP3   OH230357   3.715   3.107  15.395  0.0433 -0.2856 -0.3713
 2981TIP3    H130358   3.784   3.141  15.453 -0.7959 -1.2522  1.2691
 2981TIP3    H230359   3.692   3.182  15.339 -0.1844  1.2077  1.5922
 2982TIP3   OH230360   0.716   2.947   1.021 -0.0957 -0.3550  0.1428
 2982TIP3    H130361   0.682   2.858   1.029 -0.8047 -0.1551 -0.5261
 2982TIP3    H230362   0.699   2.971   0.930 -1.2971  1.0048  0.6902
 2983TIP3   OH230363   3.033   2.511  13.275  0.0708  0.1945 -0.0852
 2983TIP3    H130364   2.973   2.579  13.306 -1.2561 -1.1622  0.4292
 2983TIP3    H230365   3.098   2.503  13.345 -0.4029  0.1812  0.3609
 2984TIP3   OH230366   4.290   0.352  13.643  0.0685  1.0878  0.2223
 2984TIP3    H130367   4.337   0.418  13.593  1.5222  0.5479  0.8146
 2984TIP3    H230368   4.330   0.269  13.617 -0.6914  0.5932  0.6027
 2985TIP3   OH230369   2.069   1.835  14.676 -0.4173 -0.0800  0.2229
 2985TIP3    H130370   2.149   1.841  14.624 -0.2451  0.3949  0.5340
 2985TIP3    H230371   2.069   1.746  14.710  1.2373  0.5965  2.1891
 2986TIP3   OH230372   1.136   0.791   4.949  0.1115 -0.1344  0.8415
 2986TIP3    H130373   1.063   0.747   4.905 -0.0861 -0.5678  1.5843
 2986TIP3    H230374   1.193   0.820   4.878  0.9454 -2.7752  0.3199
 2987TIP3   OH230375   6.702   4.298  16.495 -0.2334 -0.7429  0.6233
 2987TIP3    H130376   6.685   4.383  16.537 -0.9641 -1.0321  0.9437
 2987TIP3    H230377   6.772   4.259  16.546 -0.0853 -0.4475  0.6472
 2988TIP3   OH230378   3.303   6.271   5.536  0.5676  0.3354  0.4645
 2988TIP3    H130379   3.346   6.351   5.505 -0.1370  0.6734  0.3364
 2988TIP3    H230380   3.303   6.214   5.460  1.2249  0.1362  0.6026
 2989TIP3   OH230381   1.808   0.962  14.508  0.1854  0.3576 -0.3875
 2989TIP3    H130382   1.821   1.056  14.498 -0.3884  0.4176 -0.6414
 2989TIP3    H230383   1.796   0.930  14.418  0.6435  0.0005 -0.3256
 2990TIP3   OH230384   2.012   0.081  11.088  0.5890  0.1252 -0.0071
 2990TIP3    H130385   2.077   0.084  11.018  0.9425  0.6808  0.3393
 2990TIP3    H230386   1.962   0.001  11.070 -1.2693  1.7088 -2.6231
 2991TIP3   OH230387   2.609   0.632   6.438  0.7006 -0.3197 -0.4151
 2991TIP3    H130388   2.657   0.549   6.440 -1.7273 -1.9342 -2.8215
 2991TIP3    H230389   2.558   0.631   6.519  2.5621  0.1774  0.8571
 2992TIP3   OH230390   4.571   5.446   3.970  0.4524  0.3256  0.2088
 2992TIP3    H130391   4.563   5.520   3.909 -0.0109 -1.1841 -1.6671
 2992TIP3    H230392   4.590   5.487   4.054 -0.9949  2.6494 -0.4849
 2993TIP3   OH230393   4.850   0.803  15.412 -0.2141 -0.0805  0.2472
 2993TIP3    H130394   4.807   0.818  15.327  0.3783  1.2322  0.1485
 2993TIP3    H230395   4.875   0.711  15.410 -0.2177 -0.0785 -1.0059
 2994TIP3   OH230396   1.240   2.938  15.966 -0.3965 -0.0612  0.3096
 2994TIP3    H130397   1.322   2.896  15.942 -1.4461 -2.0832  0.0661
 2994TIP3    H230398   1.219   2.905  16.053 -1.7035 -0.8234 -0.2602
 2995TIP3   OH230399   5.919   0.638  12.381  0.0255  0.0499 -0.0671
 2995TIP3    H130400   5.942   0.715  12.328  0.5263  0.7330  1.0959
 2995TIP3    H230401   5.838   0.662  12.425  0.4386  0.1138  0.6737
 2996TIP3   OH230402   4.714   5.610   3.095  0.3617 -0.0953 -0.2591
 2996TIP3    H130403   4.762   5.611   3.012  0.9739  0.9455  0.0840
 2996TIP3    H230404   4.736   5.694   3.137 -1.3361  0.1832  0.1676
 2997TIP3   OH230405   4.690   5.884  11.886 -0.3614 -0.0101  0.1996
 2997TIP3    H130406   4.694   5.798  11.845  1.8229  1.2626 -2.6983
 2997TIP3    H230407   4.748   5.939  11.832 -2.5885  3.5984  1.0887
 2998TIP3   OH230408   0.439   5.628   3.584 -0.3981  0.2118 -0.8655
 2998TIP3    H130409   0.484   5.625   3.668 -1.4317  2.2603 -0.1631
 2998TIP3    H230410   0.508   5.621   3.519  0.5096 -0.5495  0.1424
 2999TIP3   OH230411   3.607   3.357  17.289 -0.0144 -0.2139  0.1864
 2999TIP3    H130412   3.693   3.395  17.307  0.0459 -0.4141  0.3271
 2999TIP3    H230413   3.578   3.321  17.374 -0.0319 -0.5540  0.0385
 3000TIP3   OH230414   4.323   1.290   2.821  0.0734  0.6527  0.7598
 3000TIP3    H130415   4.274   1.354   2.872 -0.2218  1.1090 -0.0775
 3000TIP3    H230416   4.387   1.343   2.772  0.5071  0.1999  0.8310
 3001TIP3   OH230417   1.042   4.504   2.362 -0.6893  0.2928 -0.4826
 3001TIP3    H130418   1.092   4.491   2.442  0.2591 -0.0702 -1.1187
 3001TIP3    H230419   1.078   4.584   2.324  0.0714 -0.4630 -1.4083
 3002TIP3   OH230420   4.336   4.680   2.762 -0.0757 -0.5728  0.7949
 3002TIP3    H130421   4.365   4.718   2.679  2.1952 -1.5247  1.0762
 3002TIP3    H230422   4.257   4.631   2.740 -0.3919  0.4649 -0.4812
 3003TIP3   OH230423   6.537   1.889   0.935 -0.3140 -0.1009 -0.3412
 3003TIP3    H130424   6.444   1.907   0.949 -0.3599  0.3683 -1.2356
 3003TIP3    H230425   6.569   1.865   1.022 -0.2230  4.3165  1.0931
 3004TIP3   OH230426   5.272   1.077   1.946  0.2641  0.0063 -0.7812
 3004TIP3    H130427   5.248   1.048   1.858  1.5787  0.2705 -1.2455
 3004TIP3    H230428   5.361   1.109   1.937  0.8134 -0.9562  0.8739
 3005TIP3   OH230429   0.383   6.667  12.640  0.0566 -0.1362  0.2039
 3005TIP3    H130430   0.324   6.682  12.567 -0.2258 -1.6454  0.0969
 3005TIP3    H230431   0.454   6.731  12.627 -0.8399  0.7612 -0.4152
 3006TIP3   OH230432   0.943   2.407   0.563 -0.2273  0.1418  0.3880
 3006TIP3    H130433   0.976   2.345   0.629 -0.7709 -1.7054 -0.9846
 3006TIP3    H230434   0.981   2.376   0.481 -1.3457  1.0259 -0.4898
 3007TIP3   OH230435   1.929   5.845  11.166 -0.2139  0.1855  0.0244
 3007TIP3    H130436   1.865   5.904  11.205 -1.9341 -1.4986 -0.1091
 3007TIP3    H230437   1.891   5.819  11.082  1.9932  1.3270 -1.4293
 3008TIP3   OH230438   5.093   1.170   2.481  0.5250  0.0958  0.5149
 3008TIP3    H130439   5.100   1.092   2.536  0.0343  0.5191  1.1870
 3008TIP3    H230440   5.155   1.155   2.410  1.8481 -0.0452  1.6753
 3009TIP3   OH230441   1.297   4.716  12.267  0.9781 -0.1102  0.5906
 3009TIP3    H130442   1.289   4.774  12.342  0.3282 -0.8974  1.1438
 3009TIP3    H230443   1.221   4.658  12.273  0.4848  0.3029 -1.1099
 3010TIP3   OH230444   6.338   1.964   2.564 -0.1977 -0.2079  0.2450
 3010TIP3    H130445   6.260   1.928   2.521 -0.2768  0.7841 -0.4794
 3010TIP3    H230446   6.316   2.056   2.579 -0.7634 -0.7891  3.8098
 3011TIP3   OH230447   1.034   1.144  14.038  0.6755  0.1749  0.0553
 3011TIP3    H130448   1.077   1.187  13.964  2.7099  1.5714  1.8944
 3011TIP3    H230449   0.947   1.184  14.042  0.2989 -0.3765 -1.8884
 3012TIP3   OH230450   4.254   1.312   0.231  0.6506 -0.1993  0.2822
 3012TIP3    H130451   4.303   1.394   0.229 -0.0383  0.3875  3.2438
 3012TIP3    H230452   4.322   1.244   0.232  1.2710  0.3960 -0.2550
 3013TIP3   OH230453   5.047   0.461  17.156 -0.1964 -0.1360 -0.0188
 3013TIP3    H130454   4.988   0.503  17.094  1.5844  0.5913 -1.3006
 3013TIP3    H230455   4.989   0.419  17.220 -2.0704  0.2605 -1.3811
 3014TIP3   OH230456   3.904   1.344  11.359  0.2815  0.6441 -0.1307
 3014TIP3    H130457   3.838   1.413  11.361 -0.9109 -0.4390 -0.9669
 3014TIP3    H230458   3.941   1.349  11.270 -2.0156 -1.7329 -1.3400
 3015TIP3   OH230459   3.820   5.450   5.131  0.2999  0.1424  0.3386
 3015TIP3    H130460   3.864   5.433   5.215  0.4596  0.1128  0.2497
 3015TIP3    H230461   3.871   5.400   5.067 -0.8533 -1.2825  0.4729
 3016TIP3   OH230462   4.796   1.429   1.060  0.8390 -0.4754 -0.3009
 3016TIP3    H130463   4.741   1.507   1.063  1.6820  0.1246  0.2746
 3016TIP3    H230464   4.875   1.454   1.107  1.0254 -1.7654  0.1292
 3017TIP3   OH230465   5.191   4.668  14.647 -0.1356  0.3680 -0.2474
 3017TIP3    H130466   5.107   4.641  14.610 -0.5580 -0.7147  1.3979
 3017TIP3    H230467   5.171   4.696  14.736  0.8232  3.0997 -0.7770
 3018TIP3   OH230468   4.097   2.849  13.267 -0.5248 -0.5362 -0.3211
 3018TIP3    H130469   4.042   2.795  13.325 -0.6967  0.9246  0.9328
 3018TIP3    H230470   4.101   2.934  13.310  1.6036 -0.1899 -1.0821
 3019TIP3   OH230471   3.602   3.456  13.686 -0.1681  0.5222  0.4960
 3019TIP3    H130472   3.630   3.422  13.601  3.5974 -2.4051  2.6069
 3019TIP3    H230473   3.561   3.381  13.730  1.8665  0.6096  2.7441
 3020TIP3   OH230474   3.766   1.386   6.303 -0.1893 -0.3859 -0.1064
 3020TIP3    H130475   3.818   1.315   6.265  0.4689  0.6549 -1.2423
 3020TIP3    H230476   3.677   1.371   6.272  0.1072 -0.2516 -1.0444
 3021TIP3   OH230477   0.234   1.234   0.341  0.2323  0.1647  0.2208
 3021TIP3    H130478   0.268   1.176   0.273  0.1337  2.5034 -1.9989
 3021TIP3    H230479   0.158   1.276   0.301 -0.8919  0.4036  2.4479
 3022TIP3   OH230480   5.357   6.197  13.095 -0.5179  0.4017  0.0829
 3022TIP3    H130481   5.355   6.293  13.093 -1.3751  0.5303  2.8461
 3022TIP3    H230482   5.264   6.172  13.097 -0.2994 -0.4968 -0.4791
 3023TIP3   OH230483   2.936   5.946   5.268 -0.1500  0.2931  0.4792
 3023TIP3    H130484   3.013   5.977   5.317 -0.4334  0.8819  0.5557
 3023TIP3    H230485   2.956   5.854   5.250  0.0534  0.1166  1.5173
 3024TIP3   OH230486   3.676   0.373  12.447 -0.6200 -0.3463 -0.5747
 3024TIP3    H130487   3.746   0.365  12.383  1.1165  1.6992  0.9087
 3024TIP3    H230488   3.613   0.434  12.408 -0.4021 -0.3965 -1.0017
 3025TIP3   OH230489   4.207   3.234  15.088 -0.3173  0.2546  0.2667
 3025TIP3    H130490   4.290   3.262  15.127  0.3161  0.8892 -1.4282
 3025TIP3    H230491   4.198   3.143  15.115 -0.4674  0.9314  2.7129
 3026TIP3   OH230492   4.494   0.079   4.612  0.4484 -0.5006  0.4439
 3026TIP3    H130493   4.582   0.117   4.616  0.6214 -0.3280 -2.6584
 3026TIP3    H230494   4.439   0.149   4.576 -0.0099 -1.8686 -1.6902
 3027TIP3   OH230495   6.064   5.793   3.500  0.3765 -0.2168 -0.1923
 3027TIP3    H130496   6.085   5.714   3.450 -0.5342  0.1222 -1.1275
 3027TIP3    H230497   6.145   5.844   3.498  0.2742 -0.0681 -1.5946
 3028TIP3   OH230498   5.110   1.734   3.453  0.1688  0.1494  0.2466
 3028TIP3    H130499   5.082   1.753   3.543  0.8160  1.6719  0.1596
 3028TIP3    H230500   5.120   1.638   3.451  0.1252  0.0812  1.7923
 3029TIP3   OH230501   4.896   0.129  13.210  0.5084 -0.0727  0.0030
 3029TIP3    H130502   4.857   0.057  13.259  1.3036 -0.5478 -0.0546
 3029TIP3    H230503   4.831   0.151  13.143 -0.0107 -0.2991  0.4214
 3030TIP3   OH230504   0.214   2.968   1.305 -0.0640  0.2313  0.7551
 3030TIP3    H130505   0.228   2.990   1.398 -1.9212 -0.3138  1.2082
 3030TIP3    H230506   0.208   3.052   1.261  1.4369  0.4975  0.9986
 3031TIP3   OH230507   3.483   5.874  12.604  0.5198  0.0535 -0.9862
 3031TIP3    H130508   3.449   5.793  12.564 -0.8514  0.1128 -0.0254
 3031TIP3    H230509   3.405   5.929  12.616  1.5833  2.1207 -2.8489
 3032TIP3   OH230510   3.457   4.112   5.886 -0.7137 -0.2447  0.1347
 3032TIP3    H130511   3.496   4.195   5.914  0.0874 -0.9459  1.1911
 3032TIP3    H230512   3.363   4.124   5.899 -0.5040  0.0433  1.6090
 3033TIP3   OH230513   2.909   6.406  11.587 -0.1976  0.5042 -0.0738
 3033TIP3    H130514   2.966   6.482  11.594  0.0653  0.2148  1.2785
 3033TIP3    H230515   2.964   6.337  11.551  0.1278  0.4233  0.5569
 3034TIP3   OH230516   1.787   3.268  13.452 -0.3823  0.3860  0.1658
 3034TIP3    H130517   1.752   3.243  13.537 -0.1289  0.9319  0.4303
 3034TIP3    H230518   1.844   3.194  13.428  0.1953  0.5883  0.8536
 3035TIP3   OH230519   6.012   5.896   0.986  0.1438 -0.0764 -0.4003
 3035TIP3    H130520   6.104   5.921   0.972 -0.0166  1.1748  0.5924
 3035TIP3    H230521   6.004   5.888   1.081 -0.4023 -1.7485 -0.5618
 3036TIP3   OH230522   4.495   1.591  12.411  0.4580  0.0079 -0.3737
 3036TIP3    H130523   4.533   1.528  12.351  2.2556  0.7162 -0.0766
 3036TIP3    H230524   4.485   1.671  12.359 -0.4462 -0.0996 -0.3810
 3037TIP3   OH230525   6.054   6.616  14.810 -0.2912 -0.7944 -0.9042
 3037TIP3    H130526   5.994   6.670  14.759  0.0051 -0.7413 -1.2064
 3037TIP3    H230527   6.062   6.660  14.894  1.0196  0.4172 -1.6103
 3038TIP3   OH230528   5.446   6.732  13.772  0.2951 -0.5251  0.2542
 3038TIP3    H130529   5.424   6.790  13.699 -0.7481 -1.2657 -0.0413
 3038TIP3    H230530   5.517   6.678  13.739 -1.2351 -1.9752 -0.8482
 3039TIP3   OH230531   2.859   2.396  14.528  0.5748 -0.2224  0.3296
 3039TIP3    H130532   2.871   2.447  14.607  2.6768 -0.3782  0.1641
 3039TIP3    H230533   2.824   2.312  14.558  1.4037 -0.2982  1.1145
 3040TIP3   OH230534   6.491   0.399  15.950 -0.1576  0.7287  0.1506
 3040TIP3    H130535   6.400   0.373  15.960  0.2130 -0.4646  0.5459
 3040TIP3    H230536   6.500   0.478  16.004 -0.4611 -0.3354  1.8391
 3041TIP3   OH230537   0.920   1.722  13.804 -0.7111 -0.2829  0.6989
 3041TIP3    H130538   0.964   1.801  13.835 -0.0655 -0.5340  0.4408
 3041TIP3    H230539   0.981   1.683  13.741 -1.6653 -0.2047 -0.3028
 3042TIP3   OH230540   6.657   4.986   1.669 -0.7999  0.2124  0.2249
 3042TIP3    H130541   6.602   4.928   1.722 -0.8299  0.9071  0.9908
 3042TIP3    H230542   6.716   5.027   1.732 -0.1169  0.2734 -0.4409
 3043TIP3   OH230543   5.546   1.182   1.723 -0.3863  0.7852  0.4771
 3043TIP3    H130544   5.533   1.096   1.762  0.2620  0.2318 -0.4776
 3043TIP3    H230545   5.557   1.241   1.798  0.9547 -0.2581  1.1603
 3044TIP3   OH230546   6.013   1.961  15.952 -0.1962 -0.0982  0.2040
 3044TIP3    H130547   5.944   2.009  15.905  1.6707  0.6936 -1.8909
 3044TIP3    H230548   6.044   1.896  15.889  1.2318 -0.1667  0.9466
 3045TIP3   OH230549   0.713   5.900   4.600 -0.4730  0.0950  0.1578
 3045TIP3    H130550   0.735   5.836   4.667  0.1198 -0.5907 -0.6702
 3045TIP3    H230551   0.623   5.926   4.620 -0.9994 -1.5554  0.0826
 3046TIP3   OH230552   5.513   0.125  12.822  0.2783 -0.3163 -0.5521
 3046TIP3    H130553   5.550   0.054  12.769 -1.0965 -1.6015  0.1234
 3046TIP3    H230554   5.586   0.186  12.835  0.4300  0.7536 -4.8710
 3047TIP3   OH230555   1.314   3.721  11.076  0.5972 -0.2121  0.2612
 3047TIP3    H130556   1.296   3.775  10.999  1.5587 -0.9018 -0.4797
 3047TIP3    H230557   1.256   3.645  11.067 -0.3614  0.4156  1.0149
 3048TIP3   OH230558   6.145   3.014   4.449  0.5642  0.3992  0.2827
 3048TIP3    H130559   6.057   3.038   4.420  0.0961 -0.2018  1.1636
 3048TIP3    H230560   6.159   2.926   4.413  1.4510  1.1133 -1.1911
 3049TIP3   OH230561   4.299   0.657  14.053 -0.3304  0.0840 -0.2876
 3049TIP3    H130562   4.338   0.744  14.063 -0.5735  0.2623 -0.8321
 3049TIP3    H230563   4.366   0.597  14.085 -0.1353  0.4679  0.0346
 3050TIP3   OH230564   6.580   2.349   3.546  0.3069 -0.1659  0.2027
 3050TIP3    H130565   6.607   2.439   3.566  0.1823  0.0783 -0.6862
 3050TIP3    H230566   6.626   2.327   3.465  1.0506 -1.2463  0.8826
 3051TIP3   OH230567   3.731   0.216  13.913  0.3853 -0.1129  0.4777
 3051TIP3    H130568   3.659   0.279  13.916 -0.5770 -1.1632  0.0685
 3051TIP3    H230569   3.785   0.237  13.989 -0.8886  0.0685  1.3544
 3052TIP3   OH230570   1.209   5.834  17.139 -0.1380 -0.2105 -0.6956
 3052TIP3    H130571   1.204   5.756  17.084  1.8264 -1.1365  0.3182
 3052TIP3    H230572   1.120   5.869  17.140 -1.4129 -3.1670 -0.2063
 3053TIP3   OH230573   4.420   1.491   3.882 -0.3784 -0.3506  1.0015
 3053TIP3    H130574   4.471   1.502   3.963 -1.2183 -0.3046  1.5367
 3053TIP3    H230575   4.368   1.571   3.875  2.0583  1.1828 -1.3622
 3054TIP3   OH230576   0.322   3.885  11.556 -0.5116  0.3263  0.1297
 3054TIP3    H130577   0.304   3.956  11.616  0.1735 -0.3538  1.1723
 3054TIP3    H230578   0.312   3.805  11.608  0.8305 -0.2453 -0.4355
 3055TIP3   OH230579   2.670   4.002  11.260  0.1176 -0.4062  0.2631
 3055TIP3    H130580   2.616   3.935  11.302 -0.4706  0.4598  0.9035
 3055TIP3    H230581   2.614   4.040  11.194  0.3512 -0.3223  0.1114
 3056TIP3   OH230582   4.847   2.489   0.808  0.5397 -0.1968  0.1497
 3056TIP3    H130583   4.904   2.452   0.740  0.9520  1.1161 -0.2468
 3056TIP3    H230584   4.791   2.416   0.834  0.5771 -0.8091 -1.3859
 3057TIP3   OH230585   4.636   2.172   0.196  0.0351 -0.7649  0.3226
 3057TIP3    H130586   4.694   2.149   0.268  1.6978  2.0815  0.0543
 3057TIP3    H230587   4.682   2.141   0.117  0.8657  0.7709  0.1694
 3058TIP3   OH230588   0.840   4.722   1.179  0.1532 -0.1213  0.3267
 3058TIP3    H130589   0.906   4.680   1.124  0.5392  1.7754 -0.7356
 3058TIP3    H230590   0.830   4.663   1.254  3.0223 -0.4963  0.5101
 3059TIP3   OH230591   4.927   6.547  13.769 -0.0776 -0.4561 -0.9790
 3059TIP3    H130592   4.836   6.522  13.750 -0.0423 -0.1762 -1.5240
 3059TIP3    H230593   4.978   6.513  13.696 -0.0430  1.2682 -1.8216
 3060TIP3   OH230594   5.490   4.008  16.177  0.2027 -0.3867 -0.2266
 3060TIP3    H130595   5.543   3.936  16.142  2.1460 -0.0786  1.8420
 3060TIP3    H230596   5.407   3.967  16.201  1.1432 -1.9214  0.5947
 3061TIP3   OH230597   6.754   3.631   1.910  0.4049  0.1078  0.0712
 3061TIP3    H130598   6.769   3.723   1.893  2.4933  0.2345  2.1283
 3061TIP3    H230599   6.798   3.585   1.838  2.1820  0.7025  0.7318
 3062TIP3   OH230600   6.310   5.034   1.351 -0.2980  0.4860  0.4764
 3062TIP3    H130601   6.310   4.947   1.311  0.4246  1.4743 -1.8751
 3062TIP3    H230602   6.222   5.044   1.388 -1.0443 -0.5218 -0.9263
 3063TIP3   OH230603   2.498   2.886  13.109  0.0815 -0.0315 -0.1392
 3063TIP3    H130604   2.476   2.821  13.175 -0.0647  1.8330  1.7328
 3063TIP3    H230605   2.417   2.934  13.093  0.9462  2.0881  1.3435
 3064TIP3   OH230606   4.651   2.862   1.016  0.2040  0.3363  0.0051
 3064TIP3    H130607   4.566   2.819   1.012  0.3997  0.0141 -0.7539
 3064TIP3    H230608   4.633   2.946   1.058 -0.2562 -0.2775  1.0860
 3065TIP3   OH230609   4.650   3.109   5.553 -0.1846  0.2377 -0.3194
 3065TIP3    H130610   4.571   3.154   5.582  0.1167 -0.0233  1.0124
 3065TIP3    H230611   4.623   3.057   5.477 -0.9429  1.2526 -0.7508
 3066TIP3   OH230612   5.753   4.651  14.196 -1.0191 -0.5904  0.3624
 3066TIP3    H130613   5.751   4.678  14.104 -2.7930 -0.3955  0.4294
 3066TIP3    H230614   5.843   4.669  14.224 -1.3216  2.6226 -0.3856
 3067TIP3   OH230615   5.758   6.262   2.351 -0.4722  0.4459  0.3945
 3067TIP3    H130616   5.780   6.310   2.431 -0.2996 -2.4815  2.2311
 3067TIP3    H230617   5.757   6.330   2.283  2.5199  2.6352  2.2412
 3068TIP3   OH230618   6.476   2.273  12.173  0.1083 -0.3815 -0.9218
 3068TIP3    H130619   6.517   2.231  12.249 -0.7460  2.3940  1.2548
 3068TIP3    H230620   6.544   2.332  12.139 -0.2022 -0.0825 -1.0224
 3069TIP3   OH230621   4.513   6.653  12.771  0.0821  0.4286 -0.1429
 3069TIP3    H130622   4.586   6.622  12.717 -0.5138 -1.0526 -0.1539
 3069TIP3    H230623   4.500   6.583  12.835 -0.8464  1.0190  0.3333
 3070TIP3   OH230624   1.790   4.066   4.196  0.0232 -0.2243 -0.7234
 3070TIP3    H130625   1.880   4.089   4.217 -0.2982  0.6627 -0.2941
 3070TIP3    H230626   1.788   4.062   4.100  1.0411 -2.4555 -0.7128
 3071TIP3   OH230627   6.386   0.064  12.699  0.2524  0.1424  0.2054
 3071TIP3    H130628   6.444   0.092  12.628 -0.7982  1.6054 -0.1356
 3071TIP3    H230629   6.299   0.089  12.669 -0.4006 -0.7371  1.3103
 3072TIP3   OH230630   5.262   5.351   5.636  0.2229  0.5152  0.6018
 3072TIP3    H130631   5.286   5.387   5.721 -0.1620  2.1578  0.0417
 3072TIP3    H230632   5.329   5.384   5.576  0.1946 -0.1982  0.1589
 3073TIP3   OH230633   0.189   0.156   0.500  0.4068  0.3016  0.0098
 3073TIP3    H130634   0.165   0.179   0.590 -2.6571  0.9352 -0.8581
 3073TIP3    H230635   0.168   0.234   0.449  0.3760 -0.6595 -1.5100
 3074TIP3   OH230636   0.807   2.471  13.857  0.3025 -0.3431 -0.0435
 3074TIP3    H130637   0.839   2.436  13.941  0.9514  1.7781  0.6640
 3074TIP3    H230638   0.713   2.484  13.870 -0.2179 -2.9029 -0.7662
 3075TIP3   OH230639   1.742   4.962  16.457  0.6728 -0.2236  0.2920
 3075TIP3    H130640   1.670   4.900  16.475  0.9099 -0.5815  0.0144
 3075TIP3    H230641   1.700   5.048  16.461  0.3410 -0.3970  0.7013
 3076TIP3   OH230642   1.990   6.052   6.494 -0.5808  0.0221  0.0378
 3076TIP3    H130643   1.989   6.063   6.398 -1.2680 -0.8642 -0.0690
 3076TIP3    H230644   2.078   6.080   6.520 -0.9023  1.8464 -0.6442
 3077TIP3   OH230645   6.545   6.109  14.115 -0.3488 -0.2856 -0.3001
 3077TIP3    H130646   6.571   6.107  14.023  2.0209  1.6511  0.2060
 3077TIP3    H230647   6.466   6.163  14.117 -1.0940 -1.2824 -1.2603
 3078TIP3   OH230648   5.432   2.946  16.826 -0.5718  0.0039  0.1515
 3078TIP3    H130649   5.518   2.934  16.865 -1.0211 -0.7638  0.9350
 3078TIP3    H230650   5.448   3.002  16.750  0.6922 -0.5581 -0.0194
 3079TIP3   OH230651   4.493   0.377  11.530  0.3573 -0.0271 -0.1129
 3079TIP3    H130652   4.568   0.317  11.533  0.3065 -0.0529  1.0938
 3079TIP3    H230653   4.417   0.319  11.538  0.2644  0.1151  0.0230
 3080TIP3   OH230654   2.776   1.356  13.802  0.0994 -0.5802  0.4616
 3080TIP3    H130655   2.792   1.283  13.743  0.7139  0.1423 -0.2920
 3080TIP3    H230656   2.701   1.329  13.854 -1.9637 -0.3536 -2.1698
 3081TIP3   OH230657   6.528   0.573  14.267  0.4961  0.1683  0.1729
 3081TIP3    H130658   6.613   0.541  14.236  0.9483  0.8326  0.7163
 3081TIP3    H230659   6.531   0.667  14.251 -0.6067  0.0419 -0.8866
 3082TIP3   OH230660   1.691   2.305  14.161 -0.0685 -0.1086 -0.3508
 3082TIP3    H130661   1.668   2.378  14.218 -1.3693 -0.5094 -0.3115
 3082TIP3    H230662   1.704   2.231  14.220  0.3620 -0.1087 -0.4470
 3083TIP3   OH230663   4.367   4.872  15.279 -0.2800  0.3740 -0.1209
 3083TIP3    H130664   4.451   4.911  15.253 -0.0583  0.8382  1.1927
 3083TIP3    H230665   4.386   4.778  15.286  0.2068  0.5010  0.3891
 3084TIP3   OH230666   3.323   6.466  11.705 -0.3651 -0.8154 -0.6793
 3084TIP3    H130667   3.327   6.401  11.775 -0.4179  0.1921  0.2916
 3084TIP3    H230668   3.255   6.528  11.734 -1.0035 -0.8556 -2.0414
 3085TIP3   OH230669   1.109   0.339   1.824 -0.2736 -0.1661  0.0030
 3085TIP3    H130670   1.083   0.372   1.738 -0.5408  0.6158  0.3729
 3085TIP3    H230671   1.067   0.253   1.830 -0.2003 -0.2565 -0.6680
 3086TIP3   OH230672   0.126   3.686   4.297  0.0801 -0.7257  0.2067
 3086TIP3    H130673   0.182   3.726   4.363  0.2221  2.8384 -1.8013
 3086TIP3    H230674   0.037   3.703   4.327  0.1123 -1.0908  0.5181
 3087TIP3   OH230675   2.427   4.824  13.522 -0.0152  0.4204 -0.8460
 3087TIP3    H130676   2.391   4.736  13.523  0.1953  0.2748 -2.7295
 3087TIP3    H230677   2.375   4.872  13.587  1.0327 -1.4533  1.5207
 3088TIP3   OH230678   0.575   6.069   0.277  0.1000 -0.1740  0.8714
 3088TIP3    H130679   0.513   6.096   0.345  0.7676  0.4687  1.2326
 3088TIP3    H230680   0.660   6.101   0.307  0.3141  0.7211 -0.6019
 3089TIP3   OH230681   4.630   0.927   6.392 -0.5489  0.0879 -0.2286
 3089TIP3    H130682   4.693   0.878   6.445  0.3860  1.1842 -0.2763
 3089TIP3    H230683   4.545   0.893   6.417 -0.0115 -0.5809  0.7408
 3090TIP3   OH230684   6.299   0.507   5.525  0.0646 -0.1031 -0.8732
 3090TIP3    H130685   6.386   0.471   5.509 -0.0789  0.3228 -2.8530
 3090TIP3    H230686   6.298   0.590   5.478 -1.0496  0.4633  0.0847
 3091TIP3   OH230687   6.620   4.959  15.550  0.2657  0.4697  0.1989
 3091TIP3    H130688   6.646   5.050  15.538  0.9562  0.4341  1.2869
 3091TIP3    H230689   6.541   4.964  15.605 -1.3088  0.5062 -1.9306
 3092TIP3   OH230690   0.956   1.322  14.444  0.5594  0.6419  0.5250
 3092TIP3    H130691   1.008   1.244  14.427 -0.9044 -0.6706  1.7779
 3092TIP3    H230692   0.948   1.325  14.539  0.4633  2.2530  0.4935
 3093TIP3   OH230693   6.427   2.932  16.055  0.4038 -0.0469  0.1584
 3093TIP3    H130694   6.467   2.857  16.098 -2.1158 -0.8477  1.3545
 3093TIP3    H230695   6.474   3.008  16.090  0.9100 -0.9059  1.4286
 3094TIP3   OH230696   2.115   3.530  11.852 -0.0495 -0.2931  0.6960
 3094TIP3    H130697   2.168   3.574  11.785 -0.4944  1.0746  1.2095
 3094TIP3    H230698   2.158   3.445  11.863  0.5816 -0.1866 -0.6427
 3095TIP3   OH230699   6.687   1.836   1.184 -0.6638  0.2285  0.4547
 3095TIP3    H130700   6.642   1.812   1.266 -1.5412  1.9112  0.5084
 3095TIP3    H230701   6.773   1.867   1.212 -0.4146 -0.5619  0.5914
 3096TIP3   OH230702   2.324   3.413  12.569 -0.1056  0.1757 -0.6743
 3096TIP3    H130703   2.311   3.397  12.662 -1.0690  1.1467 -0.6233
 3096TIP3    H230704   2.344   3.507  12.563 -1.0535  0.3362 -1.5288
 3097TIP3   OH230705   2.154   0.722   1.593 -0.3723 -0.6516  0.3763
 3097TIP3    H130706   2.192   0.636   1.609  0.3589 -0.1930  1.1370
 3097TIP3    H230707   2.227   0.783   1.598 -0.8711  0.0235 -0.2083
 3098TIP3   OH230708   2.011   2.103  14.195 -0.1734  0.1785 -0.1201
 3098TIP3    H130709   2.032   2.189  14.156  1.7138 -0.1752  0.0685
 3098TIP3    H230710   1.917   2.109  14.214 -0.2737  1.8829 -0.9144
 3099TIP3   OH230711   2.454   1.901  12.277 -0.4413 -0.2888  0.2091
 3099TIP3    H130712   2.434   1.815  12.314  0.9638 -0.7854 -0.1534
 3099TIP3    H230713   2.444   1.961  12.351  0.0446 -0.9595  0.8246
 3100TIP3   OH230714   4.281   1.709   3.973 -0.6587  0.2197 -0.1884
 3100TIP3    H130715   4.320   1.787   4.013 -0.8663  1.1037 -1.6239
 3100TIP3    H230716   4.222   1.674   4.040 -0.3060  1.1098  0.6011
 3101TIP3   OH230717   3.247   4.432  12.993 -0.5259 -0.1766  0.1265
 3101TIP3    H130718   3.174   4.408  13.051 -0.4063 -0.3186  0.2206
 3101TIP3    H230719   3.263   4.353  12.942 -1.8322  0.4912 -1.4091
 3102TIP3   OH230720   3.796   0.225   0.786 -0.9654  0.0210  0.3385
 3102TIP3    H130721   3.809   0.287   0.714 -1.3618 -0.1385  0.1301
 3102TIP3    H230722   3.853   0.257   0.856  0.5315 -0.6225 -0.5370
 3103TIP3   OH230723   5.848   2.877   3.918  0.7168 -0.6623 -0.2953
 3103TIP3    H130724   5.860   2.791   3.958  0.8545 -0.2614  0.5362
 3103TIP3    H230725   5.756   2.898   3.933  0.5243 -0.9279 -1.0487
 3104TIP3   OH230726   1.950   4.950  16.999 -0.2975  0.6820  0.2052
 3104TIP3    H130727   2.040   4.925  16.977  0.4060  2.2041  1.1910
 3104TIP3    H230728   1.920   4.881  17.059  0.4658  0.5456  0.4342
 3105TIP3   OH230729   0.627   2.624  12.758 -0.0153 -0.4813 -0.1893
 3105TIP3    H130730   0.697   2.636  12.693 -0.6938 -0.4262 -0.9316
 3105TIP3    H230731   0.566   2.695  12.740  0.3441  0.2264  1.2886
 3106TIP3   OH230732   6.386   1.412   4.486 -0.7164  0.4885  0.3043
 3106TIP3    H130733   6.321   1.363   4.436 -0.5548  0.4499  0.1335
 3106TIP3    H230734   6.470   1.391   4.445  0.0351 -2.9512  3.1280
 3107TIP3   OH230735   0.120   0.238  14.223  0.4581 -0.3803  0.0477
 3107TIP3    H130736   0.171   0.159  14.207 -0.6223 -1.3714  1.2479
 3107TIP3    H230737   0.034   0.220  14.186  0.4716  0.6157 -0.5019
 3108TIP3   OH230738   5.050   5.954   1.646  0.1000 -0.1844  0.2353
 3108TIP3    H130739   4.983   5.935   1.711  0.1913 -0.6439  0.2027
 3108TIP3    H230740   5.033   6.044   1.619 -0.1275 -0.0968  0.6663
 3109TIP3   OH230741   3.615   5.884   0.444  0.0553  0.0714  0.2406
 3109TIP3    H130742   3.639   5.800   0.484 -0.1127  0.4715  1.2263
 3109TIP3    H230743   3.676   5.894   0.371  0.6417 -0.5132  0.6314
 3110TIP3   OH230744   2.900   2.194  14.126  0.2211 -0.0474 -0.3797
 3110TIP3    H130745   2.974   2.154  14.171  0.5058 -0.7019 -1.4038
 3110TIP3    H230746   2.875   2.130  14.059 -0.6826  0.5631 -0.6417
 3111TIP3   OH230747   4.824   5.825  11.614  0.7988 -0.2837  0.2485
 3111TIP3    H130748   4.810   5.861  11.526 -0.3291  0.3068  0.6414
 3111TIP3    H230749   4.768   5.747  11.617  0.0616  0.2465  0.7482
 3112TIP3   OH230750   5.594   2.281   4.624 -0.2749  0.5103 -0.0929
 3112TIP3    H130751   5.656   2.343   4.662  0.7725 -0.5766  0.0490
 3112TIP3    H230752   5.623   2.270   4.534 -0.2591 -0.0013 -0.0292
 3113TIP3   OH230753   0.542   0.446   2.907 -0.1951  0.4429 -0.4694
 3113TIP3    H130754   0.475   0.514   2.900 -0.3331  0.5541  1.3281
 3113TIP3    H230755   0.618   0.482   2.861 -0.5509  1.4369 -0.3003
 3114TIP3   OH230756   6.337   2.237  16.484  0.0511  0.0530  0.4106
 3114TIP3    H130757   6.274   2.279  16.542 -1.3183 -0.4063 -0.6812
 3114TIP3    H230758   6.335   2.290  16.404  0.6051 -0.3142  0.1441
 3115TIP3   OH230759   5.782   5.711  14.376 -0.1485 -0.6684 -0.5389
 3115TIP3    H130760   5.744   5.776  14.434  1.6133  1.2844 -1.4613
 3115TIP3    H230761   5.709   5.681  14.322 -1.1842 -0.2441  0.5996
 3116TIP3   OH230762   5.391   5.167  15.693  0.2235 -0.0732 -0.1032
 3116TIP3    H130763   5.312   5.164  15.748  0.4811  1.7287  0.4452
 3116TIP3    H230764   5.369   5.115  15.616 -1.4966  0.3892  0.0448
 3117TIP3   OH230765   0.474   2.104  13.954 -0.2725  0.1075 -0.2675
 3117TIP3    H130766   0.468   2.017  13.915 -0.2376  0.4384 -1.0240
 3117TIP3    H230767   0.557   2.103  14.002 -0.0766 -0.1440 -0.6067
 3118TIP3   OH230768   3.146   3.054   0.791  0.0262  0.2467  0.0610
 3118TIP3    H130769   3.122   3.133   0.839  0.6383  0.5188 -0.0752
 3118TIP3    H230770   3.067   3.031   0.742  0.2619  1.5832 -1.0102
 3119TIP3   OH230771   5.537   4.664   4.949 -0.1378 -0.2338  0.0880
 3119TIP3    H130772   5.554   4.680   4.856 -0.1722 -3.5209 -0.5950
 3119TIP3    H230773   5.622   4.680   4.991  0.5897 -1.2331 -0.9360
 3120TIP3   OH230774   1.665   2.418   2.830  0.0843  0.3261  0.1172
 3120TIP3    H130775   1.581   2.460   2.847  0.9290  3.1576 -2.0532
 3120TIP3    H230776   1.656   2.379   2.743  1.1656  1.2470 -0.4364
 3121TIP3   OH230777   5.683   5.590   2.142  0.3146 -0.8965 -0.5184
 3121TIP3    H130778   5.613   5.541   2.100 -1.0064 -0.1832  0.7466
 3121TIP3    H230779   5.672   5.571   2.235  2.2335 -1.2896 -0.3413
 3122TIP3   OH230780   2.778   2.099  14.373  0.1842 -0.0821  0.0998
 3122TIP3    H130781   2.795   2.125  14.282 -0.1370 -2.7442 -0.7989
 3122TIP3    H230782   2.854   2.046  14.397  1.4335  2.4210  2.3034
 3123TIP3   OH230783   3.377   2.909   0.356 -0.4933  0.1340  0.0318
 3123TIP3    H130784   3.412   2.843   0.296 -0.7353  1.7273 -1.9912
 3123TIP3    H230785   3.453   2.961   0.383 -0.7260  1.2261 -1.3035
 3124TIP3   OH230786   6.601   3.476  15.596 -0.3298 -0.0395 -0.0120
 3124TIP3    H130787   6.626   3.447  15.508 -0.7723 -1.4108  0.2877
 3124TIP3    H230788   6.684   3.494  15.640  0.0750 -2.1916  0.2046
 3125TIP3   OH230789   6.506   0.312  16.987  0.1994 -0.4534 -0.2016
 3125TIP3    H130790   6.483   0.220  16.980  0.6722 -0.5860 -0.0350
 3125TIP3    H230791   6.441   0.357  16.932  0.0615 -0.8954 -0.4081
 3126TIP3   OH230792   4.483   2.814  13.367  0.0346  0.1529 -0.3300
 3126TIP3    H130793   4.434   2.791  13.445 -1.0833  0.0088 -1.0507
 3126TIP3    H230794   4.570   2.837  13.399 -0.3247 -0.1509  0.9183
 3127TIP3   OH230795   0.741   2.578  15.072 -0.2609 -0.3076  0.1684
 3127TIP3    H130796   0.711   2.653  15.123  0.1342 -0.1768  0.2118
 3127TIP3    H230797   0.701   2.503  15.115 -0.6528 -0.1252  0.1287
 3128TIP3   OH230798   4.776   6.725  15.944  0.0977 -0.1082  0.0507
 3128TIP3    H130799   4.706   6.775  15.988  0.5665 -0.2117  0.9379
 3128TIP3    H230800   4.801   6.779  15.869  1.1379  1.3996  1.4221
 3129TIP3   OH230801   1.893   6.529   3.500 -0.2558  0.2154  0.5845
 3129TIP3    H130802   1.843   6.609   3.483 -1.0483 -0.8962 -3.4955
 3129TIP3    H230803   1.984   6.557   3.502 -0.5477  1.3158 -0.4855
 3130TIP3   OH230804   0.741   2.153  15.007 -0.4930  0.1750  0.2177
 3130TIP3    H130805   0.801   2.174  14.936  1.2460 -2.4510  0.7659
 3130TIP3    H230806   0.697   2.073  14.978 -0.3631 -0.4672  1.7050
 3131TIP3   OH230807   6.393   5.599   5.287  0.2501  0.1561  0.6490
 3131TIP3    H130808   6.404   5.516   5.334  1.2934 -0.3924 -0.5087
 3131TIP3    H230809   6.384   5.573   5.195 -0.2770  1.2927  0.3613
 3132TIP3   OH230810   4.949   1.057  15.228 -0.4076 -0.6397  0.0304
 3132TIP3    H130811   4.999   0.992  15.277  0.5030 -1.3209 -1.7086
 3132TIP3    H230812   4.863   1.018  15.217  0.2890 -1.8511 -1.4496
 3133TIP3   OH230813   5.898   4.249   2.335 -0.4449  0.3664 -0.6549
 3133TIP3    H130814   5.825   4.309   2.349  0.0986  0.8387  0.2444
 3133TIP3    H230815   5.919   4.217   2.423  1.1764  1.1381 -0.7303
 3134TIP3   OH230816   6.725   6.640  14.157 -0.3744 -0.2055 -0.5872
 3134TIP3    H130817   6.719   6.672  14.067  1.3275  0.3056 -0.5385
 3134TIP3    H230818   6.687   6.711  14.210 -0.4539 -0.0747 -0.8187
 3135TIP3   OH230819   6.699   3.052   4.290  0.3968  0.2572  0.2862
 3135TIP3    H130820   6.755   3.016   4.359  0.2911  0.1185  0.3009
 3135TIP3    H230821   6.720   3.145   4.288  3.5811 -0.3460 -2.4234
 3136TIP3   OH230822   6.756   2.231   5.312 -0.5220 -0.2048  0.3331
 3136TIP3    H130823   6.822   2.207   5.377 -1.6199  0.0740  1.5854
 3136TIP3    H230824   6.796   2.207   5.228  0.8534 -0.7438  1.1025
 3137TIP3   OH230825   0.482   4.254  17.056 -0.5397  0.0449 -0.1590
 3137TIP3    H130826   0.405   4.224  17.009 -0.5758 -0.0377 -0.0478
 3137TIP3    H230827   0.488   4.347  17.035 -1.5073  0.3914  0.9767
 3138TIP3   OH230828   2.748   3.978  14.275 -0.5474 -0.2544  0.2995
 3138TIP3    H130829   2.841   4.003  14.280 -1.0402  1.5041  1.7062
 3138TIP3    H230830   2.733   3.929  14.356 -0.6046 -1.4960 -0.4523
 3139TIP3   OH230831   1.872   3.649   6.827  0.3737 -0.0991  0.5306
 3139TIP3    H130832   1.943   3.710   6.806  0.2768 -0.6956 -1.7456
 3139TIP3    H230833   1.799   3.679   6.773  0.0374 -1.6457  0.0944
 3140TIP3   OH230834   4.819   6.196  12.066  0.0507  0.0913  0.2817
 3140TIP3    H130835   4.822   6.266  12.000  0.6560  1.6506  1.8968
 3140TIP3    H230836   4.858   6.120  12.022  2.6324  1.7188 -0.4554
 3141TIP3   OH230837   2.940   0.155   2.914  0.5911  0.4171 -0.0634
 3141TIP3    H130838   2.859   0.139   2.866  0.0378  1.2734  0.5740
 3141TIP3    H230839   2.991   0.074   2.901 -0.3772 -0.1550 -0.4202
 3142TIP3   OH230840   5.349   0.370  14.645  0.8816  0.0813  0.2557
 3142TIP3    H130841   5.350   0.456  14.688  0.9156  0.5964 -0.7438
 3142TIP3    H230842   5.406   0.316  14.699  1.7698  1.0062  0.2838
 3143TIP3   OH230843   5.958   1.171  11.560  0.3059 -0.4727  0.3558
 3143TIP3    H130844   6.042   1.127  11.573  1.5202  1.0706 -1.5957
 3143TIP3    H230845   5.905   1.146  11.635  2.7788 -0.9297  2.0450
 3144TIP3   OH230846   3.582   4.500  17.065  0.2908  0.5598  0.5121
 3144TIP3    H130847   3.572   4.448  16.985 -0.3609  1.6981 -0.1774
 3144TIP3    H230848   3.676   4.515  17.072  0.7402 -2.1640  1.7263
 3145TIP3   OH230849   4.308   5.588   1.885  0.0737  0.1418  0.0832
 3145TIP3    H130850   4.284   5.536   1.962  1.4850 -0.9832 -0.1972
 3145TIP3    H230851   4.375   5.536   1.841  0.8614  1.7739 -0.7321
 3146TIP3   OH230852   0.489   1.440  17.235 -0.9260 -0.5489 -0.3805
 3146TIP3    H130853   0.497   1.448  17.140  2.1880 -1.7090 -0.3472
 3146TIP3    H230854   0.430   1.365  17.247  0.3133 -1.7765 -1.5057
 3147TIP3   OH230855   6.453   2.594   4.446 -0.5573 -0.0962  0.5822
 3147TIP3    H130856   6.373   2.543   4.460 -0.3863 -0.4567  0.2638
 3147TIP3    H230857   6.511   2.535   4.398 -0.1924  0.2514  0.5899
 3148TIP3   OH230858   4.949   1.903  16.964 -0.5929  0.4074 -0.3651
 3148TIP3    H130859   4.896   1.976  16.932 -2.1690 -0.6531 -0.3031
 3148TIP3    H230860   4.885   1.836  16.989  0.7565 -0.5191  0.7667
 3149TIP3   OH230861   0.812   1.794   1.328 -0.2829  0.2243  0.6005
 3149TIP3    H130862   0.879   1.860   1.312 -0.0002 -0.4151 -1.2132
 3149TIP3    H230863   0.854   1.711   1.304 -1.0426 -0.4476  1.5258
 3150TIP3   OH230864   3.887   0.988   0.856 -0.3939  0.8399 -0.4309
 3150TIP3    H130865   3.963   1.039   0.883  1.0454  0.0186 -2.6059
 3150TIP3    H230866   3.826   1.052   0.822 -0.6712  1.5038  1.2374
 3151TIP3   OH230867   3.493   3.101  14.208 -0.4966  0.1920 -0.2540
 3151TIP3    H130868   3.537   3.030  14.254 -0.1337  0.4304 -0.2269
 3151TIP3    H230869   3.451   3.059  14.133  0.1664  0.0217 -0.5383
 3152TIP3   OH230870   1.929   3.015   5.448  0.3028 -0.3445  0.2823
 3152TIP3    H130871   2.022   2.996   5.461  0.3144  0.5673  1.7696
 3152TIP3    H230872   1.884   2.942   5.491  0.3018 -0.8886 -0.6065
 3153TIP3   OH230873   6.732   0.688  14.920  0.3442  0.1786 -0.2268
 3153TIP3    H130874   6.653   0.723  14.878  0.1444 -0.1359 -0.1237
 3153TIP3    H230875   6.792   0.762  14.926  0.3055  0.2708 -0.9032
 3154TIP3   OH230876   6.071   4.200  10.885  0.4050  0.3648  0.1624
 3154TIP3    H130877   6.066   4.278  10.940 -1.8556 -0.4938  1.2649
 3154TIP3    H230878   6.139   4.146  10.926 -0.0543  0.4993  1.1292
 3155TIP3   OH230879   2.447   3.141  12.510 -0.0345  0.0733  0.2243
 3155TIP3    H130880   2.418   3.230  12.487  0.2351  0.0102 -0.3673
 3155TIP3    H230881   2.424   3.088  12.434  2.4607  0.1885 -0.7219
 3156TIP3   OH230882   0.421   3.302  16.524  0.2227 -0.2457  0.9245
 3156TIP3    H130883   0.408   3.239  16.595  0.4777 -0.3461  0.8853
 3156TIP3    H230884   0.336   3.344  16.513  0.3765  0.3293  1.8125
 3157TIP3   OH230885   2.756   0.119   4.031  0.3405 -0.8081  0.3853
 3157TIP3    H130886   2.753   0.208   3.996  1.0567 -0.6774  0.6461
 3157TIP3    H230887   2.706   0.067   3.968 -0.8402 -0.0729  0.7010
 3158TIP3   OH230888   4.793   2.781   6.367 -0.8135  0.5061  0.1961
 3158TIP3    H130889   4.866   2.798   6.308 -1.2574  1.2626 -0.1498
 3158TIP3    H230890   4.829   2.722   6.433 -0.0030  0.5448 -0.2012
 3159TIP3   OH230891   6.102   2.606  11.667  0.1586  0.3836 -0.3684
 3159TIP3    H130892   6.090   2.647  11.582 -1.4786  0.3088 -0.2201
 3159TIP3    H230893   6.075   2.673  11.730 -0.1066 -0.0678  0.0062
 3160TIP3   OH230894   3.553   2.279  12.737  0.0713  0.4007  0.4537
 3160TIP3    H130895   3.468   2.236  12.725  1.2023 -1.6511 -0.7373
 3160TIP3    H230896   3.531   2.371  12.750 -2.3052  0.0682 -0.5913
 3161TIP3   OH230897   6.676   6.524   4.249 -0.0324  0.3460  0.0702
 3161TIP3    H130898   6.719   6.467   4.314 -0.6121  0.8553  0.9204
 3161TIP3    H230899   6.740   6.594   4.234  0.7644 -0.5913 -1.1220
 3162TIP3   OH230900   1.486   3.809  15.825 -0.1229  0.4357  0.2114
 3162TIP3    H130901   1.504   3.901  15.805  0.2653 -0.3931 -4.0488
 3162TIP3    H230902   1.572   3.768  15.832 -0.2999 -0.0476 -0.3931
 3163TIP3   OH230903   1.499   1.462   1.648  0.0994 -0.4961  0.4677
 3163TIP3    H130904   1.587   1.457   1.685  0.2945  0.8585  0.2520
 3163TIP3    H230905   1.511   1.452   1.554  0.0001 -0.5699  0.4632
 3164TIP3   OH230906   4.817   2.522   6.101 -0.6560  0.4184  0.3133
 3164TIP3    H130907   4.861   2.553   6.181 -0.8911  0.9202  0.2490
 3164TIP3    H230908   4.790   2.433   6.122 -0.8258  0.5892  0.8438
 3165TIP3   OH230909   2.833   6.397  11.159  0.6364  0.1066 -0.3294
 3165TIP3    H130910   2.806   6.409  11.250  2.2166  1.2094  0.0400
 3165TIP3    H230911   2.774   6.331  11.125 -1.2759  1.0691  0.9257
 3166TIP3   OH230912   6.299   4.809  11.739  0.9032  0.2439 -0.2934
 3166TIP3    H130913   6.286   4.717  11.759  0.3146  0.3925  0.0226
 3166TIP3    H230914   6.327   4.810  11.648 -0.2371 -0.1714 -0.6691
 3167TIP3   OH230915   4.298   1.013   4.928  0.5645  0.0569 -0.0132
 3167TIP3    H130916   4.333   0.985   5.012 -0.9772 -0.0764  0.6248
 3167TIP3    H230917   4.290   1.108   4.935  1.5466  0.1852 -0.4748
 3168TIP3   OH230918   5.408   5.406   0.400  0.0978 -0.4812 -0.4863
 3168TIP3    H130919   5.324   5.362   0.412 -0.5397  0.6437 -0.6416
 3168TIP3    H230920   5.473   5.341   0.426 -0.7952 -1.5159 -0.7596
 3169TIP3   OH230921   0.497   4.675   0.625 -0.5802 -0.3210  0.1403
 3169TIP3    H130922   0.533   4.759   0.597 -0.1420 -0.1879  1.0865
 3169TIP3    H230923   0.442   4.696   0.701  0.2168 -0.9910  0.9169
 3170TIP3   OH230924   5.871   1.154  15.369  0.1727  0.2940 -0.1341
 3170TIP3    H130925   5.790   1.135  15.321  0.0700  0.4780 -0.0388
 3170TIP3    H230926   5.880   1.082  15.431 -0.0579  0.4035  0.0297
 3171TIP3   OH230927   6.396   5.874  14.467 -0.3247  0.2069 -0.2097
 3171TIP3    H130928   6.466   5.818  14.434 -2.1106 -2.4757  0.2711
 3171TIP3    H230929   6.315   5.826  14.448 -1.9521  2.3324  0.8683
 3172TIP3   OH230930   1.905   2.059   0.686  0.3121  0.1991 -0.0354
 3172TIP3    H130931   1.874   2.150   0.693  0.1369 -0.0002  2.5105
 3172TIP3    H230932   1.827   2.006   0.700  0.7450 -0.3344  0.3958
 3173TIP3   OH230933   6.348   6.647  15.363  0.0437 -0.8054  0.0638
 3173TIP3    H130934   6.297   6.678  15.439  0.2765  0.1866 -0.1613
 3173TIP3    H230935   6.288   6.590  15.316  0.2909 -2.4329  1.6302
 3174TIP3   OH230936   0.647   3.163   5.346 -0.7547  0.4906  0.0039
 3174TIP3    H130937   0.659   3.072   5.373  0.8901  1.2790  2.2473
 3174TIP3    H230938   0.621   3.157   5.254  0.5556 -2.2051 -0.3095
 3175TIP3   OH230939   0.476   6.232  16.412  0.2890  0.1869 -0.5722
 3175TIP3    H130940   0.399   6.191  16.373 -1.2912  1.2996  1.1871
 3175TIP3    H230941   0.444   6.316  16.445  2.0221  0.2455  1.1219
 3176TIP3   OH230942   4.951   1.278  12.521  0.2854 -0.0690 -0.1847
 3176TIP3    H130943   4.999   1.197  12.506 -0.4207 -0.3929 -0.7485
 3176TIP3    H230944   4.985   1.339  12.455 -0.1463 -0.3272 -0.6454
 3177TIP3   OH230945   4.950   3.777  15.286 -0.4092  0.3446  0.5081
 3177TIP3    H130946   4.929   3.845  15.350  0.1742  1.1464 -0.1270
 3177TIP3    H230947   4.937   3.695  15.333  0.3268  0.9159  1.7709
 3178TIP3   OH230948   2.678   3.722   3.002  0.4911 -0.4332 -0.2935
 3178TIP3    H130949   2.731   3.669   2.942  0.5954 -0.9334  0.2301
 3178TIP3    H230950   2.588   3.698   2.982  0.5395 -0.8221 -0.0464
 3179TIP3   OH230951   3.308   4.169  11.504  0.7025  0.4135 -0.1511
 3179TIP3    H130952   3.243   4.238  11.493  1.6259  1.2042 -0.8323
 3179TIP3    H230953   3.371   4.206  11.567  0.6451 -0.2241  0.2868
 3180TIP3   OH230954   5.647   1.967  15.717 -0.0057 -0.5425  0.2634
 3180TIP3    H130955   5.618   1.995  15.804  0.3516 -1.2845  0.6256
 3180TIP3    H230956   5.741   1.984  15.715 -0.3464  1.5981 -0.8147
 3181TIP3   OH230957   0.864   3.791  10.584  0.7192 -0.0759  0.1294
 3181TIP3    H130958   0.822   3.766  10.502  0.1767  0.2225  0.3094
 3181TIP3    H230959   0.863   3.711  10.637 -2.9941  0.6966  1.5512
 3182TIP3   OH230960   3.761   1.039  15.001  0.1261 -0.0031  0.1068
 3182TIP3    H130961   3.701   1.106  15.034 -0.7060 -0.1755 -0.9767
 3182TIP3    H230962   3.763   1.054  14.906  0.9221 -0.7175  0.0038
 3183TIP3   OH230963   5.695   3.909   5.393 -0.7914  0.3544  0.2598
 3183TIP3    H130964   5.695   3.885   5.301  0.1263  2.6712 -0.4055
 3183TIP3    H230965   5.610   3.878   5.425 -0.6725 -1.4918 -1.0302
 3184TIP3   OH230966   2.707   0.332  14.371 -0.2396  0.0821  0.4526
 3184TIP3    H130967   2.709   0.317  14.466  2.5358 -1.5602  0.2492
 3184TIP3    H230968   2.615   0.322  14.347 -0.9065 -0.1502  2.8586
 3185TIP3   OH230969   2.907   3.243   2.440  0.1860  0.1033  0.1128
 3185TIP3    H130970   2.985   3.217   2.391 -0.5717 -1.9667 -0.1087
 3185TIP3    H230971   2.852   3.287   2.375  0.2218 -0.4532 -0.3038
 3186TIP3   OH230972   2.473   4.126  14.678 -0.6833  0.5219  0.1357
 3186TIP3    H130973   2.565   4.152  14.684  0.0633 -2.0549  1.7604
 3186TIP3    H230974   2.434   4.161  14.758 -0.8792  0.8162 -0.0898
 3187TIP3   OH230975   2.144   0.034  17.164  0.7515  0.3991  0.0931
 3187TIP3    H130976   2.085   0.081  17.223 -0.5366  0.4542 -1.1869
 3187TIP3    H230977   2.088  -0.031  17.121  2.0159 -0.7875  0.1488
 3188TIP3   OH230978   6.368   1.814  12.994 -0.4163 -0.1812  0.4315
 3188TIP3    H130979   6.432   1.879  12.964 -0.4939 -0.5553 -0.5800
 3188TIP3    H230980   6.332   1.852  13.075 -0.9210  1.3411 -0.4563
 3189TIP3   OH230981   3.983   0.069  15.498  0.0380 -0.4253  0.4287
 3189TIP3    H130982   4.064   0.048  15.545  0.8842 -0.5574 -1.0481
 3189TIP3    H230983   3.928  -0.009  15.511  0.7444 -0.9791  0.1686
 3190TIP3   OH230984   0.112   4.777  14.601  0.2143  0.0209 -0.0864
 3190TIP3    H130985   0.065   4.772  14.684 -0.4789  1.8646 -0.3356
 3190TIP3    H230986   0.144   4.688  14.587  1.5137 -0.0619  2.7934
 3191TIP3   OH230987   2.768   6.366  14.489  0.2389 -0.0088 -0.4178
 3191TIP3    H130988   2.743   6.299  14.426 -0.0075  1.3096 -1.7792
 3191TIP3    H230989   2.799   6.317  14.566  0.0495 -1.6523 -1.3497
 3192TIP3   OH230990   1.716   4.770  11.314 -0.1421  0.0909 -0.4401
 3192TIP3    H130991   1.671   4.703  11.365 -0.7213  1.2659  0.6446
 3192TIP3    H230992   1.808   4.747  11.321 -0.3428 -0.6856 -0.2221
 3193TIP3   OH230993   6.596   3.668  12.514 -0.7328 -0.5045 -0.4606
 3193TIP3    H130994   6.547   3.588  12.531 -0.6240  0.0659  3.2442
 3193TIP3    H230995   6.532   3.739  12.523 -0.0029  0.0377  0.6833
 3194TIP3   OH230996   3.534   4.901   3.034  0.3643  0.2175 -0.6601
 3194TIP3    H130997   3.493   4.895   3.120  0.9046 -0.7345 -0.4570
 3194TIP3    H230998   3.526   4.812   2.997  2.1525  0.0194 -0.6479
 3195TIP3   OH230999   6.729   0.390   5.868  0.5404  1.1874 -0.0376
 3195TIP3    H131000   6.808   0.389   5.814  0.0029 -2.7503 -1.0560
 3195TIP3    H231001   6.760   0.419   5.954  3.1037 -0.0280 -0.4426
 3196TIP3   OH231002   0.844   5.755   3.547 -0.1073 -0.0109  0.1253
 3196TIP3    H131003   0.777   5.688   3.533  1.5542 -1.7128 -0.0135
 3196TIP3    H231004   0.886   5.730   3.630 -0.3425  1.6919  0.8063
 3197TIP3   OH231005   6.482   3.556   4.671  0.1597 -0.1843  0.3618
 3197TIP3    H131006   6.395   3.522   4.690 -0.6438 -0.2840 -2.8743
 3197TIP3    H231007   6.473   3.601   4.587  3.2035 -0.0682 -0.0325
 3198TIP3   OH231008   2.858   2.002  15.636 -0.0347  0.1224  0.0352
 3198TIP3    H131009   2.772   2.021  15.598  1.1301 -0.6981 -3.3778
 3198TIP3    H231010   2.878   2.079  15.690 -2.7926  0.3851  0.8077
 3199TIP3   OH231011   0.993   3.057   2.124 -0.3093  0.2876  0.0659
 3199TIP3    H131012   0.997   2.979   2.068  0.0698 -1.1206  1.9576
 3199TIP3    H231013   0.906   3.092   2.110 -0.6936 -0.8167 -0.4207
 3200TIP3   OH231014   2.803   2.293  15.458 -0.1756 -0.9724  0.8628
 3200TIP3    H131015   2.876   2.244  15.421 -0.7208  0.3408 -2.2388
 3200TIP3    H231016   2.753   2.228  15.508  1.3449 -2.5928  0.3614
 3201TIP3   OH231017   2.828   1.121   1.736  0.0344  0.2951 -0.4590
 3201TIP3    H131018   2.845   1.080   1.651  0.7178 -0.5481  0.0670
 3201TIP3    H231019   2.738   1.152   1.730  0.3486  1.0280 -1.8006
 3202TIP3   OH231020   5.247   1.064  14.709 -0.0180 -0.3194 -0.3084
 3202TIP3    H131021   5.174   1.098  14.762  0.4687  0.7434 -0.2951
 3202TIP3    H231022   5.242   1.114  14.628  0.9928  0.1191 -0.1086
 3203TIP3   OH231023   0.284   0.393  13.489 -0.3172 -0.6792  0.0851
 3203TIP3    H131024   0.260   0.320  13.431 -0.0379 -0.0482 -0.8387
 3203TIP3    H231025   0.273   0.471  13.435  0.2925 -0.1000  0.7784
 3204TIP3   OH231026   4.086   4.281   1.206  0.0596 -0.5179 -0.7428
 3204TIP3    H131027   4.121   4.357   1.252 -1.4298 -0.1256 -0.1788
 3204TIP3    H231028   4.130   4.282   1.121  0.6720  0.4869 -0.4352
 3205TIP3   OH231029   5.843   0.298   5.689 -0.2304 -0.2791 -0.4179
 3205TIP3    H131030   5.913   0.247   5.731  0.2548  0.0086 -0.8575
 3205TIP3    H231031   5.889   0.372   5.648 -0.8944  0.4006  0.0328
 3206TIP3   OH231032   3.274   6.202  15.725  0.5171 -0.7894 -0.2644
 3206TIP3    H131033   3.194   6.151  15.735  0.8149 -1.0932  0.6727
 3206TIP3    H231034   3.317   6.164  15.648 -0.7039  0.0358 -1.3956
 3207TIP3   OH231035   0.982   3.834   1.918 -0.3032 -0.5252  0.3619
 3207TIP3    H131036   0.983   3.817   2.012  1.9679 -2.0696  0.1623
 3207TIP3    H231037   1.005   3.750   1.879  0.9352  0.5766 -1.4247
 3208TIP3   OH231038   0.635   3.103  12.682 -0.0951 -0.3207 -0.0506
 3208TIP3    H131039   0.570   3.148  12.735 -0.3274  0.7923 -1.2235
 3208TIP3    H231040   0.700   3.170  12.662  0.3312 -0.8841 -0.5975
 3209TIP3   OH231041   1.503   5.747  11.119  0.4051 -0.0118  0.9195
 3209TIP3    H131042   1.544   5.675  11.070 -0.1824  1.3245 -1.7591
 3209TIP3    H231043   1.421   5.711  11.151  0.2467 -0.6536 -0.1505
 3210TIP3   OH231044   0.823   0.658  11.059 -0.6141  0.2024 -0.4635
 3210TIP3    H131045   0.784   0.649  11.146 -1.6780 -2.0133 -1.0829
 3210TIP3    H231046   0.846   0.568  11.034 -2.2537  0.4244 -3.2705
 3211TIP3   OH231047   0.285   2.230   0.594  0.3195  0.4249  0.0645
 3211TIP3    H131048   0.369   2.274   0.600  1.6473 -1.7814 -1.0390
 3211TIP3    H231049   0.268   2.198   0.682 -0.6601  2.9528  0.8824
 3212TIP3   OH231050   2.561   5.810  14.982  0.0554  0.2298 -0.3757
 3212TIP3    H131051   2.632   5.826  15.044 -0.5383 -1.0169  0.6738
 3212TIP3    H231052   2.486   5.856  15.018 -0.1250  0.0567 -0.5300
 3213TIP3   OH231053   1.916   2.204   4.259 -0.5321  0.3715  0.1158
 3213TIP3    H131054   1.987   2.139   4.253  0.2975  0.8957  2.7400
 3213TIP3    H231055   1.837   2.156   4.234  0.5025 -0.7341 -1.1549
 3214TIP3   OH231056   4.277   4.541   0.360 -0.6698  0.1760  0.1129
 3214TIP3    H131057   4.277   4.616   0.300  1.2118  2.0112  2.1951
 3214TIP3    H231058   4.370   4.518   0.369 -1.2414 -4.1737 -2.3103
 3215TIP3   OH231059   5.970   3.318  15.946 -0.5217  0.0720  0.3030
 3215TIP3    H131060   5.980   3.413  15.953  0.7000 -0.1542  2.7024
 3215TIP3    H231061   5.908   3.306  15.875 -0.2320  2.6345 -0.5083
 3216TIP3   OH231062   2.865   4.921   2.730  0.3901 -0.2073  0.0476
 3216TIP3    H131063   2.838   4.962   2.812 -0.1816 -1.0380  0.2938
 3216TIP3    H231064   2.784   4.913   2.680  0.4536 -1.1672  0.0769
 3217TIP3   OH231065   4.201   4.042   1.325  0.7105 -0.4395 -0.4011
 3217TIP3    H131066   4.247   3.975   1.275  0.6291 -0.8576  0.0790
 3217TIP3    H231067   4.152   4.092   1.260  0.6785 -0.9230 -0.7474
 3218TIP3   OH231068   5.906   0.797  16.265  0.1948 -0.1457 -0.2986
 3218TIP3    H131069   5.898   0.760  16.177  0.2998 -0.4806 -0.1683
 3218TIP3    H231070   5.913   0.721  16.323  0.1594  0.0732 -0.0022
 3219TIP3   OH231071   5.170   5.066  16.809  0.2270 -0.3940  0.0308
 3219TIP3    H131072   5.089   5.039  16.766  0.1141 -1.0590  0.6537
 3219TIP3    H231073   5.175   5.160  16.790 -0.6005 -0.3720 -0.1589
 3220TIP3   OH231074   3.908   5.445   1.385  0.3591  0.7486  0.4545
 3220TIP3    H131075   3.855   5.422   1.309  0.1056 -2.4675  1.4509
 3220TIP3    H231076   3.850   5.498   1.440 -0.9108 -0.3544  0.2337
 3221TIP3   OH231077   4.600   4.012   1.054 -0.6469  0.2130  0.0279
 3221TIP3    H131078   4.650   4.066   0.993 -3.4795  1.1388 -1.6364
 3221TIP3    H231079   4.579   4.071   1.127 -0.5032  0.2140  0.0695
 3222TIP3   OH231080   5.332   5.391   6.137 -0.4520 -0.1078 -0.7974
 3222TIP3    H131081   5.415   5.379   6.185 -1.4517 -1.1404  0.7644
 3222TIP3    H231082   5.272   5.328   6.177 -1.5551 -0.5537 -3.0177
 3223TIP3   OH231083   1.569   0.851   5.361 -0.2023 -0.1602 -0.1574
 3223TIP3    H131084   1.617   0.789   5.307  1.0236 -1.1586  1.9667
 3223TIP3    H231085   1.596   0.832   5.451 -1.6795  1.8173  0.8022
 3224TIP3   OH231086   4.009   2.501   4.060  0.2243  0.1979  0.0839
 3224TIP3    H131087   3.952   2.430   4.031  0.0241  1.2373 -2.3231
 3224TIP3    H231088   3.960   2.545   4.130  0.2995 -1.8547  1.5221
 3225TIP3   OH231089   0.056   1.069  12.744 -0.0202 -0.0960  0.1033
 3225TIP3    H131090   0.121   1.004  12.771  0.3815  0.3826  0.3161
 3225TIP3    H231091   0.026   1.040  12.658 -0.7104 -1.1982  0.6989
 3226TIP3   OH231092   6.183   6.210   3.010 -0.2637 -0.4675 -0.1716
 3226TIP3    H131093   6.207   6.211   2.917 -1.2575  1.7939 -0.4746
 3226TIP3    H231094   6.216   6.126   3.042 -1.5477 -2.2214 -2.9881
 3227TIP3   OH231095   5.682   5.718   3.369  0.4760  0.4181  0.2502
 3227TIP3    H131096   5.773   5.693   3.353  1.0578  0.7957  2.6380
 3227TIP3    H231097   5.674   5.804   3.328  0.8794 -0.0642 -0.8690
 3228TIP3   OH231098   4.535   4.371   5.101  1.0407  0.5835  0.0261
 3228TIP3    H131099   4.622   4.340   5.124 -0.2715 -2.1561  1.8038
 3228TIP3    H231100   4.488   4.293   5.073 -1.5821  1.4591  1.6326
 3229TIP3   OH231101   5.087   4.080  13.031 -0.3357 -0.1620 -0.2052
 3229TIP3    H131102   5.018   4.078  13.097 -1.7337  0.2474 -1.6162
 3229TIP3    H231103   5.115   4.172  13.028 -0.9429  0.0129 -0.8270
 3230TIP3   OH231104   5.555   0.980   6.719  0.5100 -0.2898 -0.3778
 3230TIP3    H131105   5.594   1.066   6.731 -0.6466  0.2481 -0.3407
 3230TIP3    H231106   5.474   0.997   6.671  0.2624 -1.3577 -0.3622
 3231TIP3   OH231107   1.237   5.943   6.072 -0.2150  0.2542 -0.0865
 3231TIP3    H131108   1.174   5.871   6.071  1.2806 -1.1233 -2.3652
 3231TIP3    H231109   1.273   5.943   6.161 -2.3481  0.1817  0.8345
 3232TIP3   OH231110   1.757   4.458   2.153 -0.3248 -0.4460  0.9602
 3232TIP3    H131111   1.776   4.380   2.101  0.3152  1.7392 -2.4209
 3232TIP3    H231112   1.663   4.455   2.168 -0.6969 -0.8027 -1.1627
 3233TIP3   OH231113   3.982   4.082  15.224  0.1184 -0.0366 -0.2541
 3233TIP3    H131114   3.965   4.088  15.130 -1.8349  2.5220  0.1738
 3233TIP3    H231115   4.076   4.100  15.232  0.1096  0.7394 -1.6379
 3234TIP3   OH231116   4.464   4.293   3.397  0.0326 -0.4499  0.5262
 3234TIP3    H131117   4.532   4.241   3.355 -0.3957 -0.8642  0.3286
 3234TIP3    H231118   4.495   4.306   3.486 -0.8582 -2.9964  1.2825
 3235TIP3   OH231119   3.667   1.745   2.890  0.4285  0.1029 -0.4343
 3235TIP3    H131120   3.689   1.661   2.850  0.4787  0.4041 -1.0594
 3235TIP3    H231121   3.716   1.746   2.972 -0.1324 -0.7774 -0.0776
 3236TIP3   OH231122   4.978   4.035  12.485 -0.4333  0.2041  0.1830
 3236TIP3    H131123   4.972   3.969  12.555 -2.3782 -0.1206 -0.2351
 3236TIP3    H231124   4.953   4.117  12.528 -0.9287  0.1313  0.0364
 3237TIP3   OH231125   5.236   6.072  14.569  0.4872  0.0982 -0.1396
 3237TIP3    H131126   5.155   6.120  14.587  0.4097  0.7086 -1.9010
 3237TIP3    H231127   5.206   5.988  14.535  0.6274 -1.0668  2.3847
 3238TIP3   OH231128   5.322   3.367  11.963  0.2352 -0.4499  0.4293
 3238TIP3    H131129   5.341   3.435  11.899 -0.0083 -0.9270 -0.1602
 3238TIP3    H231130   5.288   3.414  12.039  1.5688  0.2241  0.6511
 3239TIP3   OH231131   3.393   1.966  12.076 -0.1877 -0.4583  0.2339
 3239TIP3    H131132   3.306   1.935  12.100 -1.4801  1.9328 -1.0024
 3239TIP3    H231133   3.394   1.965  11.980  1.5116 -1.2927  0.2205
 3240TIP3   OH231134   2.870   1.036   6.027 -0.1919 -0.0752 -0.1543
 3240TIP3    H131135   2.786   1.051   6.069 -0.5338 -1.3184 -0.3302
 3240TIP3    H231136   2.852   0.969   5.961  0.6727  0.5899 -1.1046
 3241TIP3   OH231137   5.178   1.305  15.075 -0.3579 -0.2720  0.0880
 3241TIP3    H131138   5.226   1.224  15.095 -2.2677 -0.8965  2.6579
 3241TIP3    H231139   5.127   1.283  14.996  1.1142 -0.6165 -0.8217
 3242TIP3   OH231140   1.504   6.007  13.694  0.5085 -0.2652 -0.0459
 3242TIP3    H131141   1.588   5.960  13.695  0.9457  0.4970  0.0905
 3242TIP3    H231142   1.528   6.099  13.708 -0.4783 -0.2236  1.6169
 3243TIP3   OH231143   6.052   5.160   3.904 -0.1153 -0.6861 -0.0874
 3243TIP3    H131144   6.122   5.111   3.947  0.6313 -2.0335 -2.6252
 3243TIP3    H231145   5.979   5.099   3.899 -0.8528  0.0826  0.8272
 3244TIP3   OH231146   3.355   1.713   2.060  0.1110 -0.3046 -0.3485
 3244TIP3    H131147   3.281   1.669   2.101 -0.0606  0.0294 -0.2904
 3244TIP3    H231148   3.316   1.792   2.020  0.5589  0.2909  0.3742
 3245TIP3   OH231149   2.077   6.004  13.317 -0.0807 -0.3121  0.0642
 3245TIP3    H131150   2.004   6.060  13.343 -0.0810 -0.0234 -0.5476
 3245TIP3    H231151   2.085   5.941  13.389 -0.2198  0.3334  0.6534
 3246TIP3   OH231152   2.766   3.960   1.535 -0.0378  0.0729  0.1043
 3246TIP3    H131153   2.823   3.979   1.610  1.5411  0.1390 -1.0680
 3246TIP3    H231154   2.715   4.040   1.523 -0.0934  0.1674  0.9262
 3247TIP3   OH231155   1.809   2.604  13.900 -0.3981  0.0144 -0.0007
 3247TIP3    H131156   1.808   2.689  13.857  1.4462 -0.0229 -0.2028
 3247TIP3    H231157   1.818   2.541  13.828 -0.7471 -0.2830  0.2122
 3248TIP3   OH231158   4.199   0.080   3.730 -0.1019 -0.8658 -0.1781
 3248TIP3    H131159   4.284   0.038   3.718  0.4286  0.1439 -0.0522
 3248TIP3    H231160   4.182   0.124   3.646  0.2454  0.2484  0.3283
 3249TIP3   OH231161   1.964   0.270  16.250 -0.0295  0.3573  0.1072
 3249TIP3    H131162   2.041   0.213  16.257 -0.3610 -0.2645 -1.0561
 3249TIP3    H231163   1.891   0.214  16.276 -0.1713  0.7424  0.5356
 3250TIP3   OH231164   3.269   0.518   5.838  0.1002 -0.1248 -0.0855
 3250TIP3    H131165   3.223   0.556   5.912 -0.2388  0.2562 -0.4922
 3250TIP3    H231166   3.331   0.456   5.878 -1.0082 -0.9277  0.4524
 3251TIP3   OH231167   0.898   5.006   0.400  0.6897  0.1719  0.1166
 3251TIP3    H131168   0.863   5.091   0.376 -0.6091  0.2343  2.0580
 3251TIP3    H231169   0.989   5.024   0.426  0.6749  0.8035 -0.2519
 3252TIP3   OH231170   4.542   0.439  10.430 -0.0358 -0.0365  0.7353
 3252TIP3    H131171   4.467   0.463  10.376  0.5759  2.3854  0.8581
 3252TIP3    H231172   4.579   0.523  10.459  1.5432 -1.2021  2.2977
 3253TIP3   OH231173   3.626   3.554  15.639 -0.0376  0.3250  0.0513
 3253TIP3    H131174   3.675   3.627  15.676 -0.6552  0.4359  0.6649
 3253TIP3    H231175   3.563   3.530  15.707 -0.7754  0.1276 -0.6823
 3254TIP3   OH231176   5.048   0.764  12.538 -0.1100  0.4431  0.1879
 3254TIP3    H131177   5.043   0.828  12.467 -1.8839  0.3980  0.2200
 3254TIP3    H231178   4.986   0.796  12.604 -1.7781 -1.7010 -0.1952
 3255TIP3   OH231179   2.321   0.013  15.773 -0.1587  1.2039 -0.5697
 3255TIP3    H131180   2.339   0.089  15.828  0.9126  1.1862 -0.8801
 3255TIP3    H231181   2.229   0.023  15.748 -0.6610  1.2168  1.1765
 3256TIP3   OH231182   0.142   1.614  13.370 -0.4874  0.3281 -0.0450
 3256TIP3    H131183   0.078   1.564  13.319 -0.1166 -0.1168 -0.0815
 3256TIP3    H231184   0.090   1.656  13.438 -0.4509 -2.9252  2.2462
 3257TIP3   OH231185   5.109   0.635   4.524 -0.3108  0.2370  0.0652
 3257TIP3    H131186   5.201   0.659   4.526 -0.6184  1.7439 -1.2914
 3257TIP3    H231187   5.104   0.554   4.574  1.6167  0.5016  0.7713
 3258TIP3   OH231188   6.101   3.428   0.312 -1.2350 -0.2690 -0.0158
 3258TIP3    H131189   6.103   3.463   0.401 -0.0900  1.6393 -0.7356
 3258TIP3    H231190   6.192   3.408   0.292 -1.2984  0.5515 -1.2014
 3259TIP3   OH231191   1.473   1.881   0.946  0.6263  0.0876  0.3724
 3259TIP3    H131192   1.546   1.880   0.884  1.7373 -0.8235  1.6361
 3259TIP3    H231193   1.444   1.790   0.950 -0.4834  0.4072  0.0347
 3260TIP3   OH231194   2.227   4.437   6.288 -0.3173  0.3506  0.3885
 3260TIP3    H131195   2.181   4.485   6.220  0.4758  2.1981  1.0794
 3260TIP3    H231196   2.231   4.498   6.362 -2.2699 -1.9856  2.6124
 3261TIP3   OH231197   1.603   4.540   6.307 -0.2008 -0.3206  0.7251
 3261TIP3    H131198   1.670   4.487   6.349  0.6011 -0.5066 -0.7381
 3261TIP3    H231199   1.569   4.596   6.377  0.9865 -0.7062  1.6318
 3262TIP3   OH231200   0.421   5.216   4.877 -0.2433  0.0593 -0.4581
 3262TIP3    H131201   0.472   5.211   4.958 -0.9153  0.6604  0.0123
 3262TIP3    H231202   0.487   5.224   4.808  0.3131  0.5855  0.1180
 3263TIP3   OH231203   1.099   4.024  15.935 -0.9279  0.0738 -0.0466
 3263TIP3    H131204   1.118   4.095  15.997  2.7506 -0.4612 -0.3463
 3263TIP3    H231205   1.153   4.045  15.858 -0.6504 -2.4208 -0.5980
 3264TIP3   OH231206   0.006   3.109  13.405  0.0468 -0.2033  0.1809
 3264TIP3    H131207  -0.015   3.063  13.323 -0.2258 -0.9871  0.6825
 3264TIP3    H231208  -0.077   3.151  13.430  0.6888  2.0825 -1.1814
 3265TIP3   OH231209   1.358   0.735   1.318 -0.6927 -0.2797  0.5849
 3265TIP3    H131210   1.306   0.815   1.310 -0.1401  0.0233 -0.0265
 3265TIP3    H231211   1.344   0.689   1.235  1.6391  0.8069 -0.4926
 3266TIP3   OH231212   5.652   2.629  13.994 -0.0800  0.2476  0.1410
 3266TIP3    H131213   5.609   2.680  13.926 -0.4280  0.8178  0.7713
 3266TIP3    H231214   5.714   2.690  14.034 -0.0112 -0.0260  0.4566
 3267TIP3   OH231215   4.872   4.762  13.353  0.4132  0.3062 -0.0183
 3267TIP3    H131216   4.915   4.679  13.374 -0.0166  0.2775  0.8008
 3267TIP3    H231217   4.801   4.738  13.293 -0.3899 -0.0935  1.0473
 3268TIP3   OH231218   6.513   2.766   3.970 -0.1960  0.3266  0.1546
 3268TIP3    H131219   6.540   2.710   4.042 -0.7960  1.0529  0.9642
 3268TIP3    H231220   6.542   2.854   3.996  0.5806  0.4387 -1.0109
 3269TIP3   OH231221   2.147   2.987  12.787 -0.1545  0.1497  0.0673
 3269TIP3    H131222   2.238   2.986  12.758 -0.4519 -0.5316 -0.8809
 3269TIP3    H231223   2.101   3.038  12.720 -0.6172 -0.2433  0.0808
 3270TIP3   OH231224   4.632   2.365   2.344  0.8064 -0.1104 -0.0766
 3270TIP3    H131225   4.671   2.392   2.427  1.4713  1.1305 -0.7665
 3270TIP3    H231226   4.563   2.304   2.369  1.1246  0.0874  1.3709
 3271TIP3   OH231227   1.304   0.779   3.417 -0.6082 -0.1174 -0.0146
 3271TIP3    H131228   1.330   0.789   3.325  0.6818  0.6642  0.4065
 3271TIP3    H231229   1.218   0.738   3.414 -0.4992 -0.2718 -1.5699
 3272TIP3   OH231230   2.734   6.144  14.742 -0.0438 -0.3109 -0.1496
 3272TIP3    H131231   2.669   6.210  14.720  1.4715  0.9597 -1.0618
 3272TIP3    H231232   2.758   6.163  14.832  0.9363  0.9251 -0.6458
 3273TIP3   OH231233   6.085   0.149  14.102 -0.2204 -0.2915  0.5145
 3273TIP3    H131234   6.070   0.223  14.044  0.2377 -0.2253  0.4727
 3273TIP3    H231235   6.119   0.188  14.182 -0.0329 -0.4484  0.5126
 3274TIP3   OH231236   2.622   1.609  11.282 -0.2577  0.0478  0.0262
 3274TIP3    H131237   2.639   1.581  11.192  0.4431  0.7118 -0.0636
 3274TIP3    H231238   2.632   1.704  11.279 -1.1041  0.1677  0.6281
 3275TIP3   OH231239   1.469   5.073  17.006  0.0609  0.2181  0.5985
 3275TIP3    H131240   1.374   5.072  17.006  0.0159  1.5566 -0.3047
 3275TIP3    H231241   1.492   5.143  16.945  1.6161  0.1684  1.0827
 3276TIP3   OH231242   2.783   5.764  16.819 -0.4414 -0.3756  0.4083
 3276TIP3    H131243   2.774   5.725  16.906 -0.3859  0.1616  0.6580
 3276TIP3    H231244   2.754   5.855  16.830  0.1701 -0.1241  0.0072
 3277TIP3   OH231245   0.867   6.248   4.448  0.1800 -0.4079  0.2020
 3277TIP3    H131246   0.934   6.192   4.408  0.8439  0.2986  0.2990
 3277TIP3    H231247   0.858   6.321   4.387 -0.0471 -0.1843  0.5038
 3278TIP3   OH231248   0.471   2.207  12.975  0.5443 -0.5161 -0.6251
 3278TIP3    H131249   0.431   2.184  13.059 -0.5505 -0.8012 -1.1914
 3278TIP3    H231250   0.505   2.295  12.987  1.9446 -1.1862  0.6274
 3279TIP3   OH231251   0.717   5.288  14.631 -0.0078  0.4603  0.2122
 3279TIP3    H131252   0.682   5.376  14.614  0.1626  0.1491 -2.0214
 3279TIP3    H231253   0.649   5.229  14.601  0.5180 -0.1635  0.2283
 3280TIP3   OH231254   2.418   6.606   5.979 -0.2067  0.0611  0.3620
 3280TIP3    H131255   2.372   6.687   5.957  0.4704  0.7205  1.3341
 3280TIP3    H231256   2.397   6.590   6.071  0.5821 -0.2443  0.4969
 3281TIP3   OH231257   2.236   3.549  13.930 -0.2277  0.9248  0.5369
 3281TIP3    H131258   2.196   3.564  13.845 -0.3219 -0.4294  0.3196
 3281TIP3    H231259   2.219   3.456  13.949 -0.1819  1.1809  2.0070
 3282TIP3   OH231260   0.392   6.024  15.677  0.3014 -0.4807  0.0926
 3282TIP3    H131261   0.358   5.979  15.599 -0.0471 -0.6095  0.3123
 3282TIP3    H231262   0.394   6.116  15.653  2.0635 -0.6982 -0.7487
 3283TIP3   OH231263   6.655   4.408  11.399 -0.6653  0.4182 -0.3777
 3283TIP3    H131264   6.729   4.356  11.431 -0.8671 -0.5214 -1.3544
 3283TIP3    H231265   6.622   4.454  11.476 -1.5957 -2.3066  0.9836
 3284TIP3   OH231266   2.414   1.386  16.786  0.5860  0.0895  0.3343
 3284TIP3    H131267   2.384   1.295  16.781  1.8245 -0.2737 -2.1988
 3284TIP3    H231268   2.442   1.397  16.877  0.7732 -2.1892  0.6194
 3285TIP3   OH231269   6.603   1.342   5.456 -0.0724 -0.1944 -0.7937
 3285TIP3    H131270   6.623   1.417   5.399  1.1141 -1.4733 -2.1507
 3285TIP3    H231271   6.678   1.284   5.445  0.6730 -0.1436  2.8130
 3286TIP3   OH231272   4.805   2.076   1.631  0.3133  0.3242 -0.1527
 3286TIP3    H131273   4.867   2.143   1.660 -0.2116  0.2593  1.2302
 3286TIP3    H231274   4.800   2.015   1.705 -0.7344 -0.1451 -0.5911
 3287TIP3   OH231275   3.430   2.747   1.810  0.7483  0.1595 -0.0349
 3287TIP3    H131276   3.490   2.795   1.867  2.3470 -0.5392 -1.0368
 3287TIP3    H231277   3.472   2.750   1.724 -0.8683 -0.0552 -0.8686
 3288TIP3   OH231278   3.486   0.128   5.257 -0.3151 -0.5281 -0.4529
 3288TIP3    H131279   3.394   0.156   5.251 -0.4334 -1.1871 -2.8899
 3288TIP3    H231280   3.534   0.208   5.280 -1.5535 -0.3841  1.8945
 3289TIP3   OH231281   3.840   6.380   2.314  1.0349  0.1077  0.3237
 3289TIP3    H131282   3.857   6.312   2.249  0.0044  0.1155  0.0299
 3289TIP3    H231283   3.884   6.458   2.279  1.2189 -0.1083  0.0670
 3290TIP3   OH231284   1.689   6.306  14.532  0.6046 -0.2140  0.0259
 3290TIP3    H131285   1.718   6.331  14.620  0.0588  0.1256  0.1129
 3290TIP3    H231286   1.701   6.385  14.479  0.2797 -0.2061 -0.0398
 3291TIP3   OH231287   4.942   4.660   2.758  0.0522 -0.3996 -0.3678
 3291TIP3    H131288   4.936   4.668   2.853 -1.0853 -1.7719 -0.2827
 3291TIP3    H231289   4.905   4.741   2.724  0.8934  0.3081  0.3329
 3292TIP3   OH231290   0.764   1.657  16.577  0.4310 -0.3148  0.6540
 3292TIP3    H131291   0.760   1.573  16.624 -0.1344 -0.0964  0.9993
 3292TIP3    H231292   0.797   1.719  16.642 -0.2305 -0.0384  0.7379
 3293TIP3   OH231293   2.268   5.789  12.426 -0.1050  0.0674  0.1340
 3293TIP3    H131294   2.242   5.852  12.493  1.4170  1.2440 -0.3153
 3293TIP3    H231295   2.276   5.841  12.346  0.9082 -0.7539 -0.3242
 3294TIP3   OH231296   0.069   0.696   5.647 -0.2990  0.5743 -0.6404
 3294TIP3    H131297   0.095   0.613   5.608 -0.2748 -0.0580  0.6891
 3294TIP3    H231298   0.150   0.746   5.655 -0.1287  0.2403 -0.2989
 3295TIP3   OH231299   0.107   6.408  13.761 -0.4880  0.3810  0.0965
 3295TIP3    H131300   0.057   6.450  13.691 -0.6482 -1.5867 -1.0480
 3295TIP3    H231301   0.057   6.425  13.841 -0.9282  1.6657 -0.4375
 3296TIP3   OH231302   6.508   0.007   4.948  0.2758  0.4023  0.0830
 3296TIP3    H131303   6.460  -0.074   4.968  0.2121  0.5608  0.5878
 3296TIP3    H231304   6.445   0.061   4.900 -0.2244  0.8153  1.1870
 3297TIP3   OH231305   5.221   6.481   5.885  0.0666  0.0459 -0.3051
 3297TIP3    H131306   5.156   6.458   5.952  0.1323  1.2540  0.2004
 3297TIP3    H231307   5.177   6.464   5.802 -0.5158 -0.1563  0.0381
 3298TIP3   OH231308   4.865   0.464  11.555  0.1475  0.1802  0.2671
 3298TIP3    H131309   4.867   0.428  11.644 -0.8167  0.7278  0.5318
 3298TIP3    H231310   4.830   0.393  11.501  0.6054 -0.1086  0.3455
 3299TIP3   OH231311   2.911   0.878  11.748 -0.7385 -0.3480 -0.1477
 3299TIP3    H131312   2.849   0.805  11.748 -0.8240 -0.2984 -1.4512
 3299TIP3    H231313   2.872   0.943  11.689 -0.1367  0.2895  0.1426
 3300TIP3   OH231314   2.005   0.354   1.737  0.1602  0.2609  0.0221
 3300TIP3    H131315   1.988   0.435   1.786 -1.2492  0.0230 -0.0169
 3300TIP3    H231316   2.000   0.285   1.802 -1.8932 -0.0738 -0.4111
 3301TIP3   OH231317   6.644   6.655   3.685 -0.1586  0.5145 -0.3017
 3301TIP3    H131318   6.574   6.590   3.687 -1.9331  2.2859 -1.2008
 3301TIP3    H231319   6.711   6.620   3.744 -3.1120  0.1915  3.2049
 3302TIP3   OH231320   3.060   5.202  14.838 -0.1348  0.2052  0.1627
 3302TIP3    H131321   3.073   5.116  14.878 -0.4411  0.2260  0.3090
 3302TIP3    H231322   3.124   5.258  14.882 -1.1269  0.4557  1.3494
 3303TIP3   OH231323   0.558   0.751   3.056  0.2025 -0.4295 -0.4390
 3303TIP3    H131324   0.637   0.759   3.002 -0.9125  1.0858 -1.9152
 3303TIP3    H231325   0.497   0.700   3.003 -1.0726  1.4589 -0.8996
 3304TIP3   OH231326   5.469   5.113   0.470 -0.1082  0.2027  0.4863
 3304TIP3    H131327   5.535   5.144   0.532 -0.6846  0.6674  0.8768
 3304TIP3    H231328   5.388   5.106   0.522 -0.3150 -0.6110  0.0783
 3305TIP3   OH231329   3.321   2.450   1.892 -0.1232 -0.4728 -0.0349
 3305TIP3    H131330   3.234   2.421   1.918 -0.6121  1.5551  0.8332
 3305TIP3    H231331   3.357   2.491   1.970  1.3372 -0.6245 -0.5891
 3306TIP3   OH231332   1.147   4.282   4.379 -0.2694 -0.3104 -0.2434
 3306TIP3    H131333   1.069   4.230   4.359  0.1846 -0.8341 -0.6752
 3306TIP3    H231334   1.139   4.359   4.324 -1.1823  0.3224  0.7393
 3307TIP3   OH231335   2.365   3.573  15.695  0.1808  0.3546 -0.6288
 3307TIP3    H131336   2.342   3.551  15.785  3.7817 -1.5209 -0.0023
 3307TIP3    H231337   2.319   3.507  15.642 -0.3737  0.2473 -0.0332
 3308TIP3   OH231338   5.088   0.259   4.089 -0.5742 -0.2607  0.3775
 3308TIP3    H131339   4.993   0.261   4.099 -0.4451  0.9451  1.7274
 3308TIP3    H231340   5.120   0.326   4.150  1.0413  0.5228 -1.2530
 3309TIP3   OH231341   2.417   0.207   1.347  0.2296 -0.0851  1.0656
 3309TIP3    H131342   2.497   0.256   1.367 -0.0413  0.7347  0.2442
 3309TIP3    H231343   2.445   0.141   1.283 -0.1121  1.7107 -1.0770
 3310TIP3   OH231344   0.653   0.857  16.403 -0.0311  0.3415  0.3328
 3310TIP3    H131345   0.566   0.829  16.374  0.2845 -0.5008  0.1548
 3310TIP3    H231346   0.671   0.801  16.479  0.1878  0.7996  0.6209
 3311TIP3   OH231347   4.638   0.452  15.085 -0.0817  0.0552 -0.1941
 3311TIP3    H131348   4.621   0.532  15.135 -0.1343 -0.2226  0.2365
 3311TIP3    H231349   4.555   0.431  15.043 -0.2589 -0.1550  0.2525
 3312TIP3   OH231350   5.209   5.205   1.293  0.4529 -0.3500  0.3751
 3312TIP3    H131351   5.217   5.298   1.270 -0.5409 -0.3266  0.0384
 3312TIP3    H231352   5.297   5.170   1.284  1.0850  0.8207  1.6865
 3313TIP3   OH231353   4.290   3.803  14.111  0.1488 -0.5209  0.3655
 3313TIP3    H131354   4.381   3.827  14.128  0.0857 -0.1948  0.2525
 3313TIP3    H231355   4.272   3.731  14.171 -0.5257  1.5144  2.7767
 3314TIP3   OH231356   0.621   1.002   3.879 -0.1490 -0.5605  0.3168
 3314TIP3    H131357   0.631   1.057   3.957  0.7185 -0.8215  0.3967
 3314TIP3    H231358   0.539   1.032   3.840 -0.7979 -0.6772  1.5210
 3315TIP3   OH231359   1.106   1.189   3.541 -0.5385  0.0687 -0.0943
 3315TIP3    H131360   1.068   1.158   3.458 -2.4615  1.1667  0.3278
 3315TIP3    H231361   1.175   1.125   3.560 -2.3505 -2.2338 -0.7615
 3316TIP3   OH231362   5.468   6.015   5.771  0.1398 -0.2908 -0.3123
 3316TIP3    H131363   5.532   6.083   5.749 -1.8876  1.9797  0.3690
 3316TIP3    H231364   5.483   5.945   5.707  0.8363  1.8078 -2.5598
 3317TIP3   OH231365   1.120   4.813  11.520  0.5054  0.0488 -0.2268
 3317TIP3    H131366   1.151   4.726  11.494  0.8298  0.1050 -0.0378
 3317TIP3    H231367   1.060   4.839  11.450 -2.0943 -1.6629  1.2156
 3318TIP3   OH231368   1.749   0.816  17.251  0.1549  0.1737  0.4732
 3318TIP3    H131369   1.782   0.898  17.290 -0.3814  0.5410  0.1708
 3318TIP3    H231370   1.745   0.835  17.157 -2.3366  0.6917  0.6088
 3319TIP3   OH231371   4.673   2.304  14.242  0.1050 -0.3793 -0.2545
 3319TIP3    H131372   4.685   2.377  14.182  1.4156  1.4037  2.0093
 3319TIP3    H231373   4.609   2.336  14.306 -0.6562 -1.9047 -0.2060
 3320TIP3   OH231374   3.240   3.835  15.968 -0.4712 -0.1235 -0.3687
 3320TIP3    H131375   3.182   3.789  15.908  1.0131 -1.8815 -0.5284
 3320TIP3    H231376   3.313   3.775  15.982  1.1438  1.8556  0.1096
 3321TIP3   OH231377   5.811   3.666   3.456  0.6588  0.2365 -0.0296
 3321TIP3    H131378   5.781   3.607   3.386 -0.0278 -0.7425  1.0582
 3321TIP3    H231379   5.895   3.630   3.483  0.5566  0.1526  0.1782
 3322TIP3   OH231380   5.897   2.092  15.720 -0.2437 -0.3342  0.0443
 3322TIP3    H131381   5.967   2.111  15.657 -0.0060 -1.8962 -0.2185
 3322TIP3    H231382   5.867   2.178  15.750  1.4051  0.3846 -0.2503
 3323TIP3   OH231383   0.439   2.595   0.409  0.1081  0.3209 -0.0806
 3323TIP3    H131384   0.524   2.600   0.452  0.3183  0.6414 -0.5221
 3323TIP3    H231385   0.433   2.505   0.377  1.2088  0.8251 -1.8711
 3324TIP3   OH231386   0.430   0.186   1.847 -0.2321  0.3131 -0.8072
 3324TIP3    H131387   0.388   0.120   1.792  0.6534 -0.1100 -0.9976
 3324TIP3    H231388   0.506   0.141   1.885 -0.0971  0.9770 -0.2701
 3325TIP3   OH231389   4.950   3.944  16.000  0.0727 -0.4023 -0.0366
 3325TIP3    H131390   5.029   3.905  16.039  0.5362  1.0981  0.5846
 3325TIP3    H231391   4.981   3.980  15.917  0.5592  1.8985  1.0565
 3326TIP3   OH231392   0.284   4.520   1.457  0.1567 -0.2685 -0.0699
 3326TIP3    H131393   0.315   4.591   1.513  2.4801 -0.4621 -0.9895
 3326TIP3    H231394   0.227   4.563   1.393 -0.6482  0.3074  1.0093
 3327TIP3   OH231395   1.327   5.090  13.102 -0.2296 -0.3897  0.3369
 3327TIP3    H131396   1.408   5.128  13.067 -0.1514 -1.6776 -0.9486
 3327TIP3    H231397   1.349   5.069  13.193  0.0916  1.4628  0.7464
 3328TIP3   OH231398   6.655   1.833   5.156 -0.7069 -0.2113  0.1096
 3328TIP3    H131399   6.730   1.891   5.145 -0.7833 -0.0720  0.3277
 3328TIP3    H231400   6.690   1.745   5.142 -0.2363 -0.2610  1.4403
 3329TIP3   OH231401   2.772   1.125  13.677  0.3850 -0.2513 -0.9415
 3329TIP3    H131402   2.765   1.081  13.592 -1.9278 -0.2642 -0.8009
 3329TIP3    H231403   2.698   1.090  13.728  0.2103  1.6513  0.1840
 3330TIP3   OH231404   5.826   3.037   1.435 -0.1268  0.2302  0.6614
 3330TIP3    H131405   5.769   3.058   1.361 -1.7932 -0.6315  1.6393
 3330TIP3    H231406   5.786   2.960   1.475  1.5420 -0.1906  1.6419
 3331TIP3   OH231407   1.861   4.907   5.045 -0.2110 -0.0087 -0.3655
 3331TIP3    H131408   1.769   4.882   5.032 -0.3430  0.5497 -0.5135
 3331TIP3    H231409   1.891   4.850   5.116 -0.1993 -1.3361 -1.3918
 3332TIP3   OH231410   5.565   5.830  13.194 -0.5060  0.2414 -0.1597
 3332TIP3    H131411   5.640   5.865  13.243  1.1006 -0.3890 -2.0117
 3332TIP3    H231412   5.561   5.884  13.115 -0.4448 -1.2170 -1.2059
 3333TIP3   OH231413   3.954   0.610   2.938  0.5511  0.4406 -0.2366
 3333TIP3    H131414   3.971   0.702   2.921  0.1970  0.4704 -0.4402
 3333TIP3    H231415   3.894   0.610   3.012 -2.2867  0.5388 -2.3689
 3334TIP3   OH231416   2.505   6.628  14.168 -0.1581 -0.1090  0.8054
 3334TIP3    H131417   2.586   6.648  14.215 -0.3770  1.4332  0.5742
 3334TIP3    H231418   2.436   6.667  14.222 -0.6679 -0.6771  0.5729
 3335TIP3   OH231419   2.821   2.117  13.568  0.1944 -0.3827  0.0074
 3335TIP3    H131420   2.739   2.068  13.580 -1.0919  1.8749  1.2234
 3335TIP3    H231421   2.882   2.077  13.629 -0.6031 -0.9070  0.4845
 3336TIP3   OH231422   1.831   0.832   4.834  0.5983  0.4602  0.1354
 3336TIP3    H131423   1.763   0.794   4.779  0.5632 -0.4141  0.7711
 3336TIP3    H231424   1.790   0.910   4.871  0.0445  0.1160  0.2627
 3337TIP3   OH231425   3.166   1.389  14.359  0.3722 -0.3823  0.5483
 3337TIP3    H131426   3.192   1.320  14.420 -0.0112 -2.3486 -1.4257
 3337TIP3    H231427   3.135   1.343  14.281  1.2771  2.0187 -1.3580
 3338TIP3   OH231428   3.562   5.493  11.986 -0.0870  0.0132  0.6751
 3338TIP3    H131429   3.619   5.416  11.987  0.9276  0.6407 -1.6304
 3338TIP3    H231430   3.617   5.563  11.950 -1.9282  0.9620 -0.4350
 3339TIP3   OH231431   6.374   5.570   5.740  0.7664 -0.4553 -0.6153
 3339TIP3    H131432   6.405   5.498   5.796  0.3058 -0.8803 -0.8933
 3339TIP3    H231433   6.454   5.610   5.706  1.0378 -0.6352 -0.2084
 3340TIP3   OH231434   2.792   5.099  14.960  0.4814  0.2588  0.3950
 3340TIP3    H131435   2.879   5.131  14.937  0.6898  1.8327  2.9858
 3340TIP3    H231436   2.733   5.170  14.934  0.1264 -0.1610  0.0297
 3341TIP3   OH231437   5.989   5.158  11.481  0.0915  0.9782 -0.0939
 3341TIP3    H131438   6.020   5.156  11.572 -0.9521 -0.6958  0.2801
 3341TIP3    H231439   6.057   5.111  11.432 -1.1530 -1.6877  0.5399
 3342TIP3   OH231440   4.185   0.396   1.458 -0.2329 -0.6605 -0.9164
 3342TIP3    H131441   4.195   0.466   1.522  0.5328 -1.6938  0.1295
 3342TIP3    H231442   4.237   0.425   1.383 -1.1923  0.5877 -1.1219
 3343TIP3   OH231443   0.959   1.803  11.365 -0.0435  0.0768 -0.5507
 3343TIP3    H131444   0.970   1.767  11.277  0.0709 -0.6260 -0.2583
 3343TIP3    H231445   0.958   1.726  11.422 -0.9733  0.4668 -0.0190
 3344TIP3   OH231446   0.887   1.843   5.771  0.3307 -0.3087 -0.0845
 3344TIP3    H131447   0.846   1.756   5.774  0.5938 -0.4222  0.6719
 3344TIP3    H231448   0.981   1.825   5.783  0.6290 -0.0588 -1.8627
 3345TIP3   OH231449   4.523   6.391   1.004 -0.0726  0.0299  0.5067
 3345TIP3    H131450   4.554   6.328   0.940  0.3336  1.1412 -0.4399
 3345TIP3    H231451   4.578   6.378   1.081  0.9296  0.1431 -0.1763
 3346TIP3   OH231452   3.911   0.181  15.273  0.2300 -0.5993  0.5783
 3346TIP3    H131453   3.863   0.258  15.303  1.5631  0.3484  0.4216
 3346TIP3    H231454   3.943   0.140  15.354  2.4543  1.0433  0.6581
 3347TIP3   OH231455   1.489   3.879   1.269  0.4081  0.2653  0.1209
 3347TIP3    H131456   1.534   3.915   1.193 -1.7620  0.6596 -1.0761
 3347TIP3    H231457   1.492   3.784   1.256  0.3581  0.3176 -0.2985
 3348TIP3   OH231458   1.517   1.651   2.330  0.1755 -0.1148 -0.5372
 3348TIP3    H131459   1.472   1.597   2.264  1.0754 -1.8362  0.2010
 3348TIP3    H231460   1.448   1.675   2.392  0.3164 -4.2678  1.6217
 3349TIP3   OH231461   6.440   0.441   5.235  0.5129 -0.2299 -0.0251
 3349TIP3    H131462   6.408   0.372   5.178  1.0785 -0.4245 -0.1195
 3349TIP3    H231463   6.442   0.520   5.180 -1.4591  0.2043  0.4584
 3350TIP3   OH231464   0.157   3.260   5.157 -0.5131  0.1187  0.0310
 3350TIP3    H131465   0.065   3.237   5.141 -0.9456  0.2764  2.0427
 3350TIP3    H231466   0.197   3.178   5.187  0.1909 -0.0916 -1.3681
 3351TIP3   OH231467   5.351   1.893  16.485  0.5312 -0.2724  0.3600
 3351TIP3    H131468   5.269   1.862  16.446 -0.4030  1.9140  0.4492
 3351TIP3    H231469   5.328   1.917  16.575  1.1263  0.8621  0.2280
 3352TIP3   OH231470   5.668   1.747   3.173  0.5194 -0.0838 -0.4906
 3352TIP3    H131471   5.715   1.768   3.253 -1.3702  0.1464  0.6146
 3352TIP3    H231472   5.678   1.652   3.163  3.1957  0.2246 -1.6547
 3353TIP3   OH231473   4.944   4.334  12.508 -0.0282 -0.0632 -0.2086
 3353TIP3    H131474   4.937   4.411  12.565 -0.4382 -0.4237  0.2402
 3353TIP3    H231475   4.980   4.367  12.426  0.0540  0.5601  0.0771
 3354TIP3   OH231476   4.364   5.563  16.344 -0.6105  0.0904  0.1650
 3354TIP3    H131477   4.417   5.505  16.398 -2.5911 -1.2403  0.7735
 3354TIP3    H231478   4.383   5.535  16.254  0.6218  0.4891  0.2770
 3355TIP3   OH231479   4.737   0.175   3.350  0.0482  0.5290 -0.2768
 3355TIP3    H131480   4.686   0.094   3.356  0.9699  0.0384  1.7207
 3355TIP3    H231481   4.673   0.242   3.326 -1.1407 -0.4044  0.1952
 3356TIP3   OH231482   4.781   1.378  12.020 -0.1384 -0.3237 -0.1451
 3356TIP3    H131483   4.751   1.377  11.930  0.4794 -0.6468 -0.3490
 3356TIP3    H231484   4.752   1.294  12.056 -2.7446  0.8369  0.7673
 3357TIP3   OH231485   4.098   2.350  14.451 -0.6837  0.8236 -0.8446
 3357TIP3    H131486   4.170   2.402  14.484 -0.8561  1.2590 -1.1457
 3357TIP3    H231487   4.054   2.407  14.388 -0.4745  0.0791 -1.6772
 3358TIP3   OH231488   3.631   0.392   5.937  0.3084  0.2798  0.7001
 3358TIP3    H131489   3.632   0.297   5.940  2.3254  0.2206 -0.2642
 3358TIP3    H231490   3.637   0.414   5.844  1.0601  1.3310  0.9745
 3359TIP3   OH231491   6.021   5.170   0.508 -0.4960  0.3328  1.1503
 3359TIP3    H131492   6.035   5.092   0.454 -0.6379  0.4689  0.9116
 3359TIP3    H231493   5.986   5.137   0.590 -0.4466  0.1352  1.0917
 3360TIP3   OH231494   6.726   2.262   4.124  0.2054 -0.2867  0.3211
 3360TIP3    H131495   6.709   2.185   4.069  1.3188  0.0716 -0.5695
 3360TIP3    H231496   6.777   2.320   4.068 -0.5161  1.0683  1.0183
 3361TIP3   OH231497   0.694   2.233   2.132 -0.0106 -0.1057  0.0741
 3361TIP3    H131498   0.679   2.150   2.086 -0.1173 -0.0022 -0.0785
 3361TIP3    H231499   0.606   2.261   2.159 -0.1138  0.5329 -0.8718
 3362TIP3   OH231500   1.380   6.322  14.651 -0.8781  0.5075  0.4740
 3362TIP3    H131501   1.382   6.417  14.638 -1.5921  0.4802  0.1511
 3362TIP3    H231502   1.343   6.287  14.570  0.6334 -0.1628  0.0282
 3363TIP3   OH231503   2.705   3.805   5.831 -0.2866  0.0950 -0.0266
 3363TIP3    H131504   2.629   3.772   5.879  0.1744  0.4089  0.9433
 3363TIP3    H231505   2.672   3.820   5.742 -1.0566 -0.8804  0.0738
 3364TIP3   OH231506   3.030   1.600   4.789 -0.2333  0.5498  0.4093
 3364TIP3    H131507   3.013   1.527   4.730 -0.5051 -0.4416  1.6799
 3364TIP3    H231508   3.047   1.674   4.731 -0.2902 -0.4339 -0.9041
 3365TIP3   OH231509   3.142   2.893  16.735 -0.2965 -0.1367  0.4284
 3365TIP3    H131510   3.129   2.800  16.721  0.2304 -0.2228  0.4605
 3365TIP3    H231511   3.216   2.916  16.678 -0.6730  0.3446  0.1223
 3366TIP3   OH231512   2.124   6.767   6.104  0.8236  0.0970  0.4561
 3366TIP3    H131513   2.126   6.796   6.195  1.0349  0.6353  0.2825
 3366TIP3    H231514   2.118   6.848   6.053 -1.9366 -0.2790  0.0611
 3367TIP3   OH231515   6.332   1.386   5.488  0.2435 -0.3925  0.1338
 3367TIP3    H131516   6.417   1.347   5.466  0.7202  0.1232  0.9803
 3367TIP3    H231517   6.334   1.395   5.584 -0.3571  0.5371  0.0726
 3368TIP3   OH231518   2.897   1.821  16.533 -0.3953  0.1273  0.3758
 3368TIP3    H131519   2.829   1.812  16.465 -0.7180 -0.9891  0.8277
 3368TIP3    H231520   2.979   1.818  16.485 -0.6048 -1.2156  0.0603
 3369TIP3   OH231521   4.326   3.438  11.403 -0.4462 -0.0998  0.8538
 3369TIP3    H131522   4.273   3.366  11.436  1.7479 -2.4869 -0.3947
 3369TIP3    H231523   4.376   3.468  11.479 -0.6676 -0.5985  1.2053
 3370TIP3   OH231524   5.594   6.697  15.771 -0.3778  0.4877  0.1609
 3370TIP3    H131525   5.689   6.690  15.776 -0.3081 -2.8529 -2.2097
 3370TIP3    H231526   5.561   6.626  15.826 -1.5095  1.3422  0.6314
 3371TIP3   OH231527   2.916   2.551  16.375 -0.0795 -0.2272  0.5383
 3371TIP3    H131528   3.012   2.541  16.369  0.1070  0.9089  1.3652
 3371TIP3    H231529   2.900   2.642  16.350 -0.9977 -0.5042  0.0724
 3372TIP3   OH231530   3.353   0.024  11.483  0.0276 -0.7023  0.3680
 3372TIP3    H131531   3.355   0.111  11.523  1.0616 -1.2736  1.6458
 3372TIP3    H231532   3.300   0.034  11.404  3.1710  1.9523 -1.6366
 3373TIP3   OH231533   4.937   1.637  11.840 -0.0207 -0.0071 -0.0415
 3373TIP3    H131534   5.017   1.677  11.873 -0.0094 -0.9617  1.1621
 3373TIP3    H231535   4.872   1.654  11.908 -1.6744  3.1233 -2.1414
 3374TIP3   OH231536   3.066   2.588  11.424 -0.3806  0.5129  0.2648
 3374TIP3    H131537   3.056   2.682  11.437 -3.4492  0.2788  0.3578
 3374TIP3    H231538   3.005   2.548  11.487 -0.4286 -1.4407 -0.9191
 3375TIP3   OH231539   2.852   6.041  15.908  0.1571  0.1001  0.1745
 3375TIP3    H131540   2.774   6.084  15.942 -0.0962 -0.1562 -0.0758
 3375TIP3    H231541   2.922   6.065  15.969  0.1344  1.2749 -0.2465
 3376TIP3   OH231542   1.772   2.721  14.146  0.2272  0.3236 -0.0123
 3376TIP3    H131543   1.712   2.662  14.191 -1.1869  0.8445 -1.1380
 3376TIP3    H231544   1.816   2.666  14.082  0.4035  0.0935  0.3033
 3377TIP3   OH231545   4.867   5.436  17.065 -0.0468  0.4689 -0.6809
 3377TIP3    H131546   4.945   5.491  17.064 -0.2678  0.8045 -2.1875
 3377TIP3    H231547   4.899   5.348  17.080  0.3199  0.9534  1.7775
 3378TIP3   OH231548   5.365   2.859   3.182  0.1958  0.1481 -0.4602
 3378TIP3    H131549   5.311   2.882   3.107 -0.3136 -0.6478 -0.3493
 3378TIP3    H231550   5.455   2.863   3.149  0.1428  2.0683 -0.4924
 3379TIP3   OH231551   0.698   5.450  16.550  0.0263 -0.3495 -0.7083
 3379TIP3    H131552   0.644   5.371  16.553  0.6505 -0.9915 -3.4672
 3379TIP3    H231553   0.678   5.489  16.465  0.0509  2.3048  0.4078
 3380TIP3   OH231554   1.081   2.879  14.560 -0.2651  0.0534 -0.0620
 3380TIP3    H131555   1.011   2.904  14.620 -0.6490  0.2315 -0.5676
 3380TIP3    H231556   1.113   2.796  14.593 -0.8571 -0.1290  0.0677
 3381TIP3   OH231557   1.150   4.513   3.730  0.2879 -0.2583 -0.0338
 3381TIP3    H131558   1.192   4.553   3.806  0.4388  2.1331 -1.2795
 3381TIP3    H231559   1.203   4.541   3.656 -1.6208  0.1193 -1.3302
 3382TIP3   OH231560   6.514   4.881  15.908 -0.5972 -0.3404 -0.0528
 3382TIP3    H131561   6.502   4.952  15.845 -1.0435  1.5930  2.0666
 3382TIP3    H231562   6.474   4.805  15.866 -1.2389  0.9343 -1.9155
 3383TIP3   OH231563   3.835   6.604   0.091  0.1931  0.1806 -0.0939
 3383TIP3    H131564   3.928   6.589   0.112  0.2065  0.3459 -0.0293
 3383TIP3    H231565   3.819   6.694   0.120 -0.5346 -0.5212  1.8844
 3384TIP3   OH231566   3.158   1.429  15.308 -0.1379 -0.3729  0.1916
 3384TIP3    H131567   3.126   1.489  15.241 -0.4391 -0.4252  0.2870
 3384TIP3    H231568   3.101   1.352  15.300  1.2215 -1.3045 -0.9825
 3385TIP3   OH231569   6.034   0.340   2.565  0.3698 -0.2498  0.2412
 3385TIP3    H131570   5.996   0.260   2.529  0.9696  0.5096 -2.3054
 3385TIP3    H231571   5.974   0.409   2.538 -0.1627  0.2276  2.4359
 3386TIP3   OH231572   2.866   2.406   5.083  0.5785  0.0808  0.3084
 3386TIP3    H131573   2.870   2.402   5.178 -2.7180 -0.6274  0.5508
 3386TIP3    H231574   2.840   2.496   5.063  1.5202  0.3014  0.0305
 3387TIP3   OH231575   3.369   3.791  16.491  0.5981  0.4554  0.5520
 3387TIP3    H131576   3.297   3.767  16.549  1.1594 -2.1752  0.2896
 3387TIP3    H231577   3.337   3.867  16.443 -1.9293 -0.5114  0.5531
 3388TIP3   OH231578   1.713   4.571  15.321 -0.1671 -0.6398 -0.7652
 3388TIP3    H131579   1.618   4.566  15.333 -0.0414 -0.2770  0.5145
 3388TIP3    H231580   1.736   4.660  15.350  0.5722 -0.7391 -1.0298
 3389TIP3   OH231581   4.830   0.081   2.434  0.4728  0.1490  0.1816
 3389TIP3    H131582   4.909   0.124   2.402  0.3889  1.1807  1.2963
 3389TIP3    H231583   4.861   0.014   2.495  0.5237 -0.2363 -0.2588
 3390TIP3   OH231584   1.770   6.010  13.172 -0.1763  0.0920 -0.4888
 3390TIP3    H131585   1.822   6.090  13.164  0.6321 -0.3885 -0.1577
 3390TIP3    H231586   1.679   6.039  13.169  0.0781  1.2187  1.4745
 3391TIP3   OH231587   5.088   3.492   3.406 -0.1436 -0.6346 -0.0320
 3391TIP3    H131588   5.173   3.460   3.375  0.6711  0.5397  0.8876
 3391TIP3    H231589   5.029   3.480   3.332  0.8179 -1.4873 -0.6884
 3392TIP3   OH231590   0.922   2.911  15.118  0.1811  0.1118  0.5205
 3392TIP3    H131591   0.902   2.880  15.030 -1.2537  1.3978  0.3609
 3392TIP3    H231592   0.964   2.996  15.106  1.3731 -0.3716  1.0542
 3393TIP3   OH231593   6.229   4.158  13.798  0.4957  0.7018  0.2860
 3393TIP3    H131594   6.174   4.211  13.740 -0.2476 -3.3929 -3.2977
 3393TIP3    H231595   6.172   4.087  13.826  2.9331 -1.9434 -0.9233
 3394TIP3   OH231596   2.097   3.106   1.443  0.1871  0.3910 -0.7390
 3394TIP3    H131597   2.094   3.024   1.491  2.0130  0.6118 -0.1805
 3394TIP3    H231598   2.095   3.080   1.351 -1.6663 -0.1141 -0.5933
 3395TIP3   OH231599   0.531   4.017   3.081 -0.0217  0.0466 -0.0989
 3395TIP3    H131600   0.617   4.057   3.098  0.4901 -0.1942 -1.8827
 3395TIP3    H231601   0.516   3.960   3.156  0.1039  2.1021  1.5728
 3396TIP3   OH231602   3.550   4.983   1.925  0.4622  1.0163  0.0647
 3396TIP3    H131603   3.557   4.987   1.829  0.2272  1.4745  0.0685
 3396TIP3    H231604   3.634   4.944   1.952  0.6805  1.2186 -0.3019
 3397TIP3   OH231605   2.283   5.445  15.868  0.3094  0.2438  0.1004
 3397TIP3    H131606   2.340   5.408  15.800 -0.4114 -0.8404  0.0657
 3397TIP3    H231607   2.303   5.538  15.867  1.2255  0.0569 -0.7304
 3398TIP3   OH231608   5.115   1.225  16.510  0.2143  0.4583  0.3130
 3398TIP3    H131609   5.111   1.301  16.568 -2.6424  0.1575  0.6539
 3398TIP3    H231610   5.118   1.262  16.422 -1.3185  1.0017  0.4701
 3399TIP3   OH231611   4.828   2.501   2.087 -0.3857 -0.5621 -0.0164
 3399TIP3    H131612   4.736   2.529   2.083  0.1290  1.5114  1.1069
 3399TIP3    H231613   4.859   2.511   1.997 -1.4678 -2.2836 -0.6395
 3400TIP3   OH231614   1.153   2.212  11.189 -0.0344  0.0201  0.0517
 3400TIP3    H131615   1.120   2.231  11.101  1.7479  1.0223 -0.4703
 3400TIP3    H231616   1.082   2.165  11.232 -1.0558 -0.2918 -1.8412
 3401TIP3   OH231617   6.738   3.723   3.512  0.1173  0.1894 -0.0485
 3401TIP3    H131618   6.673   3.743   3.446 -0.2420  0.8107  0.4849
 3401TIP3    H231619   6.734   3.796   3.574 -0.3818 -0.9196  1.2990
 3402TIP3   OH231620   6.209   5.781  12.304  0.2197  0.0925 -0.3372
 3402TIP3    H131621   6.118   5.754  12.309 -0.1904  1.6325  1.3546
 3402TIP3    H231622   6.236   5.793  12.395  1.2488  2.3309 -0.8816
 3403TIP3   OH231623   2.998   6.569   3.646  0.0897  0.7076 -0.3972
 3403TIP3    H131624   3.027   6.652   3.608 -0.9616  0.3805 -2.0201
 3403TIP3    H231625   2.933   6.595   3.712 -2.2752  1.1903 -2.7370
 3404TIP3   OH231626   4.580   2.565  14.904 -0.6596  0.1881  0.0607
 3404TIP3    H131627   4.561   2.473  14.885 -0.3647  0.0960  0.2204
 3404TIP3    H231628   4.630   2.563  14.985 -0.0221  0.4395 -0.3181
 3405TIP3   OH231629   1.749   0.593   5.799 -0.0418 -0.6892  0.0776
 3405TIP3    H131630   1.777   0.659   5.863 -2.1650 -1.1508  1.5852
 3405TIP3    H231631   1.722   0.518   5.852 -1.8437 -1.1115 -1.3385
 3406TIP3   OH231632   0.073   3.644   4.018  0.2053  0.3982  0.1118
 3406TIP3    H131633   0.160   3.660   3.981 -0.1572 -0.1628 -1.0614
 3406TIP3    H231634   0.087   3.640   4.112  1.2688  1.4045  0.0172
 3407TIP3   OH231635   1.616   5.012   2.755  0.2401  0.7153 -0.3808
 3407TIP3    H131636   1.683   4.954   2.718  0.5034  1.5222 -1.2257
 3407TIP3    H231637   1.571   5.049   2.678 -1.7074 -0.3853  0.1674
 3408TIP3   OH231638   3.548   2.982   1.937  0.3613  0.1559 -0.3035
 3408TIP3    H131639   3.487   3.027   1.995  0.1356 -0.1027 -0.3379
 3408TIP3    H231640   3.634   3.020   1.958  0.1484  0.7449 -0.4829
 3409TIP3   OH231641   1.103   1.626   2.968  0.1672  0.2549  0.2675
 3409TIP3    H131642   1.111   1.620   3.063 -1.0390  1.6000  0.4996
 3409TIP3    H231643   1.041   1.558   2.944  1.6433 -1.1187  0.2130
 3410TIP3   OH231644   5.958   5.936  15.092 -0.0019  0.1736 -0.0105
 3410TIP3    H131645   5.994   5.848  15.094 -0.9226 -0.3089 -1.8424
 3410TIP3    H231646   5.871   5.927  15.131  0.6983  0.7616  1.8031
 3411TIP3   OH231647   0.278   5.094  14.532  0.5587 -0.2385  0.4426
 3411TIP3    H131648   0.186   5.121  14.533  0.8406  0.8521 -0.5997
 3411TIP3    H231649   0.290   5.055  14.445  0.8783 -1.1974  0.9020
 3412TIP3   OH231650   6.559   6.100  13.846  0.7588 -0.4826  0.3345
 3412TIP3    H131651   6.484   6.040  13.849  0.1485  0.2535  3.0700
 3412TIP3    H231652   6.555   6.139  13.759 -2.4310 -0.0667  0.5384
 3413TIP3   OH231653   1.294   5.081  16.031  0.5239 -0.0706  0.6307
 3413TIP3    H131654   1.308   5.092  16.125  0.6919 -1.3990  0.7895
 3413TIP3    H231655   1.379   5.051  15.998  0.4720  0.4123  0.0469
 3414TIP3   OH231656   4.203   2.448   5.817 -0.7377 -0.3770  0.2065
 3414TIP3    H131657   4.279   2.450   5.759 -0.5169 -1.1622  0.4582
 3414TIP3    H231658   4.132   2.415   5.762 -0.8475  0.1227  0.0385
 3415TIP3   OH231659   2.490   3.425   0.998  0.3729  0.5260 -0.8075
 3415TIP3    H131660   2.514   3.434   0.906  1.3101  0.3187 -0.5931
 3415TIP3    H231661   2.479   3.514   1.030  1.2403  0.6428 -0.8227
 3416TIP3   OH231662   0.152   0.618   0.272 -0.2053 -0.1185  1.0059
 3416TIP3    H131663   0.168   0.617   0.177 -3.2497  1.2116  0.3639
 3416TIP3    H231664   0.219   0.677   0.306 -1.1269  2.1885 -0.8803
 3417TIP3   OH231665   3.696   5.317  15.509  0.7070  0.0094 -0.8811
 3417TIP3    H131666   3.620   5.260  15.518 -0.1384  0.7681 -2.8010
 3417TIP3    H231667   3.751   5.295  15.585 -0.9854 -1.1809  0.0704
 3418TIP3   OH231668   0.036   3.602   2.700 -0.1959 -0.8358 -0.0686
 3418TIP3    H131669  -0.020   3.648   2.763 -0.6833 -3.2808  1.4282
 3418TIP3    H231670  -0.002   3.622   2.615 -0.7860  0.9182  0.5633
 3419TIP3   OH231671   5.957   0.008  13.834 -0.2004  0.1148 -0.0524
 3419TIP3    H131672   6.045  -0.029  13.844 -0.1722 -0.0377 -0.7933
 3419TIP3    H231673   5.927   0.023  13.923  0.4733 -0.0881  0.2147
 3420TIP3   OH231674   4.808   5.278   4.402  0.3583  0.3457 -0.2372
 3420TIP3    H131675   4.748   5.296   4.475 -0.4512  0.7114 -0.9845
 3420TIP3    H231676   4.876   5.345   4.410 -0.2028  0.9318 -0.3295
 3421TIP3   OH231677   6.125   0.378  13.943 -0.0339 -0.7735 -0.2923
 3421TIP3    H131678   6.198   0.434  13.918  1.0595 -2.1239 -0.2682
 3421TIP3    H231679   6.066   0.380  13.868  1.0805 -1.3386 -1.2167
 3422TIP3   OH231680   2.555   5.024  12.800 -0.0103  0.5128 -0.0098
 3422TIP3    H131681   2.505   5.066  12.730  0.3416  0.4353 -0.3117
 3422TIP3    H231682   2.624   4.976  12.754  0.2948  0.5561  0.4013
 3423TIP3   OH231683   5.520   6.080  15.339 -0.4538  0.3147  0.6857
 3423TIP3    H131684   5.508   6.000  15.391  0.5004  0.2136  0.7824
 3423TIP3    H231685   5.471   6.065  15.259 -0.8394 -0.0861  0.9932
 3424TIP3   OH231686   2.121   4.638  10.843  0.4727  0.4250 -0.2151
 3424TIP3    H131687   2.026   4.627  10.845  0.4354  0.6953 -0.5275
 3424TIP3    H231688   2.155   4.549  10.829  0.2405  0.4298 -0.8248
 3425TIP3   OH231689   4.435   3.687  17.304 -0.6199  0.2013 -0.1436
 3425TIP3    H131690   4.494   3.762  17.309  0.7410 -0.9029  1.1018
 3425TIP3    H231691   4.431   3.654  17.394 -1.5715 -0.9387 -0.5801
 3426TIP3   OH231692   5.836   4.801   1.541 -0.1679  0.4043  0.2282
 3426TIP3    H131693   5.835   4.897   1.542  0.1417  0.4039  1.1779
 3426TIP3    H231694   5.929   4.778   1.538 -0.2467  0.1205 -0.3640
 3427TIP3   OH231695   0.219   0.396   4.681  0.2309  0.1343 -0.7626
 3427TIP3    H131696   0.183   0.318   4.638 -2.5504  0.0854  1.3217
 3427TIP3    H231697   0.194   0.469   4.625 -0.9050 -0.1481 -0.6414
 3428TIP3   OH231698   0.247   0.674  11.797 -0.1315  0.2606 -0.4820
 3428TIP3    H131699   0.167   0.640  11.837 -0.1791  0.0427 -0.7565
 3428TIP3    H231700   0.296   0.595  11.773  0.8576  0.3747  1.0253
 3429TIP3   OH231701   5.698   0.311   0.907  0.5927  0.1297  0.6359
 3429TIP3    H131702   5.613   0.355   0.903  0.0258 -0.7639  1.9447
 3429TIP3    H231703   5.733   0.334   0.993  1.0490 -0.5798  0.6525
 3430TIP3   OH231704   2.925   3.156   0.658 -0.4228  0.2860  0.7786
 3430TIP3    H131705   2.856   3.218   0.682 -1.7128 -0.0948 -1.6117
 3430TIP3    H231706   2.925   3.156   0.562  2.2586 -0.4841  0.6951
 3431TIP3   OH231707   6.028   0.907   2.718 -0.2575 -0.2550 -0.1616
 3431TIP3    H131708   5.960   0.865   2.665  0.2037  1.1746 -1.9820
 3431TIP3    H231709   5.984   0.929   2.800 -1.6215 -0.6018 -0.7647
 3432TIP3   OH231710   0.579   1.242  12.287 -0.4540 -0.2289  0.1585
 3432TIP3    H131711   0.527   1.184  12.343 -2.0284  0.6378 -0.3503
 3432TIP3    H231712   0.523   1.261  12.213 -0.2712  2.4428  0.5955
 3433TIP3   OH231713   2.828   6.735  15.782 -0.4385 -0.3656 -0.2582
 3433TIP3    H131714   2.878   6.811  15.812  1.2127 -0.5450 -2.2574
 3433TIP3    H231715   2.741   6.769  15.761 -0.5956  0.3719  1.4496
 3434TIP3   OH231716   2.172   3.734   0.359 -0.3024  0.2263  1.2922
 3434TIP3    H131717   2.266   3.713   0.356 -0.3046  0.3154  0.4575
 3434TIP3    H231718   2.166   3.822   0.321 -0.8614 -0.2794  0.1642
 3435TIP3   OH231719   0.671   2.942  15.741  0.1737  0.2905 -0.4905
 3435TIP3    H131720   0.754   2.923  15.785 -0.0608  2.0618  0.7816
 3435TIP3    H231721   0.623   2.859  15.744  2.0449 -0.9190 -1.7031
 3436TIP3   OH231722   2.657   1.995   6.689 -0.0408 -0.3292  0.9415
 3436TIP3    H131723   2.599   1.924   6.660 -0.0354 -0.1870  0.5800
 3436TIP3    H231724   2.725   1.951   6.739  0.8101 -0.7642 -0.5562
 3437TIP3   OH231725   2.650   2.851   0.768 -0.0258 -0.8412  0.2727
 3437TIP3    H131726   2.612   2.899   0.842  0.1992 -1.0438  0.5213
 3437TIP3    H231727   2.735   2.821   0.799  0.7747  0.4338 -0.6125
 3438TIP3   OH231728   6.051   5.396  13.540 -0.2560 -0.5232  0.0641
 3438TIP3    H131729   5.967   5.378  13.584 -0.1870  2.7436  1.8787
 3438TIP3    H231730   6.059   5.491  13.544  3.4137 -0.6945 -0.3342
 3439TIP3   OH231731   1.312   6.097  16.500 -0.2489 -0.4070 -0.2328
 3439TIP3    H131732   1.368   6.155  16.552 -0.6324  1.5432 -1.8229
 3439TIP3    H231733   1.356   6.013  16.501  0.7534  0.0837  1.5797
 3440TIP3   OH231734   1.374   2.889   4.856  0.1950  0.1165 -0.3659
 3440TIP3    H131735   1.449   2.947   4.867 -0.9612  1.7274 -0.6689
 3440TIP3    H231736   1.378   2.862   4.764  0.9999 -0.7036 -0.1060
 3441TIP3   OH231737   1.523   6.658  16.102 -0.0182 -0.2239  0.4791
 3441TIP3    H131738   1.453   6.723  16.106 -0.9325 -1.1302 -0.1444
 3441TIP3    H231739   1.528   6.622  16.190  0.8424  1.0178  0.9609
 3442TIP3   OH231740   3.729   5.408   2.461  0.3825 -0.3721 -0.2126
 3442TIP3    H131741   3.688   5.351   2.526 -0.5940  0.9678  0.3718
 3442TIP3    H231742   3.792   5.460   2.511 -0.8413  1.1323 -0.1961
 3443TIP3   OH231743   5.692   0.805   3.166 -0.2978  0.6757  0.6332
 3443TIP3    H131744   5.678   0.725   3.216 -0.6008  0.7342  0.6447
 3443TIP3    H231745   5.740   0.862   3.226 -0.9379  0.8625  0.9723
 3444TIP3   OH231746   0.036   3.508   1.666 -0.4222 -0.5736  0.3586
 3444TIP3    H131747   0.076   3.494   1.581  0.1094  0.4736  0.4193
 3444TIP3    H231748  -0.010   3.591   1.658  0.8918  0.3151  1.5120
 3445TIP3   OH231749   3.459   5.546  13.678  0.0043 -0.7028 -0.0132
 3445TIP3    H131750   3.395   5.536  13.749 -1.6742  0.2967 -1.3144
 3445TIP3    H231751   3.499   5.631  13.693  0.8475 -1.1943  0.6236
 3446TIP3   OH231752   6.282   0.668   5.924 -0.1611 -0.1990  0.2225
 3446TIP3    H131753   6.288   0.609   5.999  0.9961  0.2809  0.5267
 3446TIP3    H231754   6.358   0.647   5.870  2.0770  2.9274  1.8044
 3447TIP3   OH231755   5.105   3.978  13.841  0.1086 -0.5396 -0.2192
 3447TIP3    H131756   5.082   4.051  13.899 -0.4269  0.3486 -1.5088
 3447TIP3    H231757   5.199   3.989  13.825 -0.2555  0.7905 -1.6120
 3448TIP3   OH231758   2.988   0.206   2.383 -0.2805 -0.2667  0.0305
 3448TIP3    H131759   3.039   0.125   2.378  0.7564  0.4088 -0.6445
 3448TIP3    H231760   3.047   0.270   2.423 -1.0229  0.2168  0.3746
 3449TIP3   OH231761   2.890   5.985   2.650 -0.1490  0.2008 -0.0971
 3449TIP3    H131762   2.974   6.022   2.623  0.3398 -0.1437  0.9107
 3449TIP3    H231763   2.864   5.928   2.577 -0.2456  1.4353 -1.0596
 3450TIP3   OH231764   1.331   1.618   3.303  0.5400  0.0229 -0.6377
 3450TIP3    H131765   1.329   1.711   3.280  1.3340 -0.0497 -1.0411
 3450TIP3    H231766   1.392   1.579   3.241 -0.9428 -1.0731 -1.4722
 3451TIP3   OH231767   0.160   6.260   1.004 -0.3025 -0.1171  0.0737
 3451TIP3    H131768   0.129   6.217   1.084 -1.3355 -0.4244 -0.4758
 3451TIP3    H231769   0.208   6.337   1.036  2.2392 -1.9720  1.1310
 3452TIP3   OH231770   0.174   5.567  12.145  0.2901  0.5480 -0.2513
 3452TIP3    H131771   0.093   5.537  12.187  0.8484 -1.4791 -0.5177
 3452TIP3    H231772   0.163   5.543  12.053  0.8701  0.9719 -0.4343
 3453TIP3   OH231773   1.843   1.344  11.086 -0.1545  0.2267  0.1493
 3453TIP3    H131774   1.856   1.343  10.991 -2.8007  1.9620 -0.3246
 3453TIP3    H231775   1.848   1.436  11.110 -1.4786  0.0179  1.3567
 3454TIP3   OH231776   2.718   0.537  15.469  0.9240 -0.0481 -0.0248
 3454TIP3    H131777   2.728   0.452  15.425 -0.0631 -1.1032  1.6699
 3454TIP3    H231778   2.654   0.520  15.539  1.7072  1.7646  1.1958
 3455TIP3   OH231779   3.822   1.504   2.105 -0.0910  0.0733  0.2003
 3455TIP3    H131780   3.808   1.420   2.062  1.2389  0.2928 -0.6984
 3455TIP3    H231781   3.738   1.550   2.094  0.0502 -0.0644 -1.7771
 3456TIP3   OH231782   0.609   0.121  14.230  0.0263  0.1187  0.4082
 3456TIP3    H131783   0.569   0.208  14.224  0.7959  0.4185 -0.6404
 3456TIP3    H231784   0.569   0.081  14.308 -1.9088  0.6006 -0.2799
 3457TIP3   OH231785   6.516   1.500  15.978 -0.8401  0.1003 -0.4055
 3457TIP3    H131786   6.474   1.416  15.959 -1.5755  0.6861 -1.4864
 3457TIP3    H231787   6.444   1.557  16.005 -0.1331 -0.0335  1.9753
 3458TIP3   OH231788   2.704   1.000   3.610  0.1232  0.5082 -0.4689
 3458TIP3    H131789   2.662   1.045   3.684  1.6845  1.8318 -0.3392
 3458TIP3    H231790   2.680   1.053   3.534 -0.0691  0.1293 -0.6738
 3459TIP3   OH231791   6.534   3.032  14.442  0.5182  0.3121  0.2252
 3459TIP3    H131792   6.603   3.057  14.379  0.1361  2.0782  0.4572
 3459TIP3    H231793   6.495   3.115  14.468 -2.6481 -0.6701 -0.9300
 3460TIP3   OH231794   6.408   5.449  14.664  0.6067  0.0211 -0.0634
 3460TIP3    H131795   6.403   5.534  14.709  1.7303  0.2933 -0.4421
 3460TIP3    H231796   6.365   5.389  14.725  2.5954  0.2577  1.7057
 3461TIP3   OH231797   4.667   0.123   5.911 -0.3913  0.2619  0.4684
 3461TIP3    H131798   4.645   0.199   5.858 -0.5897  0.5461  0.9563
 3461TIP3    H231799   4.644   0.148   6.000  1.1512  0.2565  0.8837
 3462TIP3   OH231800   4.635   5.018   4.843  0.1635 -0.2392  0.1846
 3462TIP3    H131801   4.581   5.008   4.764  3.2987 -0.6393 -2.1015
 3462TIP3    H231802   4.575   4.998   4.915 -3.0913  0.9091 -1.9634
 3463TIP3   OH231803   0.143   5.164   3.223 -0.5225  0.1402  0.1947
 3463TIP3    H131804   0.236   5.143   3.230  0.1273  1.8137 -2.0324
 3463TIP3    H231805   0.110   5.104   3.156 -0.5469  0.7967 -0.4015
 3464TIP3   OH231806   5.780   4.969   2.889 -0.2073  0.2869  0.7704
 3464TIP3    H131807   5.691   4.942   2.864  0.2841  0.1851 -1.0145
 3464TIP3    H231808   5.768   5.018   2.970 -1.8416 -0.0691  0.7866
 3465TIP3   OH231809   3.741   6.669   6.457 -0.1250  0.0441 -0.4278
 3465TIP3    H131810   3.738   6.758   6.492 -2.8564  0.8526 -2.3933
 3465TIP3    H231811   3.753   6.614   6.534  1.3517  2.0267  0.8821
 3466TIP3   OH231812   5.997   5.848  14.597 -0.4357 -0.0777  0.3393
 3466TIP3    H131813   5.980   5.927  14.647 -2.6562 -0.8236  0.8631
 3466TIP3    H231814   6.013   5.780  14.662  2.6715  0.0676 -0.1043
 3467TIP3   OH231815   2.362   2.929   0.044  0.1665  0.3049  0.5495
 3467TIP3    H131816   2.348   2.987   0.119  0.5368  0.1104  0.7736
 3467TIP3    H231817   2.457   2.932   0.030  0.5752 -2.2158  2.1787
 3468TIP3   OH231818   5.829   2.471   3.664  0.3858  0.2800  0.0116
 3468TIP3    H131819   5.860   2.454   3.575 -3.0930  1.7641 -1.6911
 3468TIP3    H231820   5.890   2.537   3.698  0.9204  0.8206 -1.8651
 3469TIP3   OH231821   5.743   5.056  16.118  0.2459 -0.0293  0.2621
 3469TIP3    H131822   5.709   5.038  16.205  0.6586  0.5625  0.5533
 3469TIP3    H231823   5.686   5.125  16.084  0.6116  0.3541  0.4121
 3470TIP3   OH231824   3.486   5.565  14.574  0.9681 -0.1792  0.1631
 3470TIP3    H131825   3.543   5.501  14.617  0.2409 -0.2663  1.0023
 3470TIP3    H231826   3.397   5.539  14.598  0.6543  1.0965  0.4528
 3471TIP3   OH231827   6.725   6.199   5.438  0.2233  0.0441 -0.1846
 3471TIP3    H131828   6.745   6.133   5.372  3.7533  1.1920 -0.4749
 3471TIP3    H231829   6.672   6.154   5.503 -1.7562 -1.6317 -2.7987
 3472TIP3   OH231830   6.205   5.926   5.431 -0.4286 -0.4308  0.1658
 3472TIP3    H131831   6.170   5.837   5.436  2.6177 -1.8904 -1.5770
 3472TIP3    H231832   6.181   5.957   5.343 -0.3861 -0.0221  0.2944
 3473TIP3   OH231833   0.941   5.250   4.505  0.6048  0.3669 -0.7494
 3473TIP3    H131834   0.995   5.180   4.468  0.0045 -0.5856  0.1416
 3473TIP3    H231835   0.935   5.230   4.598 -2.8060 -0.6214 -1.0503
 3474TIP3   OH231836   3.167   4.206  14.907 -0.6694  0.3961 -0.2748
 3474TIP3    H131837   3.155   4.216  15.002  0.4330  2.1026 -0.2591
 3474TIP3    H231838   3.085   4.169  14.876 -1.2406  0.2755  1.2868
 3475TIP3   OH231839   6.324   5.749  11.716 -0.2411  0.6078  0.1689
 3475TIP3    H131840   6.321   5.788  11.628  2.8356  0.7363  0.0044
 3475TIP3    H231841   6.393   5.683  11.711 -1.2488 -0.6748  2.0544
 3476TIP3   OH231842   0.107   1.190  16.129 -0.0068 -0.2706 -0.1915
 3476TIP3    H131843   0.035   1.127  16.129  0.3036 -0.6632  1.6265
 3476TIP3    H231844   0.065   1.274  16.111 -1.0627 -0.3936  1.4741
 3477TIP3   OH231845   3.959   1.891  10.793  0.2127  0.1581 -0.2213
 3477TIP3    H131846   3.897   1.819  10.783 -0.7721  1.1298 -1.5286
 3477TIP3    H231847   3.991   1.908  10.704  2.7279 -0.5815  0.4547
 3478TIP3   OH231848   6.388   1.794   4.007  0.0996  0.0070 -0.1489
 3478TIP3    H131849   6.421   1.882   3.989  1.2334 -0.5386 -0.8038
 3478TIP3    H231850   6.451   1.736   3.965 -1.0398 -1.1057 -0.3588
 3479TIP3   OH231851   3.379   0.352  13.850 -0.5641  0.1446 -0.1624
 3479TIP3    H131852   3.320   0.423  13.825 -1.4626 -0.3935  0.3879
 3479TIP3    H231853   3.419   0.382  13.932 -1.2484 -0.1438  0.2850
 3480TIP3   OH231854   5.514   2.755  12.000 -0.0758  0.4014 -0.3375
 3480TIP3    H131855   5.580   2.771  12.067 -0.1892  0.9819 -0.3625
 3480TIP3    H231856   5.546   2.677  11.954  1.3991  1.5106 -1.3130
 3481TIP3   OH231857   2.145   3.973   3.242  0.0561 -0.0795  0.2157
 3481TIP3    H131858   2.092   4.029   3.299 -2.7370 -1.5188 -0.7577
 3481TIP3    H231859   2.118   3.998   3.153  1.9063 -0.1235 -0.4014
 3482TIP3   OH231860   3.458   1.885  12.642  0.5945  0.4696  0.1686
 3482TIP3    H131861   3.535   1.884  12.585 -0.2352 -0.4310 -0.9967
 3482TIP3    H231862   3.402   1.954  12.606  0.1150 -0.0240 -0.0409
 3483TIP3   OH231863   6.476   2.816   2.799  0.2800 -0.2924 -0.3857
 3483TIP3    H131864   6.495   2.737   2.849  0.6204 -0.7260 -1.1799
 3483TIP3    H231865   6.557   2.835   2.752  0.0300  0.2173 -0.6173
 3484TIP3   OH231866   3.010   0.017  17.305 -0.3942 -0.9808  0.1656
 3484TIP3    H131867   2.959   0.097  17.313 -0.1285 -0.6846 -0.9348
 3484TIP3    H231868   2.960  -0.038  17.245  0.4857 -0.7329 -0.8386
 3485TIP3   OH231869   1.503   0.694  13.321  0.3871 -0.3992  0.2474
 3485TIP3    H131870   1.466   0.764  13.267  1.0071 -0.3233 -0.0958
 3485TIP3    H231871   1.441   0.683  13.392 -0.3893 -0.4144 -0.4224
 3486TIP3   OH231872   2.922   0.409  11.738  0.1435 -0.0072 -0.0074
 3486TIP3    H131873   2.987   0.415  11.668 -1.3290 -0.9577 -1.5262
 3486TIP3    H231874   2.956   0.341  11.796  1.6877  1.2221  0.6099
 3487TIP3   OH231875   5.939   0.764  11.671 -0.6129  0.4463  0.3047
 3487TIP3    H131876   5.852   0.725  11.678 -0.6671  0.6228  0.6357
 3487TIP3    H231877   5.963   0.754  11.579 -0.5522 -0.5361  0.4103
 3488TIP3   OH231878   4.580   3.423   4.176 -0.4607  0.6140 -0.0682
 3488TIP3    H131879   4.612   3.418   4.086 -1.0462 -1.9084 -0.2112
 3488TIP3    H231880   4.520   3.498   4.176 -0.3388  0.7511 -1.7411
 3489TIP3   OH231881   1.487   5.758   0.362 -0.0790  0.1953  0.5465
 3489TIP3    H131882   1.517   5.843   0.332 -0.5031 -0.0142 -0.5020
 3489TIP3    H231883   1.560   5.724   0.414 -0.6014  1.9674  2.5924
 3490TIP3   OH231884   1.246   1.938  15.260 -0.1340 -0.1602 -0.5838
 3490TIP3    H131885   1.326   1.909  15.216 -0.3540 -1.1078 -0.3720
 3490TIP3    H231886   1.250   2.033  15.256  2.4006 -0.0427  1.8782
 3491TIP3   OH231887   1.458   6.118  11.906 -0.2767 -0.1934 -0.0760
 3491TIP3    H131888   1.454   6.161  11.991 -0.7631 -1.0484  0.3510
 3491TIP3    H231889   1.548   6.131  11.877 -0.6430  1.8663 -0.3861
 3492TIP3   OH231890   2.587   0.659  15.757 -0.0380 -0.0030 -0.1745
 3492TIP3    H131891   2.497   0.690  15.770 -1.1947 -1.6546 -3.1525
 3492TIP3    H231892   2.637   0.738  15.736 -1.8724  0.5950 -2.9322
 3493TIP3   OH231893   4.139   2.863   6.086  0.5454 -0.3113 -0.4195
 3493TIP3    H131894   4.204   2.895   6.024 -0.5671  1.1411 -0.9118
 3493TIP3    H231895   4.152   2.916   6.164 -0.2091  0.1884 -0.6228
 3494TIP3   OH231896   5.027   3.844  12.261  0.1032 -0.1157  0.6364
 3494TIP3    H131897   5.022   3.864  12.355 -0.2791  0.4112  0.5107
 3494TIP3    H231898   5.097   3.901  12.229  2.8131 -2.8837  1.2312
 3495TIP3   OH231899   3.232   3.978   2.755  0.1072  0.3281  0.1970
 3495TIP3    H131900   3.205   3.981   2.663  1.3679 -0.2831 -0.2070
 3495TIP3    H231901   3.325   3.998   2.753 -0.0777  1.4578  1.4756
 3496TIP3   OH231902   1.517   0.293  11.875  0.6656  0.5792 -0.1723
 3496TIP3    H131903   1.468   0.248  11.945  0.9061 -1.7866 -1.4126
 3496TIP3    H231904   1.580   0.348  11.921  0.3506 -0.3783  1.4791
 3497TIP3   OH231905   3.650   1.883   1.862 -0.0131  0.8656 -0.3543
 3497TIP3    H131906   3.700   1.861   1.784  0.1807 -0.1692  0.0504
 3497TIP3    H231907   3.668   1.976   1.877  0.9300  0.7659 -0.8256
 3498TIP3   OH231908   2.295   4.920   2.876  0.4567 -0.1664  0.1088
 3498TIP3    H131909   2.211   4.875   2.864  0.2054  0.4768 -0.6153
 3498TIP3    H231910   2.350   4.855   2.919 -0.6486 -0.3345  1.3488
 3499TIP3   OH231911   4.161   5.940  12.365 -0.1494  0.1719  0.3552
 3499TIP3    H131912   4.128   5.965  12.452  0.5199  1.1288  0.3502
 3499TIP3    H231913   4.144   5.846  12.359 -0.0644  0.0596  1.5872
 3500TIP3   OH231914   4.367   2.751  15.052  0.8101 -0.2129 -0.2359
 3500TIP3    H131915   4.355   2.821  14.987  1.1187  0.1027  0.0401
 3500TIP3    H231916   4.286   2.701  15.049 -0.5239  1.6940  1.4283
 3501TIP3   OH231917   3.437   1.884  14.767  0.0418  0.3979  0.2136
 3501TIP3    H131918   3.447   1.791  14.786  1.5903  0.5880  0.5211
 3501TIP3    H231919   3.470   1.893  14.677 -2.4278  0.2945 -0.7605
 3502TIP3   OH231920   3.995   1.407   1.750 -0.6344  0.8861  0.4597
 3502TIP3    H131921   4.045   1.457   1.686 -1.5542 -0.6748 -1.5898
 3502TIP3    H231922   4.061   1.369   1.808  0.2859  1.6604 -0.0540
 3503TIP3   OH231923   2.887   4.107  16.353 -0.2278  0.1589  0.0315
 3503TIP3    H131924   2.831   4.178  16.384 -0.8926 -0.0223 -0.7242
 3503TIP3    H231925   2.944   4.088  16.427  0.0347  1.5420  0.2114
 3504TIP3   OH231926   4.195   4.260   2.594  0.0259 -0.4032  0.0929
 3504TIP3    H131927   4.218   4.179   2.640  1.9887 -0.1088 -0.2713
 3504TIP3    H231928   4.267   4.319   2.612 -0.8508  0.9113 -0.5527
 3505TIP3   OH231929   6.253   4.322   3.451  0.5000  0.6268 -0.0071
 3505TIP3    H131930   6.204   4.394   3.414 -2.0721 -0.1594  1.6415
 3505TIP3    H231931   6.285   4.355   3.535 -1.0657 -0.2390  0.9564
 3506TIP3   OH231932   0.925   4.000  14.790 -0.0816 -0.2146  0.0930
 3506TIP3    H131933   1.011   3.964  14.769 -0.3567  0.6876 -3.0975
 3506TIP3    H231934   0.940   4.094  14.800 -0.6078 -0.1368  0.1702
 3507TIP3   OH231935   0.459   4.449  15.040  0.8512 -0.3645  0.4216
 3507TIP3    H131936   0.485   4.538  15.060 -1.9781  0.8270 -0.6422
 3507TIP3    H231937   0.445   4.407  15.125 -2.2607  1.7447  1.1035
 3508TIP3   OH231938   5.238   4.970   3.027  0.4602  0.0749  0.1477
 3508TIP3    H131939   5.270   5.034   2.963 -0.9721  0.4569 -0.2095
 3508TIP3    H231940   5.312   4.910   3.040  1.2326  0.7896 -0.8257
 3509TIP3   OH231941   2.747   3.162  16.994  0.1223 -0.2998  0.4595
 3509TIP3    H131942   2.726   3.116  17.075  1.3718  0.2845  1.1574
 3509TIP3    H231943   2.817   3.109  16.954  0.3405  0.0435  0.3786
 3510TIP3   OH231944   6.307   0.266   5.058 -0.7396 -0.3884  0.2231
 3510TIP3    H131945   6.217   0.261   5.024 -0.4463 -0.7721 -0.5064
 3510TIP3    H231946   6.357   0.307   4.988 -0.9603  3.1420  1.9111
 3511TIP3   OH231947   0.484   1.107  15.405 -0.2832  0.1005 -0.8360
 3511TIP3    H131948   0.411   1.058  15.370  0.0230 -2.0099  1.2667
 3511TIP3    H231949   0.451   1.145  15.487  0.5948  0.2231 -0.5269
 3512TIP3   OH231950   5.369   4.156   4.024 -0.0064 -0.7955 -0.9663
 3512TIP3    H131951   5.322   4.236   4.049 -1.1737 -0.4023 -3.9896
 3512TIP3    H231952   5.461   4.180   4.030 -0.3227  0.4849 -0.9129
 3513TIP3   OH231953   3.846   1.073   1.388 -1.2110 -0.7013  0.3867
 3513TIP3    H131954   3.876   1.151   1.341  2.5154 -0.8406  2.1801
 3513TIP3    H231955   3.792   1.107   1.459  0.2237  0.2889  1.0376
 3514TIP3   OH231956   5.394   3.244   4.116 -0.4164  0.2491 -0.0705
 3514TIP3    H131957   5.486   3.219   4.108 -0.3243  0.7236 -0.5561
 3514TIP3    H231958   5.349   3.162   4.138  0.1916  0.1263  0.7811
 3515TIP3   OH231959   4.777   1.100   3.395 -0.3456 -0.1837  0.2672
 3515TIP3    H131960   4.786   1.027   3.457 -1.1639 -0.4874  0.0289
 3515TIP3    H231961   4.864   1.140   3.393  0.3356 -1.6309 -0.2021
 3516TIP3   OH231962   1.122   3.009  14.323 -0.6692 -0.3648 -0.6724
 3516TIP3    H131963   1.197   3.064  14.343 -1.2733  0.1767  0.1755
 3516TIP3    H231964   1.108   2.957  14.403 -2.2975  0.8558 -0.1168
 3517TIP3   OH231965   4.365   2.313   3.479 -0.1102 -0.1969 -0.0370
 3517TIP3    H131966   4.403   2.267   3.405 -0.6746  0.4215 -0.7278
 3517TIP3    H231967   4.282   2.268   3.497  0.0230 -0.3437  0.2197
 3518TIP3   OH231968   4.763   1.960   2.786  0.2397  0.3525 -0.5404
 3518TIP3    H131969   4.825   1.942   2.856  0.6613  0.3196 -0.9190
 3518TIP3    H231970   4.682   1.984   2.832 -0.1549 -1.7754 -0.0277
 3519TIP3   OH231971   6.679   4.571   0.696 -0.1399 -0.0431  0.3896
 3519TIP3    H131972   6.648   4.638   0.757  0.9483 -0.8894  1.9752
 3519TIP3    H231973   6.774   4.573   0.705  0.0276 -0.4651 -1.0408
 3520TIP3   OH231974   6.038   0.914  11.911 -0.0927  0.0047 -0.2015
 3520TIP3    H131975   6.012   0.870  11.830 -0.0311  0.3752 -0.4255
 3520TIP3    H231976   6.002   1.002  11.903 -0.0072  0.0698  0.1323
 3521TIP3   OH231977   2.950   5.252  13.991  0.5323  0.3977 -0.5402
 3521TIP3    H131978   2.900   5.284  14.065 -0.8006  2.1966 -2.1213
 3521TIP3    H231979   2.927   5.160  13.984  0.8252  0.1400  1.3192
 3522TIP3   OH231980   6.259   4.375  11.951 -0.0987 -0.0551  0.0630
 3522TIP3    H131981   6.309   4.308  11.997  0.4048  0.1817 -0.1401
 3522TIP3    H231982   6.169   4.342  11.953 -0.2443  0.3094  1.9007
 3523TIP3   OH231983   5.039   1.924  12.874 -0.0624 -0.0840  0.4589
 3523TIP3    H131984   5.044   1.942  12.968 -0.4286  0.0824  0.4494
 3523TIP3    H231985   5.128   1.901  12.849  0.1735  0.5341  0.7135
 3524TIP3   OH231986   4.230   0.319   3.140  0.3447 -0.2553 -0.1904
 3524TIP3    H131987   4.267   0.407   3.128 -0.3873  0.1204  0.2210
 3524TIP3    H231988   4.216   0.286   3.051  1.4383 -0.3122 -0.3492
 3525TIP3   OH231989   3.176   1.902   1.941  0.2210  0.5207 -0.2771
 3525TIP3    H131990   3.117   1.974   1.920 -0.5029  0.2594  0.8111
 3525TIP3    H231991   3.162   1.838   1.871 -0.8771  0.4175  0.0222
 3526TIP3   OH231992   0.273   0.891   3.920 -0.2911  0.3081 -0.3679
 3526TIP3    H131993   0.337   0.951   3.880 -0.8962  0.9794 -0.3428
 3526TIP3    H231994   0.194   0.901   3.867 -1.1222  1.2519  0.9928
 3527TIP3   OH231995   4.609   4.839  16.043 -0.9934  0.6100  0.1160
 3527TIP3    H131996   4.607   4.747  16.017 -0.8457 -0.3532  3.1585
 3527TIP3    H231997   4.523   4.855  16.081 -1.9205  2.5221 -2.4979
 3528TIP3   OH231998   3.154   3.553   5.329 -0.6083  0.2084 -0.1047
 3528TIP3    H131999   3.231   3.598   5.363 -0.0459 -0.2559 -0.7586
 3528TIP3    H232000   3.160   3.464   5.363  0.0051 -0.2905 -1.4243
 3529TIP3   OH232001   3.999   3.389  15.136 -0.1458  0.0402 -0.4077
 3529TIP3    H132002   4.017   3.419  15.225 -1.6783 -1.7821  0.6006
 3529TIP3    H232003   4.081   3.351  15.106 -0.2198 -1.5949  1.2555
 3530TIP3   OH232004   3.676   3.440  11.453 -0.7134  0.3454 -0.8264
 3530TIP3    H132005   3.693   3.446  11.547  1.1608  1.5725 -1.1753
 3530TIP3    H232006   3.649   3.350  11.438 -0.9235  0.1101  0.8772
 3531TIP3   OH232007   3.290   3.442  11.083 -0.0152 -0.0782 -0.6198
 3531TIP3    H132008   3.286   3.355  11.122  1.2943 -0.3381 -1.0245
 3531TIP3    H232009   3.348   3.492  11.141  0.3890  0.0999 -1.1673
 3532TIP3   OH232010   5.537   6.350   3.643 -0.0735 -0.0960 -0.0410
 3532TIP3    H132011   5.511   6.340   3.735 -0.2791  0.0963 -0.0780
 3532TIP3    H232012   5.527   6.443   3.625  0.3170 -0.0758 -0.1562
 3533TIP3   OH232013   6.445   1.401  14.381 -0.3037  0.3014  0.6391
 3533TIP3    H132014   6.408   1.324  14.424  0.3793  0.1809  1.0171
 3533TIP3    H232015   6.389   1.473  14.411  0.5425  0.3239  2.2834
 3534TIP3   OH232016   2.452   5.084  11.828 -0.0573 -0.1438 -0.0045
 3534TIP3    H132017   2.403   5.031  11.891  0.3904 -0.0575  0.4224
 3534TIP3    H232018   2.387   5.115  11.766 -0.6263  0.3786  0.8354
 3535TIP3   OH232019   6.718   1.940   2.706  0.0252  0.0309 -0.3298
 3535TIP3    H132020   6.754   1.874   2.648 -1.3634 -1.3486  0.3245
 3535TIP3    H232021   6.671   2.001   2.648 -0.9592 -1.0724 -0.7238
 3536TIP3   OH232022   1.091   4.767   2.261  0.6683  0.4401 -0.0080
 3536TIP3    H132023   1.031   4.841   2.247  0.8334  0.8562  1.3002
 3536TIP3    H232024   1.173   4.808   2.289  1.6420 -0.1222 -1.8796
 3537TIP3   OH232025   0.260   4.676  11.774  0.0542  0.3489 -0.0573
 3537TIP3    H132026   0.353   4.665  11.754  0.2386  1.7476 -0.0464
 3537TIP3    H232027   0.217   4.603  11.729  1.2369 -0.8518  0.6936
 3538TIP3   OH232028   2.802   0.109  16.879  0.0005 -0.2356 -0.1097
 3538TIP3    H132029   2.823   0.151  16.796  0.0340 -1.7582 -0.8935
 3538TIP3    H232030   2.737   0.167  16.920  0.6787  1.0083 -0.7472
 3539TIP3   OH232031   3.366   2.419  14.116  0.1380 -0.6534 -0.3183
 3539TIP3    H132032   3.440   2.437  14.057  0.3827  1.2197  0.4843
 3539TIP3    H232033   3.289   2.448  14.067  0.4432  2.0189  0.6020
 3540TIP3   OH232034   5.403   4.406   6.068 -0.6987 -0.4111  0.0550
 3540TIP3    H132035   5.414   4.458   6.148  2.1315  1.2040 -1.2473
 3540TIP3    H232036   5.336   4.453   6.018 -1.0501 -0.3053  0.6236
 3541TIP3   OH232037   2.188   1.836   2.570  0.3428  0.2288 -0.1740
 3541TIP3    H132038   2.227   1.910   2.523  0.4197  1.4581  1.7177
 3541TIP3    H232039   2.109   1.815   2.521  0.9323  0.7941 -1.4052
 3542TIP3   OH232040   1.184   0.360  13.890  0.0306  0.0751  0.6546
 3542TIP3    H132041   1.251   0.427  13.874 -1.2495  1.3223  0.3171
 3542TIP3    H232042   1.167   0.365  13.984 -1.2537  1.4551  0.3890
 3543TIP3   OH232043   1.133   4.642  11.881 -0.0280 -0.2925  0.6226
 3543TIP3    H132044   1.103   4.671  11.968 -2.6017 -1.0680  0.0676
 3543TIP3    H232045   1.056   4.603  11.841  1.7622 -2.3807 -1.0311
 3544TIP3   OH232046   6.655   3.255   0.921  0.6078 -0.2971  0.2247
 3544TIP3    H132047   6.602   3.331   0.899 -0.1540 -1.1313 -0.9645
 3544TIP3    H232048   6.616   3.183   0.870  1.6771 -1.3479  0.8356
 3545TIP3   OH232049   3.931   4.379  14.038 -0.3033  0.0080  0.4832
 3545TIP3    H132050   4.011   4.413  13.998 -0.6228  1.7949  1.2694
 3545TIP3    H232051   3.871   4.366  13.965 -0.0250  0.7885  0.1061
 3546TIP3   OH232052   3.591   4.871  13.968 -0.4936  0.5770  0.1444
 3546TIP3    H132053   3.508   4.866  13.921 -1.6843  3.1073  1.7651
 3546TIP3    H232054   3.627   4.957  13.945  0.8067  0.2526  0.8600
 3547TIP3   OH232055   1.409   4.817   5.364 -0.1118  0.0688  0.2654
 3547TIP3    H132056   1.468   4.813   5.439 -0.5269 -0.6683  0.5601
 3547TIP3    H232057   1.441   4.892   5.313  1.6582 -0.8656 -0.0678
 3548TIP3   OH232058   0.433   6.475   1.877  0.4338 -0.4674  0.1890
 3548TIP3    H132059   0.517   6.520   1.868 -0.5126  1.5713  1.0612
 3548TIP3    H232060   0.449   6.407   1.943  1.3343  0.1006  0.5699
 3549TIP3   OH232061   0.776   6.238   0.413  0.1034 -0.2964  0.6984
 3549TIP3    H132062   0.767   6.327   0.446 -2.4995  0.4862 -1.7556
 3549TIP3    H232063   0.850   6.242   0.353 -0.6751  0.5691 -0.2453
 3550TIP3   OH232064   2.332   1.553   4.669 -0.3625 -0.5304  0.6129
 3550TIP3    H132065   2.308   1.461   4.672  1.7702 -1.4852 -3.6019
 3550TIP3    H232066   2.411   1.560   4.723  1.8007 -2.2920 -2.0375
 3551TIP3   OH232067   2.033   2.363   1.449 -0.3712 -0.3196 -0.3990
 3551TIP3    H132068   2.080   2.348   1.530 -0.1124  0.1477 -0.4576
 3551TIP3    H232069   1.978   2.285   1.437 -0.4172 -0.3812  0.2243
 3552TIP3   OH232070   4.863   0.995   3.647 -0.0914 -0.1352  0.0964
 3552TIP3    H132071   4.890   0.913   3.688  1.8564  0.0307 -0.7517
 3552TIP3    H232072   4.855   1.057   3.720  2.6907 -0.0138  0.3911
 3553TIP3   OH232073   4.349   0.784  16.151 -0.4490  0.3466  0.6079
 3553TIP3    H132074   4.298   0.857  16.186 -2.2680 -0.1755 -0.7924
 3553TIP3    H232075   4.284   0.718  16.129  1.0048 -1.0059  0.2130
 3554TIP3   OH232076   1.049   4.775  13.816 -0.2804  0.1517  0.6753
 3554TIP3    H132077   0.974   4.759  13.759  0.8365 -1.4562 -0.4378
 3554TIP3    H232078   1.025   4.736  13.900 -0.7538 -0.1983  0.3801
 3555TIP3   OH232079   5.220   1.524   3.656  0.4279 -0.5492 -0.4278
 3555TIP3    H132080   5.230   1.467   3.732  0.1724  0.8924  0.7300
 3555TIP3    H232081   5.126   1.525   3.639  0.2473  0.6374  0.4869
 3556TIP3   OH232082   3.363   5.147   2.664 -0.0405  0.2951 -0.1971
 3556TIP3    H132083   3.277   5.106   2.675 -0.9504  2.1174 -0.0610
 3556TIP3    H232084   3.398   5.106   2.585 -1.7487  0.5984 -1.1809
 3557TIP3   OH232085   2.271   5.119   5.661 -0.1154  0.1695  0.6444
 3557TIP3    H132086   2.246   5.031   5.689 -2.4919  0.2511 -0.9676
 3557TIP3    H232087   2.331   5.105   5.588 -0.3447 -0.1223  0.5094
 3558TIP3   OH232088   1.979   2.767  13.592  0.1039  0.3215  0.4836
 3558TIP3    H132089   1.987   2.853  13.633  1.9413  1.0331 -1.2218
 3558TIP3    H232090   1.906   2.776  13.531 -1.0403 -0.0084  1.7410
 3559TIP3   OH232091   5.763   5.940  13.339  0.6721  0.4730  0.4909
 3559TIP3    H132092   5.816   6.017  13.320  0.0929  1.4247  2.4108
 3559TIP3    H232093   5.703   5.969  13.408 -1.2454 -1.0125 -0.4511
 3560TIP3   OH232094   0.004   0.108   4.896 -0.3870 -0.0690  0.1841
 3560TIP3    H132095  -0.079   0.071   4.927 -0.7055  0.9588  0.6277
 3560TIP3    H232096   0.054   0.124   4.976  0.5992 -1.4651 -0.1356
 3561TIP3   OH232097   4.810   0.381   3.100 -0.4645 -0.1325 -0.5392
 3561TIP3    H132098   4.902   0.402   3.112  0.0064 -2.3317  0.2037
 3561TIP3    H232099   4.763   0.454   3.141  0.9393  0.8804 -0.6823
 3562TIP3   OH232100   5.642   0.055  12.533  0.5876 -0.8114 -0.0434
 3562TIP3    H132101   5.549   0.031  12.538  0.6059 -0.9800 -0.5041
 3562TIP3    H232102   5.687  -0.027  12.512  0.5792 -0.2904 -2.3477
 3563TIP3   OH232103   4.571   6.197  14.741  0.0464 -0.7500 -0.5560
 3563TIP3    H132104   4.525   6.113  14.739 -0.8913 -0.3204  1.1093
 3563TIP3    H232105   4.507   6.258  14.778  1.3954  0.2386  0.2339
 3564TIP3   OH232106   5.773   6.523  14.915  0.1108 -0.4346  0.1986
 3564TIP3    H132107   5.782   6.442  14.965 -0.0727 -1.0218 -0.6902
 3564TIP3    H232108   5.761   6.494  14.825  0.0572  0.5896 -0.1363
 3565TIP3   OH232109   2.370   4.224  15.807 -0.3102 -0.2406  0.0953
 3565TIP3    H132110   2.452   4.177  15.795  1.1636  2.0677  0.5921
 3565TIP3    H232111   2.313   4.161  15.852  1.4351 -1.6517  0.4519
 3566TIP3   OH232112   0.246   3.056  17.141  0.1247 -0.2454  0.0287
 3566TIP3    H132113   0.178   3.041  17.207  0.4222  2.2394  1.0134
 3566TIP3    H232114   0.328   3.054  17.190  0.5091 -0.2705 -0.6111
 3567TIP3   OH232115   1.920   1.286   4.726  0.1997  0.4719  0.0852
 3567TIP3    H132116   1.888   1.247   4.807  2.2435  0.0457  0.7500
 3567TIP3    H232117   1.893   1.225   4.657  1.0323 -0.7571  0.8082
 3568TIP3   OH232118   1.979   4.485  13.709  0.0641 -0.2173  0.5943
 3568TIP3    H132119   1.977   4.486  13.613 -1.8906 -0.5542  0.5752
 3568TIP3    H232120   1.961   4.576  13.734  1.4962  0.0638  0.6774
 3569TIP3   OH232121   3.684   2.890  15.236 -0.0763 -0.1009 -0.0951
 3569TIP3    H132122   3.701   2.970  15.284  0.4610 -1.6630  2.5286
 3569TIP3    H232123   3.770   2.850  15.223 -0.4695 -1.1956  0.4782
 3570TIP3   OH232124   0.563   3.288  16.088  0.7292  0.2035 -0.0820
 3570TIP3    H132125   0.519   3.208  16.115  1.6930 -0.6744 -1.0039
 3570TIP3    H232126   0.612   3.263  16.010  2.7371  1.1437  0.8072
 3571TIP3   OH232127   4.468   1.372  17.302  0.2105  0.1241  0.9714
 3571TIP3    H132128   4.418   1.372  17.221 -0.2927 -0.3193  1.2820
 3571TIP3    H232129   4.530   1.299  17.293  1.0149  0.8444  0.4701
 3572TIP3   OH232130   0.482   3.648   4.669 -0.0824 -0.1660  0.6477
 3572TIP3    H132131   0.529   3.687   4.595 -0.0464  1.8242  1.6408
 3572TIP3    H232132   0.390   3.647   4.641 -0.0121  0.1551  0.3946
 3573TIP3   OH232133   4.587   5.253  16.714 -0.5692  0.1832 -0.2180
 3573TIP3    H132134   4.496   5.229  16.732 -0.2780  0.0221  1.1782
 3573TIP3    H232135   4.636   5.172  16.729 -0.2325  0.1530 -1.4057
 3574TIP3   OH232136   3.862   2.038  14.958 -0.1649  0.6232 -0.5083
 3574TIP3    H132137   3.797   2.105  14.941  0.9782  1.4374 -1.9305
 3574TIP3    H232138   3.869   1.989  14.876  1.5966  1.1211 -0.7057
 3575TIP3   OH232139   5.928   2.319   4.030  0.1098  0.2640  0.0115
 3575TIP3    H132140   5.836   2.313   4.055 -0.0738  1.3287 -0.3710
 3575TIP3    H232141   5.972   2.252   4.083 -0.8012  0.1103  0.5826
 3576TIP3   OH232142   5.074   0.814   5.287  0.2406 -0.8569  0.2290
 3576TIP3    H132143   5.038   0.726   5.274 -1.7442 -0.0814  0.1490
 3576TIP3    H232144   5.058   0.859   5.205 -0.8413  0.2339  1.0004
 3577TIP3   OH232145   4.691   3.318   1.867 -0.1335  0.0599 -0.4224
 3577TIP3    H132146   4.605   3.276   1.872 -1.1699  2.1398  0.8404
 3577TIP3    H232147   4.725   3.291   1.782 -2.6140  0.1526 -1.5590
 3578TIP3   OH232148   3.754   3.712  14.792  0.3187  0.0967  0.4259
 3578TIP3    H132149   3.809   3.645  14.753  0.7667  1.2912 -1.1178
 3578TIP3    H232150   3.802   3.741  14.870  1.2752  0.2291 -0.1904
 3579TIP3   OH232151   5.186   0.278   4.853  0.2691 -0.5354  0.0916
 3579TIP3    H132152   5.176   0.327   4.772  1.3058  0.2645  0.4170
 3579TIP3    H232153   5.118   0.210   4.849  0.2592 -0.4728 -1.3928
 3580TIP3   OH232154   6.679   3.229   0.281  0.2285 -0.0992 -0.1792
 3580TIP3    H132155   6.685   3.321   0.308  1.5601  0.1239 -1.1284
 3580TIP3    H232156   6.632   3.186   0.353  0.0846  1.2054  0.5464
 3581TIP3   OH232157   4.619   2.488   5.186 -0.2196 -0.2972  0.5322
 3581TIP3    H132158   4.555   2.422   5.215  0.4263 -1.2247 -0.0898
 3581TIP3    H232159   4.662   2.447   5.111 -0.0205  0.9786 -0.0693
 3582TIP3   OH232160   1.988   6.095  16.588 -0.4799  0.1302 -0.2253
 3582TIP3    H132161   1.960   6.115  16.498 -0.4998  2.3263  0.2006
 3582TIP3    H232162   1.911   6.057  16.629 -0.9608  0.5260 -0.7361
 3583TIP3   OH232163   4.687   3.498   5.936  0.3315  0.2533  0.4361
 3583TIP3    H132164   4.647   3.527   6.018  0.2972  0.2929  0.4054
 3583TIP3    H232165   4.780   3.520   5.946  0.2497  0.6646  0.2829
 3584TIP3   OH232166   5.103   3.155  16.692  0.2672 -0.3180  0.0392
 3584TIP3    H132167   5.158   3.209  16.749  0.1630  0.4368 -0.5612
 3584TIP3    H232168   5.155   3.076  16.677  2.1864  1.2492 -2.2410
 3585TIP3   OH232169   5.870   5.677   1.844  0.0701  0.3652  0.2468
 3585TIP3    H132170   5.811   5.725   1.902 -1.4001 -0.9260 -0.1258
 3585TIP3    H232171   5.842   5.701   1.756 -0.0621 -0.4269  0.0643
 3586TIP3   OH232172   5.247   5.416   0.756  0.2241  0.2985  0.2806
 3586TIP3    H132173   5.190   5.448   0.827 -0.3069 -0.3085  0.1353
 3586TIP3    H232174   5.326   5.469   0.764  0.0982  0.3706  1.2173
 3587TIP3   OH232175   1.739   2.217   0.053  0.4461  0.2310  0.8616
 3587TIP3    H132176   1.725   2.140  -0.002 -0.6086  0.4988  0.7402
 3587TIP3    H232177   1.808   2.191   0.114  0.8972 -0.4198  0.0879
 3588TIP3   OH232178   2.594   0.011  15.688  0.4000  0.2248  0.2078
 3588TIP3    H132179   2.564  -0.002  15.598  0.4522  3.0207 -0.3035
 3588TIP3    H232180   2.515   0.033  15.736  0.4225 -0.9674  0.8391
 3589TIP3   OH232181   2.560   2.152  13.215 -0.0276 -0.0708  0.0245
 3589TIP3    H132182   2.622   2.199  13.271 -0.4055 -0.8835  1.1725
 3589TIP3    H232183   2.474   2.186  13.241 -0.3294 -1.5247  1.0620
 3590TIP3   OH232184   2.913   4.163   5.025  0.5494  0.1207 -0.4262
 3590TIP3    H132185   2.843   4.206   5.073 -0.6019 -0.2154 -1.7461
 3590TIP3    H232186   2.992   4.212   5.048 -0.5344  2.2467 -1.0393
 3591TIP3   OH232187   6.652   4.519  13.823  0.1178 -0.3100 -0.0809
 3591TIP3    H132188   6.627   4.502  13.913 -1.0232 -0.7196 -0.4588
 3591TIP3    H232189   6.575   4.496  13.771 -0.1292  2.1892 -0.9692
 3592TIP3   OH232190   6.596   4.149  13.792  0.2087 -0.1836  0.0816
 3592TIP3    H132191   6.593   4.068  13.740 -1.0344 -0.9560  1.2907
 3592TIP3    H232192   6.665   4.201  13.751 -1.4977 -0.1988 -3.1533
 3593TIP3   OH232193   2.855   4.824   1.410  0.3228 -0.0178 -0.5126
 3593TIP3    H132194   2.850   4.787   1.498  1.2867 -3.2031 -1.6611
 3593TIP3    H232195   2.765   4.830   1.380  0.0211  0.6777  0.4863
 3594TIP3   OH232196   6.693   2.846  17.024  0.4319  0.2221 -0.0475
 3594TIP3    H132197   6.627   2.914  17.010 -0.2709 -0.6879 -1.2727
 3594TIP3    H232198   6.654   2.766  16.990  1.8747 -0.4984 -0.1121
 3595TIP3   OH232199   2.087   2.126  17.059  0.3347  0.2226 -0.3783
 3595TIP3    H132200   2.058   2.039  17.086 -0.8233  0.4279 -0.8779
 3595TIP3    H232201   2.053   2.135  16.969 -0.7133  1.6746  0.1233
 3596TIP3   OH232202   3.662   2.059  14.443 -0.3501 -0.1530  0.0199
 3596TIP3    H132203   3.580   2.095  14.475  0.0419 -0.5105  1.5057
 3596TIP3    H232204   3.729   2.096  14.500  0.4269 -0.5492 -0.6067
 3597TIP3   OH232205   3.800   2.511   5.520 -0.5935 -0.3242 -0.5066
 3597TIP3    H132206   3.863   2.522   5.450 -1.6821  0.5943 -1.3839
 3597TIP3    H232207   3.746   2.590   5.517 -1.2767 -0.7043  0.7426
 3598TIP3   OH232208   4.488   5.325  15.325 -0.1535 -0.2167  0.0748
 3598TIP3    H132209   4.447   5.394  15.377  0.9487 -0.2354  1.0140
 3598TIP3    H232210   4.415   5.285  15.276 -0.6626  2.2765 -1.3352
 3599TIP3   OH232211   0.129   2.733   3.942 -0.1840 -0.8192  0.4559
 3599TIP3    H132212   0.126   2.803   3.877  1.2640 -0.5800  0.6070
 3599TIP3    H232213   0.160   2.776   4.022 -1.0761 -1.2834  1.0630
 3600TIP3   OH232214   6.548   5.401  15.194  0.9651 -0.2007  0.0143
 3600TIP3    H132215   6.572   5.479  15.143 -0.1092  0.9204  1.1230
 3600TIP3    H232216   6.538   5.434  15.283  0.9350 -1.7291  0.6026
 3601TIP3   OH232217   1.792   5.938  11.871 -0.0064  0.8975 -0.1055
 3601TIP3    H132218   1.887   5.936  11.887  0.3687 -1.9672 -1.9391
 3601TIP3    H232219   1.754   5.906  11.953  0.8020 -0.0895 -0.0895
 3602TIP3   OH232220   1.684   2.552  16.167 -0.0208 -0.7092  0.5218
 3602TIP3    H132221   1.652   2.461  16.166 -1.3890 -0.2658  1.0294
 3602TIP3    H232222   1.725   2.561  16.254 -0.0663 -0.7834  0.5515
 3603TIP3   OH232223   0.739   1.776   0.101  0.6518 -0.4459 -0.1406
 3603TIP3    H132224   0.681   1.793   0.175  2.2696  2.3251  0.6290
 3603TIP3    H232225   0.680   1.771   0.025 -0.7094  1.0218  0.7675
 3604TIP3   OH232226   0.451   4.772   0.011  0.0012  0.4337  0.4666
 3604TIP3    H132227   0.495   4.768   0.096  0.0538  0.5627  0.4477
 3604TIP3    H232228   0.375   4.714   0.020  0.1935  0.1828  0.4914
 3605TIP3   OH232229   6.002   3.286   4.831 -0.4950 -0.0202 -0.3154
 3605TIP3    H132230   6.026   3.197   4.805 -0.2823  0.1863 -0.8504
 3605TIP3    H232231   5.936   3.275   4.899  0.1995 -0.5869  0.2794
 3606TIP3   OH232232   0.828   5.314   2.675  0.1504 -0.0658 -0.2779
 3606TIP3    H132233   0.814   5.339   2.766  0.2000 -2.7494  0.5359
 3606TIP3    H232234   0.922   5.329   2.661  0.5613 -1.4169  0.7686
 3607TIP3   OH232235   4.984   5.722  16.162 -0.5603  0.1275 -0.3789
 3607TIP3    H132236   5.040   5.770  16.100 -2.6214  0.2761 -2.2391
 3607TIP3    H232237   5.043   5.701  16.235  1.3475  2.2001 -1.1874
 3608TIP3   OH232238   6.645   6.576   0.075 -0.0107 -0.0533  0.2980
 3608TIP3    H132239   6.654   6.530  -0.009 -0.7873  1.4122 -0.6553
 3608TIP3    H232240   6.723   6.552   0.124  1.5318  0.6014 -1.6676
 3609TIP3   OH232241   4.655   6.600   2.634  0.2250  0.4019 -0.1621
 3609TIP3    H132242   4.741   6.629   2.666  0.1196  0.7577 -0.1948
 3609TIP3    H232243   4.607   6.682   2.620  0.9349  0.3995 -3.1695
 3610TIP3   OH232244   3.864   3.345  11.919  0.0761 -0.3686 -0.2488
 3610TIP3    H132245   3.857   3.309  12.007  0.3774 -3.2336 -1.2911
 3610TIP3    H232246   3.958   3.354  11.904  0.0063  1.1744  0.0633
 3611TIP3   OH232247   1.926   0.114   5.399 -0.7850  0.3507  0.4202
 3611TIP3    H132248   1.842   0.069   5.396 -1.5434  1.5825  2.0619
 3611TIP3    H232249   1.951   0.113   5.491  1.2019 -0.2919 -0.0789
 3612TIP3   OH232250   6.267   5.795   2.269 -0.0332  0.4007  0.1678
 3612TIP3    H132251   6.335   5.851   2.306  0.1750  0.8458 -0.8348
 3612TIP3    H232252   6.226   5.849   2.201  0.6113 -0.8557 -1.2759
 3613TIP3   OH232253   4.969   5.638   0.665 -0.0524  0.1578  0.2062
 3613TIP3    H132254   5.051   5.595   0.639 -0.1037 -0.2507  0.6936
 3613TIP3    H232255   4.982   5.661   0.757 -0.9611 -1.0930  0.6761
 3614TIP3   OH232256   4.206   2.438  13.499 -0.2988  0.7421 -0.7651
 3614TIP3    H132257   4.212   2.533  13.506 -0.7386  0.8227 -1.4386
 3614TIP3    H232258   4.114   2.418  13.516 -0.4461  0.5473 -1.7521
 3615TIP3   OH232259   3.768   1.367  10.842 -0.6043  0.7512  0.1443
 3615TIP3    H132260   3.841   1.311  10.815 -1.0102  0.3981 -0.2321
 3615TIP3    H232261   3.731   1.398  10.759 -0.4312  1.5178  0.3497
 3616TIP3   OH232262   3.880   0.078   2.726 -0.2347  0.2812  0.0094
 3616TIP3    H132263   3.845   0.035   2.804  0.8178  0.0860  0.3859
 3616TIP3    H232264   3.931   0.010   2.682 -0.3717  0.5409 -0.5542
 3617TIP3   OH232265   3.130   0.363  14.204 -0.0692 -0.9966  0.4068
 3617TIP3    H132266   3.105   0.296  14.141  0.2498 -0.4266 -0.3420
 3617TIP3    H232267   3.052   0.377  14.257 -0.3951 -1.3584  0.0254
 3618TIP3   OH232268   2.178   5.984  15.549  0.3487 -0.1586  0.3594
 3618TIP3    H132269   2.162   6.015  15.638 -1.3861 -1.1909  0.4479
 3618TIP3    H232270   2.181   5.889  15.557 -0.1199 -0.2785 -0.7116
 3619TIP3   OH232271   2.506   1.777   0.148  0.1521 -0.1088  0.4898
 3619TIP3    H132272   2.446   1.764   0.075 -1.4256  1.3156  1.4597
 3619TIP3    H232273   2.456   1.750   0.225  0.8627  0.8000  1.2954
 3620TIP3   OH232274   2.513   5.364  14.350  0.0605  0.1682  0.1898
 3620TIP3    H132275   2.460   5.288  14.375  0.4938 -0.0358  0.5158
 3620TIP3    H232276   2.531   5.409  14.433  2.1033 -0.8957  0.4013
 3621TIP3   OH232277   0.625   5.573   5.528  0.5095 -0.1905 -0.1105
 3621TIP3    H132278   0.691   5.554   5.595  2.1447 -1.7594 -2.0325
 3621TIP3    H232279   0.587   5.488   5.507 -1.0750  0.4952 -0.1176
 3622TIP3   OH232280   3.958   4.980   0.850  0.0654 -0.5023 -0.3157
 3622TIP3    H132281   3.968   4.979   0.945 -0.8089  0.2691 -0.1966
 3622TIP3    H232282   4.018   5.048   0.820  0.5952 -0.9814 -0.3601
 3623TIP3   OH232283   1.746   1.818   1.018  0.9206  0.0888  0.2676
 3623TIP3    H132284   1.824   1.779   0.978  1.3155  0.8891  0.2301
 3623TIP3    H232285   1.752   1.911   0.996 -0.5674  0.0177 -0.5807
 3624TIP3   OH232286   6.477   4.993  15.279 -0.0089  0.4440  0.8195
 3624TIP3    H132287   6.556   4.950  15.245 -0.7624 -0.9155  0.7267
 3624TIP3    H232288   6.507   5.039  15.358  0.6838 -0.9267  1.3834
 3625TIP3   OH232289   5.224   1.599   0.727  0.8175  0.1437 -0.0127
 3625TIP3    H132290   5.182   1.534   0.671  0.6932  0.2115  0.0009
 3625TIP3    H232291   5.154   1.633   0.783  0.9232  0.1378  0.1262
 3626TIP3   OH232292   0.428   2.757  14.589  0.2953  0.5493  0.3940
 3626TIP3    H132293   0.393   2.714  14.511 -0.5892  1.0936  0.4815
 3626TIP3    H232294   0.523   2.755  14.576  0.3866 -2.0944  0.7347
 3627TIP3   OH232295   5.963   1.002  14.318 -0.1642 -0.3137 -0.2921
 3627TIP3    H132296   5.969   0.969  14.228  2.3024 -1.6213  0.2633
 3627TIP3    H232297   6.048   1.042  14.334 -1.6083  2.7676  0.5081
 3628TIP3   OH232298   1.272   3.066   6.315 -0.2330 -0.8509  0.0023
 3628TIP3    H132299   1.209   2.999   6.288  0.0289 -0.1895 -2.5877
 3628TIP3    H232300   1.229   3.149   6.296  0.8212 -0.3660 -0.3792
 3629TIP3   OH232301   3.712   1.593   0.623  0.3887  0.3923  0.0230
 3629TIP3    H132302   3.796   1.591   0.667  0.7877  2.9210 -0.4462
 3629TIP3    H232303   3.733   1.610   0.531 -0.5167 -2.9302 -0.9328
 3630TIP3   OH232304   0.517   6.655   3.201 -0.3966 -0.0494  0.5941
 3630TIP3    H132305   0.518   6.695   3.288  1.9191 -3.5278  2.3968
 3630TIP3    H232306   0.468   6.574   3.212  0.2932 -0.7720 -1.2326
 3631TIP3   OH232307   2.335   3.252   5.333 -0.1601 -0.0279  0.1895
 3631TIP3    H132308   2.241   3.263   5.322 -0.1862 -0.1488  0.2844
 3631TIP3    H232309   2.369   3.341   5.345 -0.3502 -0.0333  0.8217
 3632TIP3   OH232310   1.057   6.087   1.264 -0.4784  0.4819 -0.4055
 3632TIP3    H132311   1.153   6.084   1.260 -0.4589  0.7621 -0.1784
 3632TIP3    H232312   1.036   6.181   1.264 -0.9219  0.5952 -4.6514
 3633TIP3   OH232313   3.802   5.869   1.188 -0.1361 -0.4285  0.1289
 3633TIP3    H132314   3.848   5.896   1.109 -1.2264 -1.7733 -1.0020
 3633TIP3    H232315   3.735   5.808   1.158  0.1832 -1.9208  2.2238
 3634TIP3   OH232316   6.532   0.474  13.610 -0.3093  0.4824  0.1296
 3634TIP3    H132317   6.507   0.559  13.574 -1.1469 -0.9589 -3.1249
 3634TIP3    H232318   6.627   0.479  13.617 -0.3298  1.6736 -0.0974
 3635TIP3   OH232319   1.626   0.639   5.186 -0.4485  0.1717  0.2484
 3635TIP3    H132320   1.612   0.551   5.221 -2.4014  0.3452  0.0048
 3635TIP3    H232321   1.552   0.654   5.127 -0.0280  1.8933  0.0952
 3636TIP3   OH232322   0.654   1.567  15.571 -1.1385  0.2896 -0.2203
 3636TIP3    H132323   0.728   1.621  15.543  0.0530 -0.9983  0.2995
 3636TIP3    H232324   0.649   1.497  15.506 -1.2858 -0.1557  0.2631
 3637TIP3   OH232325   6.710   6.080  11.345  0.1130  0.0782  0.2750
 3637TIP3    H132326   6.685   6.041  11.429  0.8269 -0.6257  0.1779
 3637TIP3    H232327   6.725   6.172  11.364  0.0733 -0.0357  0.8783
 3638TIP3   OH232328   5.799   1.422  15.970 -0.5449 -0.4414  0.0160
 3638TIP3    H132329   5.747   1.437  15.891 -0.3429 -0.4067 -0.1136
 3638TIP3    H232330   5.777   1.333  15.997 -0.4633 -0.5282 -0.1973
 3639TIP3   OH232331   5.591   4.183  15.848 -0.3755  0.0463  0.1701
 3639TIP3    H132332   5.506   4.141  15.862 -0.3881 -0.2755 -0.7529
 3639TIP3    H232333   5.574   4.246  15.778 -0.1247  0.8721  0.8460
 3640TIP3   OH232334   1.905   0.723   6.018  0.3073  0.0441 -0.1404
 3640TIP3    H132335   1.877   0.811   6.042  0.7404  0.0275  0.4223
 3640TIP3    H232336   1.992   0.713   6.057  0.9669 -0.0451 -1.5440
 3641TIP3   OH232337   4.272   5.212  15.553  0.6982  0.4287 -0.4880
 3641TIP3    H132338   4.293   5.306  15.554 -1.0102  0.8679  1.1467
 3641TIP3    H232339   4.345   5.171  15.599  0.6612  1.1997  0.2904
 3642TIP3   OH232340   5.442   2.943   0.693 -0.2907 -0.0281 -0.0155
 3642TIP3    H132341   5.502   2.871   0.674  0.4732  0.8946 -1.2181
 3642TIP3    H232342   5.378   2.940   0.622 -1.0601 -0.3495  0.6806
 3643TIP3   OH232343   6.080   4.179   4.682  0.0679 -0.0699 -0.0797
 3643TIP3    H132344   6.148   4.168   4.749  0.3454  0.9212 -0.1817
 3643TIP3    H232345   6.118   4.141   4.603  1.4571  2.4010 -0.7092
 3644TIP3   OH232346   3.738   6.052   3.496 -0.3806  0.5712 -0.2875
 3644TIP3    H132347   3.734   6.102   3.414 -0.6102  0.6186 -0.2465
 3644TIP3    H232348   3.795   5.978   3.476 -0.1028  0.8062 -0.3731
 3645TIP3   OH232349   2.944   3.161  16.440  0.1203 -0.5035 -0.1801
 3645TIP3    H132350   2.922   3.178  16.349  1.5283  0.1508 -0.4223
 3645TIP3    H232351   2.927   3.244  16.485  2.3927  0.1725 -0.4605
 3646TIP3   OH232352   4.616   6.741  10.955  0.1211  0.0805  0.1864
 3646TIP3    H132353   4.583   6.653  10.973 -0.6690  0.4553  0.6270
 3646TIP3    H232354   4.679   6.757  11.025  0.4514 -0.2268 -0.0378
 3647TIP3   OH232355   6.580   1.119   3.627 -0.4018  0.5290 -0.2363
 3647TIP3    H132356   6.672   1.103   3.609 -0.3373 -0.0552  0.5496
 3647TIP3    H232357   6.577   1.207   3.665  0.1651 -0.3363  1.9694
 3648TIP3   OH232358   1.377   4.251  13.989 -0.0481 -0.3347  0.2044
 3648TIP3    H132359   1.301   4.302  14.017  0.7323  1.1173 -0.2029
 3648TIP3    H232360   1.350   4.212  13.906 -0.9683 -1.3682  0.9592
 3649TIP3   OH232361   1.187   1.181   2.868 -0.2505 -0.5657  0.1409
 3649TIP3    H132362   1.128   1.234   2.921  2.0982  1.5559  0.8654
 3649TIP3    H232363   1.144   1.173   2.783 -1.9605  0.0295  0.9120
 3650TIP3   OH232364   3.800   3.338   4.312  0.2794  0.8011 -0.0838
 3650TIP3    H132365   3.734   3.272   4.332  0.7883  0.5809  0.9433
 3650TIP3    H232366   3.757   3.397   4.250 -0.9620  0.7934  0.7367
 3651TIP3   OH232367   3.342   2.520   3.233 -1.0145 -0.3567  0.3528
 3651TIP3    H132368   3.384   2.606   3.231 -0.1059 -0.7502  1.3372
 3651TIP3    H232369   3.253   2.538   3.261 -1.0022  0.3194 -0.0160
 3652TIP3   OH232370   3.136   2.375   4.087 -0.2994  0.6337 -0.1355
 3652TIP3    H132371   3.047   2.402   4.111 -0.1721 -0.3408  1.5666
 3652TIP3    H232372   3.185   2.376   4.169  0.8957 -0.2662 -0.8001
 3653TIP3   OH232373   0.561   2.708  12.213 -0.1685  0.5042 -0.0596
 3653TIP3    H132374   0.534   2.766  12.285 -0.2927  0.7317 -0.2887
 3653TIP3    H232375   0.543   2.620  12.245  0.8537  0.5401  0.6516
 3654TIP3   OH232376   5.805   2.117  11.555 -0.1734 -0.0755  0.0990
 3654TIP3    H132377   5.852   2.190  11.515  2.3063  0.2154  3.1657
 3654TIP3    H232378   5.864   2.042  11.544 -1.5827 -1.0843 -0.8494
 3655TIP3   OH232379   2.021   6.001  17.211 -0.3509 -0.3060 -0.0329
 3655TIP3    H132380   2.077   6.011  17.289  1.2031  0.1857 -1.1524
 3655TIP3    H232381   2.083   5.993  17.138 -1.7510 -1.4942 -1.1595
 3656TIP3   OH232382   3.294   5.396   1.336  0.4838  0.8029  0.4197
 3656TIP3    H132383   3.386   5.421   1.345  0.4632  1.0083  0.1099
 3656TIP3    H232384   3.290   5.307   1.369  0.6132  1.1164  1.3090
 3657TIP3   OH232385   5.178   5.341  11.353 -0.6264  0.8333 -0.4048
 3657TIP3    H132386   5.271   5.365  11.346 -0.3354  0.0606  0.5345
 3657TIP3    H232387   5.131   5.415  11.316  0.3921  0.8374 -1.7645
 3658TIP3   OH232388   0.180   0.807  11.287  0.0705  0.2163  0.1886
 3658TIP3    H132389   0.150   0.832  11.375  2.2675 -0.2606  1.1563
 3658TIP3    H232390   0.255   0.864  11.271  1.8037 -1.9607  0.1280
 3659TIP3   OH232391   6.271   0.441  16.876  0.1874  0.0046  0.0916
 3659TIP3    H132392   6.180   0.461  16.899  0.0647  1.4901 -1.4926
 3659TIP3    H232393   6.318   0.522  16.891  1.0429 -0.4307 -0.1918
 3660TIP3   OH232394   5.716   0.805   6.553  0.0707 -0.6339  0.3125
 3660TIP3    H132395   5.674   0.869   6.612 -0.3696 -0.1812 -0.4761
 3660TIP3    H232396   5.650   0.787   6.487  1.0565 -0.0114 -0.8828
 3661TIP3   OH232397   6.442   0.464  12.767 -0.0554 -0.2984 -0.1420
 3661TIP3    H132398   6.506   0.403  12.804 -0.1734  0.3372  1.1617
 3661TIP3    H232399   6.483   0.496  12.686  1.9949  1.2202  1.3711
 3662TIP3   OH232400   2.080   6.754  15.990 -0.5618 -0.2478 -0.0866
 3662TIP3    H132401   2.031   6.787  15.915 -1.7738 -2.4813 -0.3383
 3662TIP3    H232402   2.015   6.742  16.059  0.7274  3.2973  2.0511
 3663TIP3   OH232403   4.192   4.767   0.224  0.4446 -0.6093 -0.1100
 3663TIP3    H132404   4.148   4.769   0.139 -0.1583  0.1327  0.2050
 3663TIP3    H232405   4.143   4.831   0.277  0.8428 -1.0294  0.7726
 3664TIP3   OH232406   0.671   5.703   4.341  0.7228  0.6233 -0.2571
 3664TIP3    H132407   0.754   5.724   4.382  0.6198 -1.7042  1.3335
 3664TIP3    H232408   0.604   5.739   4.400  0.5962  0.4337 -0.2822
 3665TIP3   OH232409   4.766   2.952   6.740  0.8906 -0.4899  0.5233
 3665TIP3    H132410   4.708   3.027   6.733  0.7857 -0.5235  0.9934
 3665TIP3    H232411   4.730   2.887   6.680  1.9740  0.4575 -1.2274
 3666TIP3   OH232412   4.813   2.613  15.540  0.4038  0.5698 -0.7978
 3666TIP3    H132413   4.853   2.562  15.470  0.1383  0.0435 -0.5697
 3666TIP3    H232414   4.774   2.548  15.598 -3.5195  1.0468 -2.5824
 3667TIP3   OH232415   0.469   0.014  12.078  0.4550  0.1879  0.2498
 3667TIP3    H132416   0.490   0.039  12.168  1.6177 -1.0353  0.3580
 3667TIP3    H232417   0.377  -0.013  12.082  1.0075 -1.7552  1.5592
 3668TIP3   OH232418   3.881   3.299   6.493 -0.4450  0.3679  0.2574
 3668TIP3    H132419   3.893   3.236   6.422 -1.0412  1.0145 -0.4363
 3668TIP3    H232420   3.956   3.284   6.551  0.5124  0.3776 -0.9352
 3669TIP3   OH232421   5.746   5.735   5.183 -0.0772  0.7297  0.0184
 3669TIP3    H132422   5.829   5.761   5.143  0.0426  1.8121  0.9206
 3669TIP3    H232423   5.757   5.755   5.276 -0.9676 -0.1216  0.3228
 3670TIP3   OH232424   3.583   5.465   3.354  0.4217 -0.1719 -0.2552
 3670TIP3    H132425   3.642   5.505   3.290  0.8580  0.4824  0.5195
 3670TIP3    H232426   3.538   5.540   3.394  1.6554 -0.3527  1.6141
 3671TIP3   OH232427   6.561   0.816  17.312 -0.0707  0.0975 -0.2282
 3671TIP3    H132428   6.529   0.733  17.277  0.3641 -0.8733  1.5627
 3671TIP3    H232429   6.655   0.803  17.325 -0.1301  0.5669  0.8049
 3672TIP3   OH232430   1.830   5.018  13.493 -0.4910 -0.1239 -0.5771
 3672TIP3    H132431   1.895   4.948  13.483  0.0119  0.2188  0.2196
 3672TIP3    H232432   1.762   4.980  13.548  0.0268  0.1661  0.2758
 3673TIP3   OH232433   0.484   1.918   5.501 -0.2378  0.2330 -0.4907
 3673TIP3    H132434   0.448   1.841   5.457 -0.5508  0.4933 -0.6949
 3673TIP3    H232435   0.465   1.990   5.442  1.8508  0.1962 -1.2686
 3674TIP3   OH232436   6.360   6.631  16.878  0.0324 -0.3151  0.1072
 3674TIP3    H132437   6.340   6.610  16.970  0.3002 -2.9816 -0.3553
 3674TIP3    H232438   6.299   6.577  16.828  0.7878  0.0815 -1.2877
 3675TIP3   OH232439   3.076   5.611   3.136 -0.6510 -0.9282 -0.2091
 3675TIP3    H132440   3.110   5.641   3.051  1.1506 -1.4359  0.2887
 3675TIP3    H232441   3.123   5.529   3.152 -0.8935 -0.7813  1.3424
 3676TIP3   OH232442   3.368   0.902  13.046  0.5381 -0.0393 -0.0370
 3676TIP3    H132443   3.333   0.967  12.984  0.3583  1.7717  1.8308
 3676TIP3    H232444   3.292   0.848  13.068  0.1958  0.3850 -0.1366
 3677TIP3   OH232445   4.885   5.920   5.347  0.5235  0.4110 -0.3234
 3677TIP3    H132446   4.934   5.846   5.381  0.4092  0.6179  0.3052
 3677TIP3    H232447   4.883   5.983   5.419 -1.1026  0.1973 -0.1337
 3678TIP3   OH232448   2.044   3.298   4.846  0.0607  0.4607  0.5455
 3678TIP3    H132449   2.071   3.383   4.813  3.1736 -1.1083 -1.4538
 3678TIP3    H232450   2.110   3.274   4.911 -0.4341 -0.6730  0.6753
 3679TIP3   OH232451   3.895   6.733  16.240  0.1525 -0.1455 -0.0251
 3679TIP3    H132452   3.900   6.785  16.321 -0.3051  0.6633 -0.5020
 3679TIP3    H232453   3.905   6.642  16.269  1.8466  0.2533  0.7420
 3680TIP3   OH232454   2.515   2.636  14.865 -0.5074 -0.0276 -0.5301
 3680TIP3    H132455   2.597   2.600  14.900 -0.1250 -0.5465 -1.9072
 3680TIP3    H232456   2.505   2.720  14.910  1.2119  0.4253 -0.9196
 3681TIP3   OH232457   6.751   4.284  13.399  0.0853  0.1608  0.1457
 3681TIP3    H132458   6.778   4.287  13.490 -1.3457 -0.5378  0.6238
 3681TIP3    H232459   6.697   4.363  13.388  1.0738  0.7776 -0.3900
 3682TIP3   OH232460   1.309   6.238  14.420  0.1965 -0.2564  0.0175
 3682TIP3    H132461   1.223   6.271  14.394 -0.2502 -0.2780  1.4336
 3682TIP3    H232462   1.368   6.271  14.352 -0.8920 -0.1468 -0.9119
 3683TIP3   OH232463   6.361   0.381  12.056 -0.1109  0.1492 -0.2354
 3683TIP3    H132464   6.268   0.379  12.032 -0.1818 -2.1665 -0.0098
 3683TIP3    H232465   6.363   0.423  12.142 -1.1439 -0.8907  0.3332
 3684TIP3   OH232466   3.975   2.610  11.836 -0.1926 -0.0947  0.0477
 3684TIP3    H132467   4.066   2.602  11.866  0.9654  0.5722 -2.9234
 3684TIP3    H232468   3.962   2.704  11.823 -1.0062 -0.2595 -0.3828
 3685TIP3   OH232469   5.865   3.609   2.034  0.1990 -0.0088  0.0761
 3685TIP3    H132470   5.888   3.582   1.945  0.6098 -0.4707  0.3161
 3685TIP3    H232471   5.941   3.583   2.087 -0.2698 -0.2283  0.6442
 3686TIP3   OH232472   0.876   4.707   3.017 -0.0107 -0.6149  0.1609
 3686TIP3    H132473   0.898   4.649   3.090 -0.1326 -1.8982 -0.7919
 3686TIP3    H232474   0.885   4.652   2.939 -2.6052 -0.0959 -0.6053
 3687TIP3   OH232475   3.368   1.392   3.295 -0.5607 -0.0303  0.1951
 3687TIP3    H132476   3.437   1.327   3.283 -0.2934  0.0968  0.9865
 3687TIP3    H232477   3.412   1.476   3.280 -0.5925  0.0408  0.4967
 3688TIP3   OH232478   6.750   0.583  16.676 -0.0000 -0.3236 -0.2852
 3688TIP3    H132479   6.657   0.603  16.665  0.1445  0.4005 -0.2438
 3688TIP3    H232480   6.755   0.534  16.758 -0.2578  0.3263  0.1308
 3689TIP3   OH232481   1.090   2.224   0.752  0.5213 -0.1062  0.2562
 3689TIP3    H132482   1.160   2.180   0.800  0.6606 -0.7569 -0.5236
 3689TIP3    H232483   1.070   2.165   0.679 -0.7706  0.1148  0.4053
 3690TIP3   OH232484   1.292   0.046   2.351  0.3198 -0.1405 -0.6288
 3690TIP3    H132485   1.287   0.044   2.256 -0.7238 -1.1348 -0.5914
 3690TIP3    H232486   1.221  -0.013   2.379  1.2497 -0.6506  0.7362
 3691TIP3   OH232487   2.108   3.172   3.870  0.0234  0.3388  0.3312
 3691TIP3    H132488   2.081   3.155   3.780  0.4046  1.8557 -0.1029
 3691TIP3    H232489   2.061   3.107   3.922 -1.3514  0.3670 -0.8070
 3692TIP3   OH232490   0.883   1.997   2.728  0.1111 -0.4336 -0.0156
 3692TIP3    H132491   0.812   1.974   2.668  0.1639  0.6407 -0.5004
 3692TIP3    H232492   0.850   1.972   2.814 -1.0198  0.3783 -0.1906
 3693TIP3   OH232493   2.053   5.873   3.363 -0.6317 -0.0428 -0.1329
 3693TIP3    H132494   2.100   5.926   3.427 -0.0771 -0.1444 -0.4493
 3693TIP3    H232495   2.111   5.798   3.348 -1.8168 -1.2658  1.0463
 3694TIP3   OH232496   6.568   2.703   5.637 -0.1711 -0.9383 -0.3987
 3694TIP3    H132497   6.525   2.621   5.663 -2.2713 -0.2362 -1.4096
 3694TIP3    H232498   6.561   2.704   5.542  1.3211 -0.3174 -0.5307
 3695TIP3   OH232499   5.412   5.771   2.788 -0.4727 -0.4130  0.4007
 3695TIP3    H132500   5.478   5.747   2.854 -0.0937 -0.3012  0.0679
 3695TIP3    H232501   5.379   5.856   2.817  1.5343  0.8985 -0.8971
 3696TIP3   OH232502   2.906   2.777  17.093  0.0964 -0.1171 -0.0247
 3696TIP3    H132503   2.994   2.745  17.112  0.4193  0.4787 -0.4691
 3696TIP3    H232504   2.871   2.715  17.030 -0.2078 -0.9498  0.9404
 3697TIP3   OH232505   5.405   5.186  14.091  0.2205 -0.1449 -0.0818
 3697TIP3    H132506   5.492   5.178  14.052  0.6596  0.6117  0.7140
 3697TIP3    H232507   5.364   5.259  14.045  1.0644  1.3208  1.4133
 3698TIP3   OH232508   4.387   1.527   2.509 -0.3445 -0.2107  0.6055
 3698TIP3    H132509   4.374   1.440   2.546  0.6726 -2.2593 -3.3169
 3698TIP3    H232510   4.476   1.551   2.534 -0.0822 -1.0043  0.4584
 3699TIP3   OH232511   2.571   1.906  11.290 -0.0205 -0.0887  0.0064
 3699TIP3    H132512   2.626   1.895  11.368 -0.4264 -0.9039  0.1965
 3699TIP3    H232513   2.632   1.906  11.217  0.3668  0.6742  0.3177
 3700TIP3   OH232514   3.773   0.345   0.179 -0.4270  0.0853  0.2954
 3700TIP3    H132515   3.727   0.426   0.158 -0.5335  0.1069  0.6110
 3700TIP3    H232516   3.712   0.295   0.233 -0.5321 -0.4045 -0.2679
 3701TIP3   OH232517   3.507   0.969   3.453 -0.1445  0.1401  0.1602
 3701TIP3    H132518   3.419   0.976   3.491  0.5250  0.6377  1.7232
 3701TIP3    H232519   3.546   0.894   3.498  0.7925  0.9411  0.7037
 3702TIP3   OH232520   3.041   1.254   6.233 -0.1977  0.0619  0.2870
 3702TIP3    H132521   3.015   1.303   6.311 -0.1854  0.8916 -0.2181
 3702TIP3    H232522   3.060   1.322   6.168 -2.5892 -0.6250 -1.2235
 3703TIP3   OH232523   6.123   0.772  16.736 -0.4916 -0.1070  0.2345
 3703TIP3    H132524   6.139   0.704  16.670 -0.6836  1.2579 -1.2934
 3703TIP3    H232525   6.210   0.801  16.763 -0.2987  1.4640 -1.7964
 3704TIP3   OH232526   4.148   0.796  11.905 -0.0424  0.2145  0.3515
 3704TIP3    H132527   4.143   0.848  11.824  0.4989 -1.1882 -0.6139
 3704TIP3    H232528   4.229   0.746  11.896 -0.4992 -0.7173  1.2970
 3705TIP3   OH232529   0.523   3.776  15.093  0.1988  0.1596  0.0756
 3705TIP3    H132530   0.610   3.756  15.058 -0.7321 -2.0604 -1.1852
 3705TIP3    H232531   0.540   3.831  15.170  2.6544  0.3846 -0.5399
 3706TIP3   OH232532   6.001   6.749   6.043  0.8152  0.8900  0.1905
 3706TIP3    H132533   6.053   6.805   6.101  1.5790  0.1496  0.2434
 3706TIP3    H232534   6.016   6.661   6.076  0.1323  0.5921 -0.2808
 3707TIP3   OH232535   4.438   4.915   0.210  0.2403  0.3383  0.5288
 3707TIP3    H132536   4.362   4.865   0.182 -0.4372  2.2202 -1.2454
 3707TIP3    H232537   4.496   4.850   0.251 -2.3647 -1.1192  2.2066
 3708TIP3   OH232538   5.679   2.794   3.365 -0.0746 -0.0572  0.1649
 3708TIP3    H132539   5.686   2.887   3.345  1.8098 -0.4446 -1.2434
 3708TIP3    H232540   5.764   2.769   3.399 -0.9940 -1.0120  1.9132
 3709TIP3   OH232541   5.094   6.543   2.570 -0.0080  0.5692 -0.2256
 3709TIP3    H132542   5.127   6.631   2.585 -1.5583  1.2396 -0.5823
 3709TIP3    H232543   5.042   6.523   2.649  0.1329  0.0644 -0.2546
 3710TIP3   OH232544   6.541   0.424  12.524 -0.4691  0.5105 -1.0539
 3710TIP3    H132545   6.508   0.389  12.441 -1.2299 -2.6886  0.4285
 3710TIP3    H232546   6.635   0.407  12.522 -0.7032 -0.9404 -0.7167
 3711TIP3   OH232547   1.715   6.390   1.144  0.4491 -0.2866 -0.7467
 3711TIP3    H132548   1.695   6.344   1.062  0.5019  1.1292 -1.5844
 3711TIP3    H232549   1.747   6.321   1.202  0.2397 -1.3593 -1.8517
 3712TIP3   OH232550   1.238   0.627  10.977 -0.3787 -0.0384  0.3875
 3712TIP3    H132551   1.232   0.621  10.882  0.4800  0.4365  0.2888
 3712TIP3    H232552   1.162   0.679  11.002 -0.9265 -0.6533  0.0219
 3713TIP3   OH232553   2.351   0.105   4.137 -0.1206  0.1300  0.2101
 3713TIP3    H132554   2.293   0.137   4.206 -0.5294  1.6275 -0.7813
 3713TIP3    H232555   2.342   0.010   4.141 -3.3066  0.2655 -0.3573
 3714TIP3   OH232556   1.985   5.603   3.611  0.0996  0.9827  0.4854
 3714TIP3    H132557   2.010   5.591   3.703  0.6307 -1.4190  0.0887
 3714TIP3    H232558   1.942   5.521   3.587  0.3272  1.4032 -1.5257
 3715TIP3   OH232559   1.345   3.052  14.587 -0.5804  0.1273  0.1908
 3715TIP3    H132560   1.341   2.968  14.542 -1.9398 -0.1276  0.7587
 3715TIP3    H232561   1.307   3.035  14.673 -1.4921  1.4669  0.0780
 3716TIP3   OH232562   6.649   6.042  12.767  0.0210 -0.1890 -0.0494
 3716TIP3    H132563   6.607   5.967  12.725 -0.2417 -0.4622  0.6881
 3716TIP3    H232564   6.722   6.064  12.709  0.5044 -1.4432  0.0467
 3717TIP3   OH232565   4.563   2.755  17.058 -0.0597 -0.5606  0.0886
 3717TIP3    H132566   4.616   2.689  17.103 -1.0026  0.2346  2.5730
 3717TIP3    H232567   4.587   2.837  17.100 -0.9744  0.2683 -0.9593
 3718TIP3   OH232568   4.805   3.662  15.538 -0.0909 -0.8974  0.5052
 3718TIP3    H132569   4.711   3.654  15.525  0.2204 -1.8176 -1.6015
 3718TIP3    H232570   4.817   3.753  15.567 -1.4151  0.2588 -2.1248
 3719TIP3   OH232571   3.055   2.157   2.612  0.5000  0.6125  0.3354
 3719TIP3    H132572   3.144   2.184   2.588  1.1721 -0.3673  1.5899
 3719TIP3    H232573   3.068   2.080   2.667 -1.2066 -0.7945 -1.0804
 3720TIP3   OH232574   2.076   5.798  14.847  0.1083 -0.0550 -0.3496
 3720TIP3    H132575   2.065   5.892  14.837 -0.0760 -0.0252  0.0873
 3720TIP3    H232576   2.169   5.782  14.831 -0.0457  0.0654 -1.4018
 3721TIP3   OH232577   2.803   0.448  11.351 -0.3888 -0.4919  0.3437
 3721TIP3    H132578   2.730   0.479  11.297 -0.2697  0.0299  0.4761
 3721TIP3    H232579   2.871   0.425  11.288  0.5443  2.0751  0.2671
 3722TIP3   OH232580   4.422   1.148  12.719  0.1398  0.8970 -0.2357
 3722TIP3    H132581   4.337   1.137  12.760  0.2461 -0.4219 -0.3092
 3722TIP3    H232582   4.405   1.135  12.625  0.8369 -2.6727 -0.0107
 3723TIP3   OH232583   0.646   5.576  12.861 -0.0038 -0.2062 -0.1179
 3723TIP3    H132584   0.611   5.604  12.946  1.5674  0.6929  0.2840
 3723TIP3    H232585   0.681   5.656  12.822  1.3066 -0.9760 -0.6009
 3724TIP3   OH232586   0.458   3.808  14.414 -0.3750 -0.0578  0.2509
 3724TIP3    H132587   0.532   3.859  14.381 -0.1640 -0.5392 -0.0331
 3724TIP3    H232588   0.422   3.861  14.485 -1.0760  1.1684 -0.9797
 3725TIP3   OH232589   4.327   5.092   1.510  0.4177  0.4657 -0.1523
 3725TIP3    H132590   4.241   5.104   1.468 -0.2074  0.3271  1.0472
 3725TIP3    H232591   4.390   5.110   1.441 -0.5816  0.2257 -1.1602
 3726TIP3   OH232592   0.437   4.764  14.844 -0.0768 -0.1037  0.2500
 3726TIP3    H132593   0.412   4.845  14.801  0.6705  1.0933  1.9605
 3726TIP3    H232594   0.440   4.699  14.773 -2.7806  0.8137 -0.8357
 3727TIP3   OH232595   5.296   2.506  12.647  0.2459  0.1001  0.1062
 3727TIP3    H132596   5.317   2.475  12.559 -1.1399 -1.0840  0.1585
 3727TIP3    H232597   5.351   2.453  12.705  0.8988  0.6349 -0.0138
 3728TIP3   OH232598   3.426   3.400  15.810 -0.2851 -0.3964 -0.7616
 3728TIP3    H132599   3.339   3.379  15.843 -0.0557 -0.2886 -0.0716
 3728TIP3    H232600   3.436   3.345  15.733 -1.3442  0.3022 -1.4225
 3729TIP3   OH232601   0.931   4.345   5.164 -0.1959  0.1020  0.5551
 3729TIP3    H132602   1.002   4.330   5.227 -0.2541 -1.9761  0.2105
 3729TIP3    H232603   0.852   4.348   5.218  0.0522  1.5905  0.8624
 3730TIP3   OH232604   5.559   3.003   1.628 -0.5753  0.3512  0.7341
 3730TIP3    H132605   5.524   2.914   1.629 -0.1437  0.1862  2.3972
 3730TIP3    H232606   5.596   3.012   1.540 -3.4869  0.0560 -0.6548
 3731TIP3   OH232607   1.027   6.397  11.185 -0.0753 -0.5176 -0.0011
 3731TIP3    H132608   1.084   6.471  11.164 -0.5429 -0.4010 -0.9137
 3731TIP3    H232609   1.003   6.410  11.276 -0.3145  0.5670 -0.2120
 3732TIP3   OH232610   5.151   2.381  12.152  0.1061 -0.2111  0.8480
 3732TIP3    H132611   5.137   2.308  12.212  0.3119  1.3074  2.8165
 3732TIP3    H232612   5.239   2.367  12.117 -0.8321 -2.2982 -0.9100
 3733TIP3   OH232613   5.015   0.986  15.524  0.1515  0.0320 -0.0885
 3733TIP3    H132614   4.971   1.050  15.580  0.0302  0.2344 -0.4157
 3733TIP3    H232615   4.954   0.912  15.520  0.7785 -0.5876  1.2145
 3734TIP3   OH232616   1.028   6.405  12.131 -0.6272 -0.4814 -0.3146
 3734TIP3    H132617   1.056   6.322  12.170  0.4591  0.3334  0.7331
 3734TIP3    H232618   1.088   6.418  12.058  1.9515  1.2338  1.8943
 3735TIP3   OH232619   2.679   1.572   3.709 -0.3112 -0.1613 -0.0267
 3735TIP3    H132620   2.758   1.527   3.739 -0.2126  1.2541  2.0634
 3735TIP3    H232621   2.710   1.644   3.655 -0.2080  0.0262  0.2836
 3736TIP3   OH232622   2.756   2.889  14.230 -0.2945 -0.5824 -0.8029
 3736TIP3    H132623   2.818   2.961  14.242 -0.0171 -0.7388 -1.2744
 3736TIP3    H232624   2.710   2.884  14.314  0.5086 -0.6334 -0.3467
 3737TIP3   OH232625   5.762   0.978   5.025  0.2093 -0.8772 -0.4353
 3737TIP3    H132626   5.840   1.030   5.005  1.0531 -1.4627  1.1254
 3737TIP3    H232627   5.739   1.003   5.115 -0.0698 -2.3025 -0.0780
 3738TIP3   OH232628   2.053   6.443   6.941 -0.2902  0.1727 -0.5226
 3738TIP3    H132629   2.104   6.509   6.895 -1.1561  1.3061  0.0890
 3738TIP3    H232630   2.082   6.359   6.904  0.1104  0.9484 -2.0153
 3739TIP3   OH232631   5.493   1.028  16.944 -0.4382  0.0530 -0.1943
 3739TIP3    H132632   5.579   1.029  16.902 -1.2287 -1.2270 -1.9669
 3739TIP3    H232633   5.453   0.946  16.917 -2.1251  0.4826  0.8103
 3740TIP3   OH232634   4.149   4.937   1.886 -0.1949 -0.3702 -0.4129
 3740TIP3    H132635   4.139   4.899   1.973  0.2169  1.5987  0.5601
 3740TIP3    H232636   4.135   5.031   1.899  1.2493  0.1622 -2.2168
 3741TIP3   OH232637   1.303   3.996   6.080  0.1742 -0.6445 -0.0042
 3741TIP3    H132638   1.234   3.951   6.032  0.5932 -0.5814 -0.6758
 3741TIP3    H232639   1.263   4.077   6.111 -0.3089 -1.0263  0.3925
 3742TIP3   OH232640   6.029   2.967   2.932  0.4290 -0.1158 -0.0021
 3742TIP3    H132641   5.971   3.000   3.000 -1.4236 -0.4346 -1.3376
 3742TIP3    H232642   6.003   2.875   2.921  3.8495 -1.5129  1.9845
 3743TIP3   OH232643   2.145   2.422   4.631  0.0841 -0.1798  0.3077
 3743TIP3    H132644   2.122   2.468   4.712 -0.2356  2.4864 -1.1682
 3743TIP3    H232645   2.238   2.400   4.642 -0.5323 -2.1673  2.3434
 3744TIP3   OH232646   1.472   4.814  13.865  0.4412 -0.4256 -0.2923
 3744TIP3    H132647   1.407   4.812  13.936 -2.2406 -1.0539 -2.5498
 3744TIP3    H232648   1.428   4.861  13.794  2.5663 -0.7508 -1.9303
 3745TIP3   OH232649   2.734   2.949   1.186 -0.1528 -0.3805  0.4951
 3745TIP3    H132650   2.803   2.930   1.121  0.7189 -0.2814  1.3649
 3745TIP3    H232651   2.707   3.038   1.166  2.6897  1.0859  2.4378
 3746TIP3   OH232652   5.779   2.729  11.474  0.2708  0.4323  0.0488
 3746TIP3    H132653   5.788   2.775  11.557  0.3647 -0.2434  0.4230
 3746TIP3    H232654   5.845   2.768  11.417  0.8392  0.2663  0.5847
 3747TIP3   OH232655   3.491   4.938  14.696  0.2667  0.1411 -0.1693
 3747TIP3    H132656   3.407   4.944  14.741 -1.0844 -0.4960 -2.4342
 3747TIP3    H232657   3.505   5.025  14.659  0.0166 -0.0461 -0.7220
 3748TIP3   OH232658   5.690   4.909   3.730 -0.3193 -0.0282  0.8184
 3748TIP3    H132659   5.717   4.962   3.655 -1.6060  2.6617  2.1069
 3748TIP3    H232660   5.609   4.867   3.701 -0.3391  0.2817  0.4175
 3749TIP3   OH232661   4.613   1.161   1.111  0.1880  0.4504 -0.2842
 3749TIP3    H132662   4.681   1.227   1.122  0.6237  0.0775 -0.6904
 3749TIP3    H232663   4.535   1.210   1.085 -0.2724  1.1050  2.1464
 3750TIP3   OH232664   3.142   1.910   4.370 -0.4164 -0.6009  0.1432
 3750TIP3    H132665   3.154   1.920   4.275 -0.4531  0.6193  0.2515
 3750TIP3    H232666   3.231   1.904   4.404 -0.2536  1.4401  0.2433
 3751TIP3   OH232667   3.012   2.949  11.519 -0.2966  0.7248  0.1202
 3751TIP3    H132668   3.084   3.010  11.534  1.2306 -1.0054  0.2572
 3751TIP3    H232669   3.008   2.896  11.598 -3.1531  2.0704  0.9892
 3752TIP3   OH232670   5.254   5.621  13.749  0.1478 -0.0814 -0.2853
 3752TIP3    H132671   5.210   5.656  13.671  1.2972 -0.8402 -1.3203
 3752TIP3    H232672   5.213   5.666  13.822 -0.8837  0.7579 -1.3396
 3753TIP3   OH232673   4.016   4.276   0.136 -0.1745 -0.5050  0.2653
 3753TIP3    H132674   4.013   4.192   0.181  0.8463 -1.4041 -1.2367
 3753TIP3    H232675   3.976   4.258   0.051  0.1302  0.5116 -0.0967
 3754TIP3   OH232676   1.071   4.232  16.536  0.6000  0.1317  0.1953
 3754TIP3    H132677   1.092   4.174  16.463 -0.5403  0.4094 -0.3871
 3754TIP3    H232678   1.024   4.177  16.598 -2.4486  0.7812 -1.3256
 3755TIP3   OH232679   0.552   0.923  15.841  0.3681  0.3886 -0.1467
 3755TIP3    H132680   0.637   0.930  15.883  0.3430  1.1083 -0.2155
 3755TIP3    H232681   0.491   0.962  15.904  0.1616  0.3861 -0.3433
 3756TIP3   OH232682   0.092   4.358   1.587  0.7145  0.0024  0.0038
 3756TIP3    H132683   0.131   4.282   1.629  2.7319  1.2061  0.4031
 3756TIP3    H232684   0.145   4.372   1.508 -2.0790 -1.3255 -2.3108
 3757TIP3   OH232685   1.009   1.013   2.351 -0.3263  0.1552 -0.6386
 3757TIP3    H132686   0.974   1.095   2.318  1.2620  0.5755 -1.3955
 3757TIP3    H232687   1.103   1.029   2.362  0.0187 -1.5212 -0.7477
 3758TIP3   OH232688   4.613   6.164   6.446  0.1494  0.4922  0.0277
 3758TIP3    H132689   4.675   6.112   6.497  0.2222  1.4567  0.9693
 3758TIP3    H232690   4.529   6.152   6.491 -0.2325 -0.2844 -0.8563
 3759TIP3   OH232691   5.234   4.719  12.907 -0.3064 -0.4456  0.0581
 3759TIP3    H132692   5.307   4.661  12.929 -0.0897 -0.2401 -0.1140
 3759TIP3    H232693   5.156   4.666  12.920 -0.0687 -1.1080 -1.0813
 3760TIP3   OH232694   5.634   6.746  11.158 -0.3197 -0.4265 -0.0524
 3760TIP3    H132695   5.558   6.791  11.196 -0.2147 -0.0371 -0.2917
 3760TIP3    H232696   5.637   6.778  11.067  0.8503  0.5301  0.2887
 3761TIP3   OH232697   6.418   0.780   5.378  0.0976 -0.6729 -0.0240
 3761TIP3    H132698   6.448   0.731   5.301  0.6335 -0.3029 -0.0589
 3761TIP3    H232699   6.444   0.870   5.360 -0.5841 -0.4280  0.1894
 3762TIP3   OH232700   2.255   1.614  16.087  0.0532 -0.4242  0.2569
 3762TIP3    H132701   2.309   1.579  16.158  1.1318 -1.7134 -1.1248
 3762TIP3    H232702   2.316   1.659  16.030 -0.7595  0.3792  0.0011
 3763TIP3   OH232703   0.830   3.735  17.053  0.5404  0.3072 -0.2142
 3763TIP3    H132704   0.788   3.675  16.991 -0.0936 -1.3096  1.6640
 3763TIP3    H232705   0.856   3.679  17.126  2.2625  1.9597  0.5228
 3764TIP3   OH232706   2.538   4.281   0.715  0.3753  0.2704  0.1970
 3764TIP3    H132707   2.525   4.187   0.720  1.7012  0.0920  0.7037
 3764TIP3    H232708   2.494   4.316   0.792  2.8770 -0.3411  2.0294
 3765TIP3   OH232709   3.458   1.482   0.691  0.4397 -0.3444  0.1649
 3765TIP3    H132710   3.408   1.563   0.677 -1.0169 -1.4161 -1.1331
 3765TIP3    H232711   3.550   1.510   0.687 -0.0266  1.3403  0.4331
 3766TIP3   OH232712   4.397   5.093  13.644  0.2063  0.4069 -0.3552
 3766TIP3    H132713   4.421   5.000  13.635  1.4903  0.4784  1.5957
 3766TIP3    H232714   4.303   5.095  13.629 -0.1703 -1.5537  1.2511
 3767TIP3   OH232715   1.120   0.127  11.313  0.0440 -0.0653  0.0535
 3767TIP3    H132716   1.186   0.080  11.364  2.0791  0.0488 -2.2652
 3767TIP3    H232717   1.154   0.126  11.223 -1.2892  3.2235 -0.6420
 3768TIP3   OH232718   5.174   3.132   0.695  0.2027  0.3621  0.3062
 3768TIP3    H132719   5.169   3.052   0.748  2.4694  1.2164  1.9810
 3768TIP3    H232720   5.262   3.166   0.713 -0.0725  2.3219 -1.7241
 3769TIP3   OH232721   3.111   6.414   1.284 -0.7506  0.2650  0.2532
 3769TIP3    H132722   3.151   6.496   1.314 -2.4229  1.5099 -0.7752
 3769TIP3    H232723   3.136   6.407   1.192 -1.1433 -0.0704  0.1727
 3770TIP3   OH232724   4.373   4.784  16.693  0.0296  0.3582 -0.1165
 3770TIP3    H132725   4.361   4.853  16.628  0.8863  1.6243  1.0243
 3770TIP3    H232726   4.373   4.829  16.777  1.6851 -0.8777  0.6038
 3771TIP3   OH232727   2.519   4.163   5.920 -0.2836 -0.0420 -0.4204
 3771TIP3    H132728   2.447   4.203   5.969  0.5599 -0.4121  1.1949
 3771TIP3    H232729   2.590   4.157   5.983  1.2262  0.3967 -1.9873
 3772TIP3   OH232730   4.520   3.296  17.168 -0.7167  0.2594 -0.8400
 3772TIP3    H132731   4.459   3.230  17.138 -0.0446 -1.1984  0.8419
 3772TIP3    H232732   4.604   3.251  17.174 -0.0982  1.4200 -0.2936
 3773TIP3   OH232733   0.641   2.067   5.210  0.1677 -0.7274  0.1330
 3773TIP3    H132734   0.563   2.082   5.157  0.6796 -0.9721 -0.7047
 3773TIP3    H232735   0.668   2.155   5.238  1.1764 -0.3555 -1.8848
 3774TIP3   OH232736   2.503   6.587   0.445  0.9185 -0.1303  0.1777
 3774TIP3    H132737   2.555   6.639   0.384  0.5369  2.4201  1.8582
 3774TIP3    H232738   2.558   6.577   0.522  0.6520 -1.5263  0.2042
 3775TIP3   OH232739   2.322   6.058   1.394  0.6169 -0.5100  0.6762
 3775TIP3    H132740   2.262   6.004   1.445 -3.3879 -0.5565 -3.4480
 3775TIP3    H232741   2.287   6.146   1.402  2.3037  0.1718  0.9862
 3776TIP3   OH232742   3.682   2.974   5.679  0.2904  0.4247 -0.2976
 3776TIP3    H132743   3.597   2.988   5.720  0.6081  0.5680  0.3185
 3776TIP3    H232744   3.724   2.907   5.733 -0.3212 -1.3971 -1.9136
 3777TIP3   OH232745   1.657   4.060  17.250  0.5410 -0.6940  0.0970
 3777TIP3    H132746   1.623   4.013  17.326  1.4038 -1.5521 -0.0352
 3777TIP3    H232747   1.583   4.113  17.220  0.2059 -0.2613  1.5813
 3778TIP3   OH232748   1.183   4.657   5.905  0.8230 -0.2860  0.1424
 3778TIP3    H132749   1.166   4.695   5.991 -1.7548 -0.7030 -0.0995
 3778TIP3    H232750   1.155   4.566   5.913 -0.6575 -0.0214 -1.4207
 3779TIP3   OH232751   5.829   4.812  11.393  0.2872  0.0708 -0.3589
 3779TIP3    H132752   5.764   4.855  11.337 -1.1794 -0.0385  1.1674
 3779TIP3    H232753   5.785   4.734  11.426  0.6998  0.6430  1.7103
 3780TIP3   OH232754   1.098   2.243   5.453  0.5119  0.2004 -0.2371
 3780TIP3    H132755   1.049   2.187   5.514  0.2751 -2.0563 -2.3291
 3780TIP3    H232756   1.077   2.207   5.366  0.8265  3.2489 -1.7040
 3781TIP3   OH232757   3.220   2.764  13.905  0.1987 -0.2329  0.6046
 3781TIP3    H132758   3.167   2.761  13.825  0.5970  2.0147  0.1749
 3781TIP3    H232759   3.156   2.777  13.975 -0.0922 -1.4908  0.5957
 3782TIP3   OH232760   3.175   3.927  13.434  0.2018  0.0779 -0.6556
 3782TIP3    H132761   3.086   3.949  13.407  0.6278 -0.5257 -2.6783
 3782TIP3    H232762   3.163   3.866  13.507 -0.9768  1.9399  0.8147
 3783TIP3   OH232763   4.352   4.527  17.293 -0.3927  0.1753 -0.4734
 3783TIP3    H132764   4.354   4.454  17.355  0.1323  0.2724 -0.3651
 3783TIP3    H232765   4.270   4.517  17.245 -0.3228 -0.4851 -0.4574
 3784TIP3   OH232766   3.293   1.041  12.787  0.5037 -0.0773 -0.3150
 3784TIP3    H132767   3.232   1.112  12.807  2.6732  1.5605  1.1182
 3784TIP3    H232768   3.314   1.054  12.694  0.4578  0.8715 -0.2102
 3785TIP3   OH232769   2.480   2.148   0.318  0.0932  0.4208  0.1918
 3785TIP3    H132770   2.486   2.136   0.413  0.1548  1.0300  0.2746
 3785TIP3    H232771   2.397   2.108   0.293  0.2323 -0.0326  0.4510
 3786TIP3   OH232772   0.054   0.280  13.855 -0.1757 -0.0192  0.4191
 3786TIP3    H132773   0.054   0.328  13.772 -0.9183  1.8793  1.4457
 3786TIP3    H232774   0.147   0.273  13.878  0.0446 -0.7649 -0.6731
 3787TIP3   OH232775   4.891   1.549  15.400 -0.2725  0.5581  0.0007
 3787TIP3    H132776   4.963   1.557  15.338 -1.0061 -1.4724 -1.2267
 3787TIP3    H232777   4.934   1.539  15.485  1.0533 -1.9952 -0.8521
 3788TIP3   OH232778   5.087   1.396  14.006 -0.1666  0.6008  0.2046
 3788TIP3    H132779   5.050   1.423  14.090 -1.4244  1.1207 -0.4880
 3788TIP3    H232780   5.139   1.471  13.978  2.6373 -0.5883  1.7742
 3789TIP3   OH232781   1.582   5.408   3.516  0.0681 -0.2355  0.3354
 3789TIP3    H132782   1.524   5.434   3.587 -0.4240 -0.3615 -0.0187
 3789TIP3    H232783   1.536   5.432   3.436  0.0886 -1.1874  0.0305
 3790TIP3   OH232784   1.926   6.105  12.185 -0.7979  0.2329  0.4464
 3790TIP3    H132785   2.009   6.114  12.232 -0.6546 -1.5742  0.6048
 3790TIP3    H232786   1.867   6.066  12.249 -0.9748 -1.0337 -0.4555
 3791TIP3   OH232787   5.998   3.932  14.928 -0.2793 -0.0563 -0.3913
 3791TIP3    H132788   5.919   3.982  14.913 -0.6149 -0.7858 -1.1338
 3791TIP3    H232789   6.033   3.966  15.011 -0.8959  0.8547 -0.4923
 3792TIP3   OH232790   3.283   6.659   4.801 -0.7407 -0.2188 -0.2871
 3792TIP3    H132791   3.337   6.671   4.722  1.6638 -0.5743  1.1894
 3792TIP3    H232792   3.313   6.728   4.860 -2.8731  0.3736  0.1861
 3793TIP3   OH232793   1.535   3.299  13.305 -0.1209 -0.3080  0.1102
 3793TIP3    H132794   1.602   3.329  13.366 -1.0427 -0.7468  1.3883
 3793TIP3    H232795   1.553   3.206  13.292  2.1365  0.3952 -3.0736
 3794TIP3   OH232796   2.083   6.385  14.995 -0.0357  0.3440  0.4169
 3794TIP3    H132797   2.092   6.376  15.090  2.5421  0.7229  0.2852
 3794TIP3    H232798   2.024   6.460  14.983  0.1926  0.7560  1.7234
 3795TIP3   OH232799   2.369   6.508  15.341 -0.0752  0.0767  0.5562
 3795TIP3    H132800   2.342   6.432  15.392 -0.3727 -0.9277 -1.0124
 3795TIP3    H232801   2.369   6.477  15.250  1.2297  1.5441  0.0028
 3796TIP3   OH232802   1.775   3.077   4.187  0.2573 -0.0426 -0.0606
 3796TIP3    H132803   1.857   3.038   4.154  0.4114 -0.0395  0.3177
 3796TIP3    H232804   1.803   3.153   4.238 -0.0385  0.5076 -0.7019
 3797TIP3   OH232805   6.407   4.764   5.060 -0.1097 -0.0596 -0.0145
 3797TIP3    H132806   6.382   4.787   4.970 -0.6877 -0.9194 -0.0951
 3797TIP3    H232807   6.483   4.707   5.050 -0.4060 -0.4666  0.0086
 3798TIP3   OH232808   4.114   2.536   1.939  0.1712 -0.3484 -0.6606
 3798TIP3    H132809   4.126   2.469   1.871  0.4703 -0.4554 -0.5070
 3798TIP3    H232810   4.021   2.534   1.959  0.1279 -0.5085 -0.8741
 3799TIP3   OH232811   1.709   3.269   6.335 -0.2798 -0.5151 -0.2340
 3799TIP3    H132812   1.789   3.257   6.385  0.2594  0.5507 -0.7976
 3799TIP3    H232813   1.648   3.205   6.370  0.3421 -0.3346  1.2272
 3800TIP3   OH232814   1.450   1.385  12.684 -0.3827  0.2041  0.1953
 3800TIP3    H132815   1.468   1.293  12.665 -0.4209  0.2492 -0.0592
 3800TIP3    H232816   1.453   1.428  12.599 -0.6591  0.3891  0.2806
 3801TIP3   OH232817   1.469   3.786   5.776  0.1461  0.1566  0.5731
 3801TIP3    H132818   1.533   3.735   5.726  0.3660  1.7142 -0.8215
 3801TIP3    H232819   1.491   3.877   5.757 -2.1412  0.7430  0.4932
 3802TIP3   OH232820   2.315   0.826   3.897 -0.5451 -0.3937 -0.4629
 3802TIP3    H132821   2.306   0.732   3.910  0.4455 -0.4570 -0.1138
 3802TIP3    H232822   2.243   0.865   3.946 -1.2353 -0.9818 -0.9902
 3803TIP3   OH232823   4.397   0.804  17.019  0.7500  0.0872 -0.4102
 3803TIP3    H132824   4.434   0.721  17.050  0.4750 -0.1439 -0.6972
 3803TIP3    H232825   4.450   0.828  16.943 -0.9613 -1.3471 -2.1879
 3804TIP3   OH232826   6.347   5.578   4.736 -0.1916  0.3841 -0.1470
 3804TIP3    H132827   6.360   5.615   4.649  0.5637 -0.6716 -0.5033
 3804TIP3    H232828   6.436   5.560   4.768 -0.4574  0.7372  0.8436
 3805TIP3   OH232829   3.585   6.391   2.427  0.3668 -0.3402 -0.5326
 3805TIP3    H132830   3.669   6.369   2.386  2.0007 -0.4616  2.5787
 3805TIP3    H232831   3.595   6.482   2.454 -0.2969 -0.5144  0.3387
 3806TIP3   OH232832   4.107   0.842   1.558  0.0881 -0.0357 -0.1919
 3806TIP3    H132833   4.029   0.821   1.507 -0.5918  1.1859  0.3110
 3806TIP3    H232834   4.091   0.802   1.643  0.6468 -0.9745 -0.5189
 3807TIP3   OH232835   4.901   2.530   4.039  0.1110 -0.2150 -0.1700
 3807TIP3    H132836   4.809   2.514   4.019  0.7858 -3.0274 -1.5089
 3807TIP3    H232837   4.915   2.485   4.122  0.2113  0.5083  0.2083
 3808TIP3   OH232838   1.219   0.050   2.084 -0.6742 -0.1964 -1.1117
 3808TIP3    H132839   1.124   0.054   2.095 -0.4312 -0.1770  1.6518
 3808TIP3    H232840   1.235   0.085   1.996 -3.0151  2.3608 -0.6473
 3809TIP3   OH232841   0.573   6.418  12.226 -0.2197 -0.0703 -0.7876
 3809TIP3    H132842   0.491   6.369  12.219  0.1218 -0.5725 -1.3414
 3809TIP3    H232843   0.639   6.353  12.248  0.2171  0.1436 -1.4041
 3810TIP3   OH232844   0.816   1.303  16.228  0.3622 -0.0910 -0.0567
 3810TIP3    H132845   0.738   1.346  16.192  0.4334 -0.4013 -0.5987
 3810TIP3    H232846   0.861   1.371  16.278  0.1762  0.3094 -0.4362
 3811TIP3   OH232847   2.041   5.938   4.285 -0.2938  0.1027  0.2359
 3811TIP3    H132848   1.948   5.961   4.294 -0.4669  0.1206 -1.2914
 3811TIP3    H232849   2.088   6.019   4.307 -0.5795 -0.1342  1.8230
 3812TIP3   OH232850   2.889   3.724  14.895 -0.1998  0.2692  0.3884
 3812TIP3    H132851   2.893   3.818  14.876  0.5670  0.0067 -0.8531
 3812TIP3    H232852   2.863   3.684  14.812  1.0376 -0.7528  0.4622
 3813TIP3   OH232853   2.256   3.429  12.130  0.2192  0.0506 -0.1156
 3813TIP3    H132854   2.182   3.483  12.101  0.2162 -0.1171 -0.4241
 3813TIP3    H232855   2.315   3.428  12.055 -1.3215 -3.1667 -1.4505
 3814TIP3   OH232856   4.961   4.045   5.661 -0.1038  0.4602 -0.0246
 3814TIP3    H132857   4.893   3.985   5.693 -0.1613  0.2395 -0.5516
 3814TIP3    H232858   4.980   4.102   5.736  1.0545 -1.1987  1.0376
 3815TIP3   OH232859   3.215   3.343   2.728  0.3986 -0.6160  0.5729
 3815TIP3    H132860   3.288   3.402   2.711  0.9081 -1.6433 -1.0428
 3815TIP3    H232861   3.247   3.283   2.795  1.0284 -1.0275 -0.0863
 3816TIP3   OH232862   3.180   4.818   1.481 -0.2251  0.1963 -0.5473
 3816TIP3    H132863   3.203   4.862   1.399 -1.1898  0.5456 -0.6516
 3816TIP3    H232864   3.100   4.863   1.510 -0.8917 -1.0744 -0.3432
 3817TIP3   OH232865   0.196   0.634   3.287 -0.4683  0.3775 -0.1813
 3817TIP3    H132866   0.146   0.688   3.348 -0.8238 -0.5809  0.4161
 3817TIP3    H232867   0.281   0.677   3.280 -0.5100  0.6397  0.8106
 3818TIP3   OH232868   4.470   1.451  14.820  0.5944  0.0960 -0.6895
 3818TIP3    H132869   4.480   1.460  14.914  1.2166 -1.4828 -0.5815
 3818TIP3    H232870   4.559   1.445  14.786  0.3680 -1.6915 -1.0875
 3819TIP3   OH232871   4.259   2.239  15.474 -0.0313 -0.0071  0.0144
 3819TIP3    H132872   4.208   2.200  15.545  0.3506 -0.4904  0.0315
 3819TIP3    H232873   4.197   2.293  15.427 -0.2489  0.4708  0.8246
 3820TIP3   OH232874   2.856   1.788  11.691  0.7713 -0.1842 -0.4182
 3820TIP3    H132875   2.896   1.749  11.613 -1.5466  0.2800 -1.9635
 3820TIP3    H232876   2.916   1.857  11.717  3.3139 -2.4892  0.3839
 3821TIP3   OH232877   0.263   2.358  12.475 -0.3530 -0.1379  0.0492
 3821TIP3    H132878   0.185   2.314  12.506  0.0110 -2.2114 -1.7772
 3821TIP3    H232879   0.327   2.347  12.545 -0.5968 -1.6602  0.0513
 3822TIP3   OH232880   0.903   1.218   4.460  0.0012  0.0981 -0.2636
 3822TIP3    H132881   0.876   1.310   4.449 -1.6572 -0.0504  1.8293
 3822TIP3    H232882   0.982   1.222   4.513 -0.8351  0.3480  1.0304
 3823TIP3   OH232883   3.045   1.494   5.182 -0.9082  0.7374 -0.6596
 3823TIP3    H132884   3.095   1.422   5.219 -1.4058  0.5549 -0.3290
 3823TIP3    H232885   3.090   1.516   5.101  0.2684  1.2192  0.0962
 3824TIP3   OH232886   2.224   4.282  14.547 -0.1947  0.0200 -0.0937
 3824TIP3    H132887   2.199   4.332  14.469  1.6191  1.3586  0.1173
 3824TIP3    H232888   2.311   4.249  14.527 -0.4102 -1.0964  0.7270
 3825TIP3   OH232889   1.368   5.893   3.392  0.2990  0.5108  0.1875
 3825TIP3    H132890   1.422   5.957   3.344  0.0620 -0.9852 -2.2297
 3825TIP3    H232891   1.408   5.890   3.479  2.1589  1.7606 -0.5444
 3826TIP3   OH232892   4.867   0.927  15.869 -0.3136  0.0031  0.1489
 3826TIP3    H132893   4.786   0.972  15.846 -0.9426 -1.2757 -0.2615
 3826TIP3    H232894   4.936   0.983  15.834 -1.0634  0.6872 -0.2724
 3827TIP3   OH232895   1.641   0.566  17.246 -0.4005 -0.5263 -0.1842
 3827TIP3    H132896   1.694   0.646  17.244 -0.9301 -0.1796 -0.5907
 3827TIP3    H232897   1.551   0.597  17.251 -0.5677 -1.1143  0.9562
 3828TIP3   OH232898   0.724   5.707   2.539  0.5702  0.1533 -0.1081
 3828TIP3    H132899   0.682   5.629   2.575 -0.2597  1.4369  1.8546
 3828TIP3    H232900   0.692   5.711   2.448 -0.6080 -0.9334  0.2293
 3829TIP3   OH232901   2.564   4.696   1.505  0.1601  0.0004  0.1099
 3829TIP3    H132902   2.640   4.675   1.560  1.2491  0.0761 -1.3090
 3829TIP3    H232903   2.548   4.615   1.456 -0.0710  0.2889 -0.2920
 3830TIP3   OH232904   2.125   6.333  15.541  0.1223 -0.0143 -0.2927
 3830TIP3    H132905   2.184   6.322  15.616  1.6808  1.1898 -1.2696
 3830TIP3    H232906   2.059   6.396  15.571 -0.0259 -0.5053  0.4502
 3831TIP3   OH232907   4.921   5.530  11.580  0.3139 -0.0652 -0.4341
 3831TIP3    H132908   4.976   5.576  11.516 -0.1755  1.0762 -0.0545
 3831TIP3    H232909   4.959   5.442  11.585  1.0455  0.1743 -1.4534
 3832TIP3   OH232910   6.172   3.071   6.774  0.1840 -0.2348 -0.2000
 3832TIP3    H132911   6.220   2.990   6.787 -1.0079 -0.6650  2.0241
 3832TIP3    H232912   6.082   3.043   6.758  0.1815  0.6150 -1.8336
 3833TIP3   OH232913   0.888   5.259  15.176  0.3040  0.0971 -0.0849
 3833TIP3    H132914   0.815   5.273  15.237 -0.6051  1.0331 -1.3404
 3833TIP3    H232915   0.945   5.334  15.188 -0.3805  0.7981 -1.0375
 3834TIP3   OH232916   4.940   4.457  14.170 -0.6720  0.3612 -0.0341
 3834TIP3    H132917   4.932   4.363  14.187 -1.2731  0.6277  1.2712
 3834TIP3    H232918   4.869   4.476  14.109  0.6127 -0.3452 -1.8326
 3835TIP3   OH232919   4.707   5.776   3.568  0.0415 -0.1131 -0.2736
 3835TIP3    H132920   4.660   5.858   3.583  0.3593  0.3089 -1.4732
 3835TIP3    H232921   4.788   5.786   3.618 -0.6453 -0.4108  0.9428
 3836TIP3   OH232922   2.990   2.745  13.704  0.1459  0.3437  0.6535
 3836TIP3    H132923   2.908   2.795  13.695  0.0039 -0.2743 -4.3451
 3836TIP3    H232924   2.962   2.658  13.734 -0.7310  0.7713  1.1066
 3837TIP3   OH232925   0.471   0.569  16.990 -0.3484  0.3312  0.0371
 3837TIP3    H132926   0.381   0.596  16.971 -0.6559 -0.0526  0.8884
 3837TIP3    H232927   0.468   0.473  16.986  0.4902  0.3390 -1.9140
 3838TIP3   OH232928   1.184   0.946   1.313 -0.9554 -0.0651  0.2999
 3838TIP3    H132929   1.133   0.931   1.393 -1.3868 -2.6673 -0.3671
 3838TIP3    H232930   1.137   1.017   1.268 -2.6995 -0.8407  0.8004
 3839TIP3   OH232931   2.738   2.716  10.952 -0.8964  0.1392  0.1332
 3839TIP3    H132932   2.795   2.721  11.029 -0.1708  0.1065 -0.3926
 3839TIP3    H232933   2.658   2.761  10.979 -0.1154  1.3982  0.4382
 3840TIP3   OH232934   2.674   5.957  15.276 -1.0142  0.2211 -0.0212
 3840TIP3    H132935   2.651   6.039  15.319  0.9104 -0.8711  3.4690
 3840TIP3    H232936   2.626   5.889  15.324 -0.0866 -0.9557 -0.6709
 3841TIP3   OH232937   5.072   6.335  11.622 -0.3403  0.0319  0.2460
 3841TIP3    H132938   5.043   6.246  11.642  1.7404 -0.1333  3.3972
 3841TIP3    H232939   5.130   6.325  11.547 -1.6282 -0.9207 -0.6637
 3842TIP3   OH232940   4.598   0.593  13.476 -0.5272 -0.0216  0.1764
 3842TIP3    H132941   4.684   0.583  13.435 -0.7665 -1.2868 -0.0610
 3842TIP3    H232942   4.611   0.660  13.543  0.3706  0.5796 -0.5802
 3843TIP3   OH232943   6.462   0.912  13.012  0.4406 -0.0391 -0.0964
 3843TIP3    H132944   6.486   0.894  12.921 -0.7600 -0.8010 -0.2825
 3843TIP3    H232945   6.497   0.838  13.062  3.6308  1.7141  0.5714
 3844TIP3   OH232946   1.739   5.684   0.438 -0.0792  0.6137 -0.3641
 3844TIP3    H132947   1.736   5.648   0.350 -0.9674  0.3542 -0.2371
 3844TIP3    H232948   1.825   5.727   0.444  0.5281 -0.5001 -0.8929
 3845TIP3   OH232949   0.301   3.844   0.735  0.2337  0.4074 -0.6789
 3845TIP3    H132950   0.219   3.816   0.694  0.2824 -0.6531 -0.0985
 3845TIP3    H232951   0.279   3.924   0.782 -0.8207 -0.5740  0.5822
 3846TIP3   OH232952   1.218   1.092   5.076 -0.8582 -0.0511 -0.1374
 3846TIP3    H132953   1.171   1.051   5.004  0.6290 -1.3343 -0.4454
 3846TIP3    H232954   1.232   1.021   5.139  2.4473 -0.3576 -1.0236
 3847TIP3   OH232955   1.272   6.401   6.037 -0.4074  0.2644 -0.3996
 3847TIP3    H132956   1.280   6.463   6.110 -0.6136 -0.9892  0.7399
 3847TIP3    H232957   1.357   6.358   6.032 -1.0538 -1.2101  0.6030
 3848TIP3   OH232958   2.989   3.280   4.046 -0.3660  0.1340  0.0815
 3848TIP3    H132959   2.946   3.259   3.963  1.8594 -0.3431 -1.0464
 3848TIP3    H232960   2.987   3.198   4.096 -0.1117 -0.1079 -0.2972
 3849TIP3   OH232961   5.930   0.094   1.202 -0.7510  0.0034  0.5590
 3849TIP3    H132962   5.921   0.179   1.158  1.9644  0.1943  0.2154
 3849TIP3    H232963   6.005   0.105   1.261  0.1132 -2.3252  0.0003
 3850TIP3   OH232964   2.687   1.032   0.850  0.4090  0.0295 -0.1418
 3850TIP3    H132965   2.735   0.966   0.901  0.8375  1.2156  1.0577
 3850TIP3    H232966   2.668   0.989   0.767  2.6624 -0.8412 -0.2843
 3851TIP3   OH232967   6.102   5.671   5.354 -0.0553 -0.5353  0.3082
 3851TIP3    H132968   6.031   5.609   5.371 -1.5126  0.6243 -1.1815
 3851TIP3    H232969   6.090   5.696   5.262  2.5048 -0.5207 -0.1073
 3852TIP3   OH232970   4.407   3.199   5.643  0.5139  0.6206 -0.6659
 3852TIP3    H132971   4.391   3.293   5.637 -1.0067  0.4294 -0.0475
 3852TIP3    H232972   4.463   3.189   5.720  1.0160  1.0383 -0.9668
 3853TIP3   OH232973   2.890   4.212  11.957 -0.3900 -0.0886 -0.2890
 3853TIP3    H132974   2.817   4.167  11.913 -0.4144 -0.2312 -0.1031
 3853TIP3    H232975   2.911   4.156  12.031 -1.1200  0.7281  0.5704
 3854TIP3   OH232976   6.259   0.771   0.804 -0.4937  0.1857  0.5403
 3854TIP3    H132977   6.244   0.815   0.888  1.6692  1.6647  0.2422
 3854TIP3    H232978   6.269   0.842   0.741  0.2612 -0.8172 -0.5128
 3855TIP3   OH232979   1.398   2.404   6.396  0.0123 -0.3399  0.5873
 3855TIP3    H132980   1.482   2.394   6.352  0.9783 -1.7337  2.5836
 3855TIP3    H232981   1.385   2.499   6.403  1.2630 -0.1062 -0.0366
 3856TIP3   OH232982   0.086   5.233  16.999 -0.1881 -0.2042 -0.3286
 3856TIP3    H132983   0.144   5.264  17.069  1.0599 -0.3952 -1.2330
 3856TIP3    H232984  -0.002   5.257  17.028  0.0534 -1.9664  2.2020
 3857TIP3   OH232985   2.692   3.267   4.960 -0.5497  0.5632 -0.0983
 3857TIP3    H132986   2.672   3.257   5.053  0.4653  0.9075  0.1685
 3857TIP3    H232987   2.609   3.250   4.916 -1.1084  0.6623  0.8839
 3858TIP3   OH232988   4.594   3.994  16.697  0.1308 -0.4852  0.1355
 3858TIP3    H132989   4.590   4.061  16.629 -0.4171 -0.5050  0.1441
 3858TIP3    H232990   4.604   4.042  16.779  0.1357 -0.4326  0.1037
 3859TIP3   OH232991   0.439   0.353  12.953 -0.2356 -0.4775  0.5658
 3859TIP3    H132992   0.414   0.276  12.901  0.3786 -0.7199  0.6287
 3859TIP3    H232993   0.454   0.318  13.041 -1.3336 -0.0588  0.9391
 3860TIP3   OH232994   4.309   2.945   5.865  0.3978 -0.2081 -0.3160
 3860TIP3    H132995   4.357   2.878   5.817 -0.3093 -0.0348 -1.2864
 3860TIP3    H232996   4.344   3.028   5.832 -0.5358 -0.0801 -1.0303
 3861TIP3   OH232997   2.302   1.824  14.533 -0.5273  0.3167 -0.1507
 3861TIP3    H132998   2.302   1.849  14.440 -0.3766  1.6891  0.2006
 3861TIP3    H232999   2.353   1.743  14.536 -0.2225  0.4537 -1.2110
 3862TIP3   OH233000   4.410   5.948   2.356  0.2474  0.1051 -0.1245
 3862TIP3    H133001   4.326   5.995   2.361 -0.4544 -0.9920 -0.9350
 3862TIP3    H233002   4.475   6.016   2.344 -0.2518  1.1671  2.4935
 3863TIP3   OH233003   1.266   2.662   0.071  0.2220  0.1171 -0.7249
 3863TIP3    H133004   1.222   2.732   0.119 -2.1439 -0.3203 -2.0792
 3863TIP3    H233005   1.298   2.602   0.138  0.8488  1.6567  0.3880
 3864TIP3   OH233006   2.886   5.093  17.195 -0.0050 -0.1535 -0.5070
 3864TIP3    H133007   2.833   5.026  17.240  0.1948  0.0963  0.1056
 3864TIP3    H233008   2.930   5.140  17.265  2.4993 -1.5292 -1.0391
 3865TIP3   OH233009   1.263   0.865   5.326  0.0214 -0.5504 -0.3230
 3865TIP3    H133010   1.236   0.913   5.404  0.4337  0.6307 -0.8790
 3865TIP3    H233011   1.357   0.881   5.320 -0.3704  1.5006 -2.4186
 3866TIP3   OH233012   4.030   0.823   5.698 -0.6851 -0.3768  0.6992
 3866TIP3    H133013   4.000   0.914   5.697 -0.5775 -0.3395 -0.5872
 3866TIP3    H233014   4.125   0.830   5.699 -0.6811 -0.4791  0.9973
 3867TIP3   OH233015   2.258   4.528   3.695  0.0873  0.8924 -0.7514
 3867TIP3    H133016   2.228   4.513   3.785 -0.6163  2.3574 -0.7124
 3867TIP3    H233017   2.182   4.567   3.651  0.4919  0.3821 -1.9298
 3868TIP3   OH233018   6.528   4.118   4.612 -0.5602  0.4522 -0.1269
 3868TIP3    H133019   6.491   4.059   4.677  0.5547 -1.9135 -1.4940
 3868TIP3    H233020   6.469   4.111   4.537  1.1121 -1.3461 -1.3756
 3869TIP3   OH233021   4.475   1.479   0.240 -0.5330 -0.2159 -0.1925
 3869TIP3    H133022   4.526   1.418   0.293 -0.2029 -1.2073 -1.5860
 3869TIP3    H233023   4.492   1.452   0.149 -0.6901  1.7054 -0.8475
 3870TIP3   OH233024   4.411   2.079   2.785  0.2934  0.3256  0.1756
 3870TIP3    H133025   4.317   2.078   2.806  0.0391  0.1410 -0.9376
 3870TIP3    H233026   4.454   2.067   2.870 -0.7024 -0.3319  0.6047
 3871TIP3   OH233027   2.623   2.795  11.753  0.2534 -0.5162 -0.9171
 3871TIP3    H133028   2.572   2.840  11.820  2.0271  0.7119 -0.2986
 3871TIP3    H233029   2.565   2.789  11.678 -0.6098  1.4309 -0.4790
 3872TIP3   OH233030   5.000   3.340  13.034 -0.2951 -0.5693 -0.4297
 3872TIP3    H133031   4.908   3.344  13.009 -0.3318 -0.4237 -0.2697
 3872TIP3    H233032   5.024   3.431  13.051  0.0417 -0.5374 -1.0706
 3873TIP3   OH233033   0.189   3.486  16.511  0.7052  0.2122  1.0192
 3873TIP3    H133034   0.114   3.472  16.569 -1.3364  0.3460 -1.4104
 3873TIP3    H233035   0.186   3.579  16.489 -0.4730 -0.3271 -1.5486
 3874TIP3   OH233036   6.318   2.036   0.293 -0.7129 -0.2935  0.7801
 3874TIP3    H133037   6.228   2.065   0.280 -0.6695 -0.7635 -0.8381
 3874TIP3    H233038   6.320   1.946   0.258  0.4806 -0.1266  0.3588
 3875TIP3   OH233039   2.388   2.979   2.934  0.0149  0.2238 -0.0338
 3875TIP3    H133040   2.308   3.027   2.958 -0.7517 -1.2929  0.5446
 3875TIP3    H233041   2.392   2.987   2.838 -0.9387  0.1553 -0.0867
 3876TIP3   OH233042   5.604   0.599   3.302 -0.1248  0.2810 -0.1827
 3876TIP3    H133043   5.647   0.526   3.347  0.3229  0.4751 -0.2918
 3876TIP3    H233044   5.561   0.559   3.227  0.0709  0.1228 -0.2104
 3877TIP3   OH233045   4.158   2.215   0.616  0.0154  0.0699 -0.0451
 3877TIP3    H133046   4.148   2.161   0.694 -1.2993  0.8840  0.3818
 3877TIP3    H233047   4.247   2.249   0.621 -0.2485  0.6143  1.4381
 3878TIP3   OH233048   6.270   3.560  14.741 -0.3434 -0.3511 -0.2096
 3878TIP3    H133049   6.350   3.509  14.755 -1.5143 -2.0583  0.7105
 3878TIP3    H233050   6.209   3.498  14.700 -0.3033  1.7181 -3.8220
 3879TIP3   OH233051   6.424   5.043  15.721 -0.1607  0.8111 -0.1226
 3879TIP3    H133052   6.432   5.136  15.697 -1.6759  0.6592 -1.3659
 3879TIP3    H233053   6.335   5.035  15.754 -0.0909 -0.2510 -0.1816
 3880TIP3   OH233054   5.821   4.437   4.311  0.8331  0.3858  0.1131
 3880TIP3    H133055   5.823   4.374   4.240  2.0105 -0.6324  1.0096
 3880TIP3    H233056   5.874   4.397   4.380  0.0902  1.5344  1.3982
 3881TIP3   OH233057   4.039   5.958   0.056  0.2304  0.5840  0.3100
 3881TIP3    H133058   4.103   5.892   0.083  1.1146  1.5648  0.6606
 3881TIP3    H233059   4.087   6.015  -0.004 -0.9807 -0.0200 -1.3168
 3882TIP3   OH233060   6.473   0.779  14.813 -0.4529  0.1989  0.5618
 3882TIP3    H133061   6.438   0.867  14.805  0.1660  0.3895 -0.1707
 3882TIP3    H233062   6.468   0.759  14.907 -1.5041  0.6214  0.6104
 3883TIP3   OH233063   0.041   5.343   0.059  1.1245  0.2023 -0.0358
 3883TIP3    H133064   0.133   5.319   0.062  1.7043  1.9802 -1.9130
 3883TIP3    H233065   0.006   5.294  -0.015  0.7043  0.0559  0.2537
 3884TIP3   OH233066   2.193   2.789   2.190  0.5321 -0.4403 -0.7415
 3884TIP3    H133067   2.124   2.848   2.160  1.8815  1.0769 -0.9763
 3884TIP3    H233068   2.155   2.702   2.182 -1.0359  0.2948 -1.6992
 3885TIP3   OH233069   3.532   0.781   4.576 -0.4884  0.6164 -0.3031
 3885TIP3    H133070   3.461   0.821   4.526 -0.3348  2.2428  0.6949
 3885TIP3    H233071   3.591   0.854   4.595  1.2221 -0.5990 -0.6832
 3886TIP3   OH233072   2.827   1.218   0.692 -0.2563  0.8336 -0.1539
 3886TIP3    H133073   2.910   1.258   0.718 -0.6018  1.3709  0.1235
 3886TIP3    H233074   2.811   1.152   0.758  0.8043 -0.4786 -1.1355
 3887TIP3   OH233075   1.589   1.011   4.848  0.3783  0.1310  1.1214
 3887TIP3    H133076   1.613   1.070   4.920  1.2921 -0.4419  1.3068
 3887TIP3    H233077   1.644   1.040   4.774  1.1699 -0.7500  1.3428
 3888TIP3   OH233078   5.630   6.072  10.494 -0.2044  0.2057 -0.5171
 3888TIP3    H133079   5.658   6.018  10.421 -1.1942  0.4242 -1.0742
 3888TIP3    H233080   5.535   6.062  10.496 -0.1031 -0.8838  1.5910
 3889TIP3   OH233081   6.285   6.596  10.728 -0.0112  0.5912  0.8143
 3889TIP3    H133082   6.356   6.625  10.786  2.4696  1.6821 -2.4560
 3889TIP3    H233083   6.311   6.628  10.642 -2.5678 -2.4255 -1.2593
 3890TIP3   OH233084   2.572   1.277  15.710  0.2467 -0.1109  0.5939
 3890TIP3    H133085   2.554   1.203  15.652 -0.4736  0.8148 -0.3911
 3890TIP3    H233086   2.536   1.251  15.794  0.3007 -1.0124  0.3502
 3891TIP3   OH233087   1.703   0.068   3.135  0.3254 -0.3624 -0.1589
 3891TIP3    H133088   1.638   0.132   3.162  0.8703  0.7413 -1.3615
 3891TIP3    H233089   1.725   0.093   3.045  0.1554 -2.5652 -0.8776
 3892TIP3   OH233090   6.484   3.517  14.192 -0.1352 -0.8423  0.8703
 3892TIP3    H133091   6.557   3.499  14.251  1.9314  0.0976 -1.2285
 3892TIP3    H233092   6.459   3.430  14.158  0.9847 -1.0664  0.5689
 3893TIP3   OH233093   0.641   3.051   1.269  0.6072 -0.1809  0.0209
 3893TIP3    H133094   0.595   3.135   1.260  2.6894  1.3122  2.1601
 3893TIP3    H233095   0.678   3.035   1.182  1.1917  1.7803 -0.1373
 3894TIP3   OH233096   2.299   6.748  14.307 -0.2443  0.3059  0.9744
 3894TIP3    H133097   2.221   6.740  14.362 -1.3943  1.0902 -0.4995
 3894TIP3    H233098   2.270   6.724  14.220  1.3059  0.0919  0.4920
 3895TIP3   OH233099   4.812   4.386   3.996  0.6134  0.4932  0.1723
 3895TIP3    H133100   4.729   4.362   4.036  0.2834 -1.2403 -1.4525
 3895TIP3    H233101   4.789   4.451   3.930  0.0215 -2.1216 -2.3553
 3896TIP3   OH233102   1.701   3.226  11.390  0.3394  0.2227  0.4001
 3896TIP3    H133103   1.677   3.307  11.435  1.6819  1.2901 -0.6748
 3896TIP3    H233104   1.727   3.166  11.460  0.0214  0.9759  1.1786
 3897TIP3   OH233105   1.472   2.709  16.844  0.5641 -0.0745  0.2851
 3897TIP3    H133106   1.524   2.759  16.781  0.2575  1.0849  0.9265
 3897TIP3    H233107   1.462   2.767  16.919  0.4825 -1.2371  1.2108
 3898TIP3   OH233108   0.839   3.104  15.486  0.1546 -0.2969  0.5592
 3898TIP3    H133109   0.761   3.071  15.441 -0.5682  2.0877 -0.0829
 3898TIP3    H233110   0.835   3.064  15.573 -0.7866 -1.6081 -0.0529
 3899TIP3   OH233111   6.742   1.055   0.259  0.3923 -0.0136 -0.4353
 3899TIP3    H133112   6.769   1.051   0.167 -1.1087 -0.5698 -0.8835
 3899TIP3    H233113   6.718   1.146   0.273 -0.7219 -0.1970 -1.0312
 3900TIP3   OH233114   3.777   3.174   1.041 -0.2077 -0.0968  0.0320
 3900TIP3    H133115   3.829   3.094   1.036 -0.5672 -0.3366  0.1047
 3900TIP3    H233116   3.694   3.152   0.999 -0.5514  0.0400  0.6234
 3901TIP3   OH233117   5.245   6.034  15.871  0.7944 -0.2997  0.0874
 3901TIP3    H133118   5.222   6.048  15.963 -1.0920 -0.3747 -0.3301
 3901TIP3    H233119   5.301   5.957  15.872  2.2469  0.7107  1.3165
 3902TIP3   OH233120   0.085   6.099  13.695 -0.3484  0.7238 -0.1322
 3902TIP3    H133121   0.123   6.149  13.768 -0.5639 -0.7932  1.0662
 3902TIP3    H233122   0.100   6.155  13.619  0.6582  1.9922  0.9219
 3903TIP3   OH233123   0.364   1.123  13.459 -0.5679 -0.2740 -0.2090
 3903TIP3    H133124   0.330   1.200  13.413  1.4255  0.3947 -0.6648
 3903TIP3    H233125   0.292   1.095  13.516 -1.2599  2.0595  0.1617
 3904TIP3   OH233126   1.757   1.958  17.257 -0.0446 -0.4136 -0.2482
 3904TIP3    H133127   1.751   1.884  17.317  0.1287  1.0867  1.7098
 3904TIP3    H233128   1.684   1.946  17.196 -0.7800 -1.5175  0.8216
 3905TIP3   OH233129   3.845   3.113  16.643 -0.4773  0.1554  0.8060
 3905TIP3    H133130   3.918   3.122  16.582 -1.3722 -0.4030 -0.3849
 3905TIP3    H233131   3.884   3.128  16.730  0.8210  0.9483  0.1174
 3906TIP3   OH233132   2.942   0.690   5.956 -0.2197 -0.1267 -0.2780
 3906TIP3    H133133   3.028   0.662   5.989 -0.9292 -0.6754  1.2351
 3906TIP3    H233134   2.880   0.648   6.016 -1.4394  3.2400  1.0363
 3907TIP3   OH233135   4.235   5.105  14.047  0.4409 -0.0672  0.3350
 3907TIP3    H133136   4.143   5.120  14.022  0.3558 -0.4349  0.4192
 3907TIP3    H233137   4.247   5.010  14.039  0.2308 -0.3110  2.2702
 3908TIP3   OH233138   5.848   5.642   2.746 -0.3350  0.2242 -0.0716
 3908TIP3    H133139   5.774   5.677   2.695 -1.7336 -1.0631  0.9782
 3908TIP3    H233140   5.872   5.562   2.700  0.1107  0.3878 -0.1307
 3909TIP3   OH233141   6.302   6.235   5.422 -0.0345 -0.0050  0.0932
 3909TIP3    H133142   6.325   6.201   5.335  2.9040 -0.0768  0.7801
 3909TIP3    H233143   6.217   6.195   5.442 -0.0272 -1.2649 -2.0592
 3910TIP3   OH233144   1.303   3.143   0.807 -0.2481 -0.2848 -0.2034
 3910TIP3    H133145   1.281   3.219   0.861  0.3710 -1.0430  1.1657
 3910TIP3    H233146   1.367   3.176   0.745 -1.2884  0.7097 -0.7886
 3911TIP3   OH233147   0.332   2.842  13.529 -0.5799  0.2673 -0.3618
 3911TIP3    H133148   0.339   2.762  13.477  2.4151  0.2012  0.0035
 3911TIP3    H233149   0.412   2.844  13.580 -1.1406  2.9241  0.5235
 3912TIP3   OH233150   5.747   4.119  16.260  0.3089  0.0065  0.4009
 3912TIP3    H133151   5.796   4.048  16.300  0.6772 -0.0892 -0.2119
 3912TIP3    H233152   5.786   4.130  16.173  1.7825  2.4777  1.2790
 3913TIP3   OH233153   5.201   1.982  15.681 -0.4310  0.2523 -0.0913
 3913TIP3    H133154   5.110   1.952  15.687 -0.3388  0.1465  0.9190
 3913TIP3    H233155   5.195   2.077  15.674 -0.5864  0.4071  1.7518
 3914TIP3   OH233156   3.791   3.211   1.579 -0.0157  0.1800 -0.1147
 3914TIP3    H133157   3.704   3.249   1.577  0.3967  1.2002  0.5202
 3914TIP3    H233158   3.800   3.166   1.495 -1.7379 -1.3059  0.4343
 3915TIP3   OH233159   1.011   5.747   2.563  0.0611 -0.0491  0.2087
 3915TIP3    H133160   0.916   5.736   2.572  0.0121  0.4511  0.3561
 3915TIP3    H233161   1.032   5.819   2.623  0.8182 -1.3891  1.6145
 3916TIP3   OH233162   2.723   5.958  16.215  0.6619 -0.4673  0.0218
 3916TIP3    H133163   2.781   5.978  16.289  1.8196 -1.2222 -0.6565
 3916TIP3    H233164   2.703   6.044  16.178  0.6662 -0.1335  0.7580
 3917TIP3   OH233165   4.870   2.613  11.108  0.2578 -0.2699 -0.4213
 3917TIP3    H133166   4.825   2.697  11.104 -0.7131 -0.7850 -0.7521
 3917TIP3    H233167   4.951   2.626  11.059  0.9989  0.9747  1.0417
 3918TIP3   OH233168   4.820   6.158   1.013 -0.1681  0.5298 -0.3300
 3918TIP3    H133169   4.828   6.115   0.928  1.0052  0.0508  0.0019
 3918TIP3    H233170   4.736   6.128   1.047  0.8667 -2.1443  0.1783
 3919TIP3   OH233171   2.488   6.044  14.194 -0.3017 -0.0006  0.5982
 3919TIP3    H133172   2.494   5.959  14.237  1.5207 -0.9404 -1.3375
 3919TIP3    H233173   2.417   6.035  14.131 -1.6856  0.7498  1.9781
 3920TIP3   OH233174   2.135   4.543  14.722 -0.2420  0.2320  0.2827
 3920TIP3    H133175   2.185   4.621  14.697  0.0456  0.7719  2.4002
 3920TIP3    H233176   2.185   4.470  14.686 -0.6066  0.9588 -1.8913
 3921TIP3   OH233177   3.035   3.773   0.097  0.1693  0.6112 -0.2284
 3921TIP3    H133178   2.994   3.687   0.095  0.8005  0.3009 -0.3562
 3921TIP3    H233179   3.094   3.769   0.172  0.0699  0.9938 -0.1304
 3922TIP3   OH233180   1.083   6.301  17.279 -0.3362 -0.3474 -0.1762
 3922TIP3    H133181   1.013   6.236  17.278 -0.7364  0.0804 -0.4414
 3922TIP3    H233182   1.114   6.304  17.188 -1.5754  1.1491 -0.6003
 3923TIP3   OH233183   2.700   2.838  15.727  0.5865  0.4932  0.1242
 3923TIP3    H133184   2.619   2.869  15.767  0.9247 -0.0943  1.3142
 3923TIP3    H233185   2.673   2.799  15.644 -0.2409  0.9861  0.1578
 3924TIP3   OH233186   1.867   3.229   2.147 -0.0959  0.3704 -0.3797
 3924TIP3    H133187   1.773   3.212   2.147  0.1411 -1.0949  0.5090
 3924TIP3    H233188   1.878   3.298   2.213 -0.5431  0.5300 -0.4671
 3925TIP3   OH233189   3.728   2.015  13.428 -0.1984 -0.6606  0.1281
 3925TIP3    H133190   3.806   1.969  13.460  1.2674  1.8764  0.5296
 3925TIP3    H233191   3.700   1.965  13.352  2.4273 -1.1705 -0.6218
 3926TIP3   OH233192   0.427   0.032   5.648 -0.1678 -0.1238 -0.2256
 3926TIP3    H133193   0.433  -0.046   5.704  3.0465  0.0492 -0.1547
 3926TIP3    H233194   0.453   0.104   5.705  1.8482  0.2462 -1.5229
 3927TIP3   OH233195   0.877   0.540   1.743 -0.2297  0.1542 -0.1598
 3927TIP3    H133196   0.923   0.578   1.668  1.3225 -0.8794  0.2322
 3927TIP3    H233197   0.838   0.459   1.710 -3.3822  1.8073 -0.9450
 3928TIP3   OH233198   4.224   0.326   2.106 -0.0967 -0.3297  0.4293
 3928TIP3    H133199   4.141   0.345   2.149 -0.2472  0.0518 -0.0226
 3928TIP3    H233200   4.260   0.411   2.084 -0.4287 -0.5202 -0.9640
 3929TIP3   OH233201   3.993   2.488   2.713 -0.2785 -0.2211 -0.3938
 3929TIP3    H133202   3.971   2.566   2.662  0.7857 -0.1064 -0.6945
 3929TIP3    H233203   4.001   2.418   2.648  1.4515  0.0027 -0.4759
 3930TIP3   OH233204   6.755   6.390  17.213  0.1981  0.4595 -0.1306
 3930TIP3    H133205   6.844   6.393  17.181 -0.3519  1.3783 -1.6438
 3930TIP3    H233206   6.734   6.296  17.216  0.6707  0.3058 -1.3085
 3931TIP3   OH233207   4.317   5.480  11.538 -0.2326  0.4830 -0.4915
 3931TIP3    H133208   4.233   5.521  11.516 -0.2976  1.3221  1.1590
 3931TIP3    H233209   4.376   5.554  11.553  0.9520 -0.0934 -2.0198
 3932TIP3   OH233210   4.025   5.828  13.184 -0.1968  0.1573  0.0292
 3932TIP3    H133211   4.120   5.831  13.176  0.0109  2.0040  2.1740
 3932TIP3    H233212   4.005   5.736  13.203  1.0876 -0.3080 -0.7609
 3933TIP3   OH233213   2.525   3.477  11.234  0.4824 -0.2411  0.2078
 3933TIP3    H133214   2.483   3.416  11.173 -0.6972  1.7719 -1.1086
 3933TIP3    H233215   2.609   3.497  11.194  1.4290 -1.8543  1.2635
 3934TIP3   OH233216   1.344   2.278   5.332 -0.4577  0.2201 -0.0864
 3934TIP3    H133217   1.270   2.297   5.390 -1.1860 -2.3324 -0.0588
 3934TIP3    H233218   1.374   2.191   5.360  2.4189  1.0601 -0.2787
 3935TIP3   OH233219   5.850   4.467   0.716 -0.1740  0.1820 -0.0228
 3935TIP3    H133220   5.885   4.461   0.805 -0.3764  1.9693  0.2318
 3935TIP3    H233221   5.758   4.445   0.724 -0.0241 -0.4136  0.0702
 3936TIP3   OH233222   1.424   2.326   1.364 -0.3583 -0.2848  0.0780
 3936TIP3    H133223   1.361   2.365   1.303 -0.0722 -0.4573 -0.3286
 3936TIP3    H233224   1.407   2.232   1.359 -1.1804 -0.2154  1.2055
 3937TIP3   OH233225   0.768   0.137  13.053  0.8426 -0.5205  0.2732
 3937TIP3    H133226   0.705   0.069  13.025  3.3696 -2.3811 -1.4184
 3937TIP3    H233227   0.829   0.143  12.979  2.1065  1.9020  1.4296
 3938TIP3   OH233228   0.652   6.318   1.396  0.0847 -0.2000  0.3900
 3938TIP3    H133229   0.681   6.233   1.363 -0.9577 -1.0602  1.5924
 3938TIP3    H233230   0.723   6.378   1.372 -0.1544 -0.9328 -2.4081
 3939TIP3   OH233231   0.880   1.319   1.127 -0.1351  0.1441 -0.8771
 3939TIP3    H133232   0.891   1.268   1.047 -2.0898 -0.7811 -0.6289
 3939TIP3    H233233   0.799   1.368   1.113 -0.7831 -0.4164  0.6764
 3940TIP3   OH233234   5.183   5.345   2.371  0.0060  0.0182 -0.0704
 3940TIP3    H133235   5.203   5.329   2.463  0.1717 -1.9239 -0.3976
 3940TIP3    H233236   5.261   5.316   2.324  0.2038  1.6502 -0.8108
 3941TIP3   OH233237   5.835   5.988  17.256 -0.5327 -0.6794 -0.2945
 3941TIP3    H133238   5.810   5.897  17.269  0.7656 -0.8281  1.5813
 3941TIP3    H233239   5.854   6.020  17.344 -0.1617  1.1648 -1.0050
 3942TIP3   OH233240   3.095   4.593  15.466  0.2829 -0.0544  0.1895
 3942TIP3    H133241   3.074   4.639  15.547 -2.8215  0.1500 -0.6004
 3942TIP3    H233242   3.035   4.630  15.401 -0.3974 -3.2065 -1.1617
 3943TIP3   OH233243   2.407   6.233  15.156  0.3096 -0.4701 -0.1704
 3943TIP3    H133244   2.482   6.287  15.181  0.5945 -0.9869  0.1039
 3943TIP3    H233245   2.368   6.207  15.239  0.8951 -1.6823 -0.2549
 3944TIP3   OH233246   5.785   1.085  12.294 -0.3118 -0.2743 -0.4313
 3944TIP3    H133247   5.805   1.179  12.294  0.3271 -0.3953  0.7847
 3944TIP3    H233248   5.714   1.075  12.357 -0.3383 -0.6213 -0.5135
 3945TIP3   OH233249   4.351   0.372   5.850  0.0211  0.1766  0.1757
 3945TIP3    H133250   4.405   0.343   5.777 -0.1283  1.0459 -0.2905
 3945TIP3    H233251   4.328   0.291   5.896  3.0601 -0.1759  1.3650
 3946TIP3   OH233252   0.443   4.636  16.006  0.2366  0.1385  0.2468
 3946TIP3    H133253   0.350   4.646  15.990  0.4017 -1.3004 -2.1297
 3946TIP3    H233254   0.457   4.541  16.010  1.7381  0.2821 -0.6456
 3947TIP3   OH233255   0.727   3.503  15.519 -0.3614 -0.0220 -0.4971
 3947TIP3    H133256   0.786   3.550  15.460 -0.3855 -0.5666 -0.9704
 3947TIP3    H233257   0.688   3.571  15.574  1.5845  0.2518  0.6290
 3948TIP3   OH233258   1.470   4.188  12.551 -0.4324 -0.0359 -0.1582
 3948TIP3    H133259   1.530   4.178  12.477 -1.1677  1.6992 -1.0355
 3948TIP3    H233260   1.500   4.267  12.596 -0.1997 -0.8818  1.2437
 3949TIP3   OH233261   0.918   6.668   0.249  0.3742  0.2611 -0.4925
 3949TIP3    H133262   0.827   6.686   0.223  0.1351  0.6064  0.5227
 3949TIP3    H233263   0.959   6.632   0.170 -0.0868  2.0068 -1.5742
 3950TIP3   OH233264   4.346   0.481  14.913  0.4348  0.7591  0.0435
 3950TIP3    H133265   4.280   0.459  14.847  0.8357 -1.3227  0.2600
 3950TIP3    H233266   4.296   0.515  14.987 -0.4285 -0.7230  0.1773
 3951TIP3   OH233267   5.456   3.583   1.872  0.2004 -0.2386 -0.3488
 3951TIP3    H133268   5.483   3.643   1.803 -0.2669  0.2091 -0.1464
 3951TIP3    H233269   5.370   3.615   1.900  1.2445  0.8248  1.8391
 3952TIP3   OH233270   1.341   3.167  12.211 -0.4279 -0.4839  0.3411
 3952TIP3    H133271   1.322   3.259  12.190 -1.6906 -0.7732  0.1676
 3952TIP3    H233272   1.414   3.172  12.273 -0.0954  0.6077 -0.1042
 3953TIP3   OH233273   4.320   4.895   1.033  0.3137 -0.5611  0.6233
 3953TIP3    H133274   4.360   4.976   1.003  1.8361 -0.6847  2.1873
 3953TIP3    H233275   4.333   4.833   0.961  1.6475 -0.1719  0.5046
 3954TIP3   OH233276   5.508   4.020  13.159 -0.6198 -0.1810 -0.2078
 3954TIP3    H133277   5.592   3.992  13.121  0.7553  2.2731  0.8156
 3954TIP3    H233278   5.495   3.963  13.234 -0.2451 -1.0486 -0.7884
 3955TIP3   OH233279   4.858   6.094  12.896  0.2705  0.3585 -0.4808
 3955TIP3    H133280   4.820   6.031  12.835  2.1764 -1.1644 -0.1954
 3955TIP3    H233281   4.792   6.106  12.964 -0.2115 -1.1842 -0.6512
 3956TIP3   OH233282   6.125   6.526   1.481  0.0267  0.8530  0.0474
 3956TIP3    H133283   6.088   6.501   1.566 -2.4358  2.9287 -0.3024
 3956TIP3    H233284   6.220   6.519   1.493 -0.1923  1.9502  3.2872
 3957TIP3   OH233285   0.399   6.132  14.339  0.0170 -0.5928  0.2123
 3957TIP3    H133286   0.316   6.114  14.382 -1.1477 -0.5483 -1.8946
 3957TIP3    H233287   0.460   6.152  14.411 -2.1082  0.7203  1.7550
 3958TIP3   OH233288   0.272   4.980   2.482 -0.4971 -0.5259 -0.3589
 3958TIP3    H133289   0.313   4.930   2.412  1.4694  1.6471 -0.8872
 3958TIP3    H233290   0.312   4.946   2.562 -1.9252 -2.2477 -0.3215
 3959TIP3   OH233291   3.786   4.059   2.620 -0.0752  0.3541  0.2801
 3959TIP3    H133292   3.849   4.092   2.685 -1.7679  0.5754  1.9174
 3959TIP3    H233293   3.829   3.982   2.582  2.3059  2.0415 -0.7331
 3960TIP3   OH233294   2.218   4.866   5.824 -0.0971  0.5826  0.0297
 3960TIP3    H133295   2.205   4.914   5.906 -1.0139  0.1797  0.1355
 3960TIP3    H233296   2.131   4.831   5.804 -0.2118  1.8327 -1.8520
 3961TIP3   OH233297   5.337   0.481   4.016  0.2632 -0.0356  0.2151
 3961TIP3    H133298   5.252   0.523   4.027  0.5785  0.4557  0.8179
 3961TIP3    H233299   5.399   0.553   4.007  1.0216 -0.2815  2.7655
 3962TIP3   OH233300   6.221   2.213  13.594 -0.0954  0.1744  0.8566
 3962TIP3    H133301   6.141   2.257  13.621 -0.3255 -0.2099  0.8156
 3962TIP3    H233302   6.280   2.221  13.669  0.1291  1.1654  0.5887
 3963TIP3   OH233303   2.164   0.074  14.828 -0.0142 -0.2904  0.1931
 3963TIP3    H133304   2.094   0.116  14.778  0.5295 -0.1674 -0.4795
 3963TIP3    H233305   2.147  -0.020  14.819 -0.2793 -0.2554  0.3134
 3964TIP3   OH233306   6.105   1.798  16.695 -0.1924 -0.0733  0.0528
 3964TIP3    H133307   6.162   1.744  16.749 -0.7285 -1.2626 -0.5401
 3964TIP3    H233308   6.166   1.854  16.646  0.2896  1.5002  2.2745
 3965TIP3   OH233309   3.160   2.806   1.330 -0.4881  0.4809  0.1723
 3965TIP3    H133310   3.184   2.715   1.347  1.7891  1.3660  2.1623
 3965TIP3    H233311   3.118   2.803   1.244  0.9774 -2.2139 -0.5733
 3966TIP3   OH233312   4.326   1.321  11.581 -0.4913  0.0458 -0.2476
 3966TIP3    H133313   4.336   1.356  11.493 -1.3563  0.4028 -0.2152
 3966TIP3    H233314   4.232   1.327  11.599 -0.4957 -1.1344  0.2349
 3967TIP3   OH233315   1.321   2.448   4.757 -0.3139  0.5019  0.2738
 3967TIP3    H133316   1.388   2.423   4.821  0.3300 -0.1767 -0.6467
 3967TIP3    H233317   1.349   2.534   4.725 -0.5833  0.7970  0.8014
 3968TIP3   OH233318   6.390   5.922   4.805  0.7652 -0.4168 -0.6681
 3968TIP3    H133319   6.461   5.912   4.868 -0.1014 -0.3837  0.3320
 3968TIP3    H233320   6.433   5.916   4.719  1.7232 -2.2250 -0.1126
 3969TIP3   OH233321   0.565   1.445   5.793 -0.3487  0.7961  0.5449
 3969TIP3    H133322   0.548   1.379   5.860  0.0059  1.0456  0.8844
 3969TIP3    H233323   0.482   1.454   5.747  0.0747 -1.2481 -0.7422
 3970TIP3   OH233324   1.409   2.980   0.005 -0.4693  0.2405  0.0844
 3970TIP3    H133325   1.437   3.000   0.095  0.7598 -0.9953  0.0125
 3970TIP3    H233326   1.390   3.065  -0.034  1.3048  1.0195  0.7962
 3971TIP3   OH233327   5.179   2.494   0.891 -0.3013 -0.1573  0.1806
 3971TIP3    H133328   5.152   2.517   0.802  0.4078 -0.3015 -0.0848
 3971TIP3    H233329   5.111   2.435   0.923  0.2472 -1.4519 -0.9045
 3972TIP3   OH233330   3.148   5.654   4.673  0.0330 -0.2803  0.2911
 3972TIP3    H133331   3.057   5.655   4.643 -0.2206  2.3861  0.8402
 3972TIP3    H233332   3.168   5.562   4.688 -2.7830 -0.9207  0.7283
 3973TIP3   OH233333   5.228   1.858   0.626  0.3887 -0.1367  0.2874
 3973TIP3    H133334   5.310   1.907   0.628 -0.0576  0.6803  2.6097
 3973TIP3    H233335   5.250   1.773   0.665  0.7544 -1.1587 -2.0080
 3974TIP3   OH233336   4.199   2.822   5.243 -0.1851  0.2660 -0.2826
 3974TIP3    H133337   4.293   2.806   5.247 -0.2950 -0.3070  0.0261
 3974TIP3    H233338   4.160   2.736   5.231 -0.7579  0.3300  0.9576
 3975TIP3   OH233339   4.855   5.224  14.817  0.1537  0.1015  0.1934
 3975TIP3    H133340   4.886   5.315  14.809  0.4441  0.0641  0.8403
 3975TIP3    H233341   4.931   5.176  14.851  0.3888 -0.6359 -1.3111
 3976TIP3   OH233342   6.118   1.244  12.230 -0.1954 -0.0610  0.3417
 3976TIP3    H133343   6.150   1.229  12.141 -0.7721 -2.9475  0.5076
 3976TIP3    H233344   6.195   1.227  12.286 -0.0399  0.9448  0.4485
 3977TIP3   OH233345   2.142   0.226  16.831  0.3307  0.1178 -0.1873
 3977TIP3    H133346   2.177   0.247  16.744 -0.2549 -0.6282 -0.6277
 3977TIP3    H233347   2.198   0.156  16.863 -0.4178 -0.7385 -0.6829
 3978TIP3   OH233348   3.742   2.706   3.301  0.1488  0.2752  0.3712
 3978TIP3    H133349   3.665   2.697   3.246  0.1899  0.9484  0.1923
 3978TIP3    H233350   3.718   2.773   3.365 -0.2298 -1.1653  1.7724
 3979TIP3   OH233351   5.682   1.449   3.500  0.5134  0.4779 -0.1155
 3979TIP3    H133352   5.657   1.390   3.429  0.5837 -0.4140  0.5798
 3979TIP3    H233353   5.619   1.521   3.495 -0.4353 -0.3337 -0.1445
 3980TIP3   OH233354   1.134   2.670  15.845 -0.4005 -0.3082  0.0356
 3980TIP3    H133355   1.108   2.582  15.872 -0.6576 -0.0679  0.5793
 3980TIP3    H233356   1.061   2.726  15.872  0.3824  0.2876  1.0016
 3981TIP3   OH233357   3.450   1.614   3.192  0.0810  0.1094 -0.3432
 3981TIP3    H133358   3.378   1.672   3.168  0.1944  0.8544  1.0099
 3981TIP3    H233359   3.528   1.669   3.188  0.4465 -0.4345 -0.8225
 3982TIP3   OH233360   5.846   6.127   5.153  0.1628  0.1420 -0.6050
 3982TIP3    H133361   5.790   6.094   5.083 -0.4912  0.0370 -0.0402
 3982TIP3    H233362   5.805   6.210   5.179  0.2868  0.0784 -0.2066
 3983TIP3   OH233363   5.014   5.005  15.610  0.3491  0.4581 -0.8801
 3983TIP3    H133364   4.922   5.010  15.584 -0.8444 -1.7295  2.3306
 3983TIP3    H233365   5.060   4.972  15.532 -1.7373  0.5762 -2.2251
 3984TIP3   OH233366   2.469   1.996   1.277 -0.4832 -0.6894  0.6472
 3984TIP3    H133367   2.549   2.048   1.284 -0.6134 -0.3850  0.0114
 3984TIP3    H233368   2.494   1.920   1.225 -0.8542 -0.0211 -0.5600
 3985TIP3   OH233369   6.414   2.523  12.369  0.2880  0.3113  0.0602
 3985TIP3    H133370   6.429   2.450  12.428  0.2037 -0.9163 -1.3761
 3985TIP3    H233371   6.356   2.488  12.301  1.5154  1.2050 -1.5383
 3986TIP3   OH233372   5.843   5.858   3.905  0.1161  0.1659  0.5899
 3986TIP3    H133373   5.787   5.923   3.948  1.2476  1.6580 -0.0843
 3986TIP3    H233374   5.795   5.833   3.826 -0.7796 -0.6222  1.3494
 3987TIP3   OH233375   5.212   6.305   0.434 -0.1027 -0.0783 -0.1104
 3987TIP3    H133376   5.131   6.348   0.462 -0.0931  0.1801 -0.4693
 3987TIP3    H233377   5.259   6.287   0.516 -0.8936 -0.9877  0.1575
 3988TIP3   OH233378   6.757   2.181   1.636 -0.1808  0.2802 -0.0418
 3988TIP3    H133379   6.703   2.193   1.714  1.7779  1.6326  1.1831
 3988TIP3    H233380   6.780   2.088   1.636 -0.7320  0.1373  0.5901
 3989TIP3   OH233381   5.121   1.290  15.324 -0.1845  0.1560 -0.1058
 3989TIP3    H133382   5.098   1.197  15.323 -2.2671  0.6178  0.4932
 3989TIP3    H233383   5.105   1.320  15.235  2.1829 -0.3787 -0.7790
 3990TIP3   OH233384   1.072   1.881   6.185 -0.2077  0.3309  0.2387
 3990TIP3    H133385   1.165   1.865   6.167  0.2136  0.3493  2.2398
 3990TIP3    H233386   1.056   1.968   6.148  1.0637  1.1217  1.4358
 3991TIP3   OH233387   4.787   6.751  17.310  0.1138  0.2028 -0.1350
 3991TIP3    H133388   4.784   6.829  17.255  1.4523  0.4770  0.1638
 3991TIP3    H233389   4.841   6.689  17.261 -1.0721 -0.6402 -0.4493
 3992TIP3   OH233390   0.297   3.284   2.025 -0.2107  0.1695 -0.1764
 3992TIP3    H133391   0.278   3.201   1.982  0.0445 -0.2324  0.4818
 3992TIP3    H233392   0.294   3.349   1.954 -0.0657 -0.4456 -0.7522
 3993TIP3   OH233393   6.466   3.911  16.613  0.0874 -0.3912  0.9743
 3993TIP3    H133394   6.561   3.912  16.622 -0.0843  1.4703  3.6665
 3993TIP3    H233395   6.435   3.974  16.678 -2.8687  1.0156 -1.5396
 3994TIP3   OH233396   3.342   0.696  13.898  0.2083  0.5255  0.0786
 3994TIP3    H133397   3.281   0.770  13.903 -1.6455 -0.9279 -0.0412
 3994TIP3    H233398   3.311   0.635  13.964  2.1305  0.1163  0.6569
 3995TIP3   OH233399   5.232   4.184   2.027 -0.3911 -0.0026  0.7576
 3995TIP3    H133400   5.194   4.225   2.104 -0.2192  0.0314  0.8254
 3995TIP3    H233401   5.257   4.258   1.970  0.5583  0.0244  1.1814
 3996TIP3   OH233402   6.546   6.056  13.092  0.1667 -0.0580  0.5026
 3996TIP3    H133403   6.612   5.989  13.077  1.4189  1.2656 -0.1485
 3996TIP3    H233404   6.563   6.087  13.181 -0.6475 -0.8363  0.9402
 3997TIP3   OH233405   0.324   0.614  12.988 -0.2297  0.2696 -0.0068
 3997TIP3    H133406   0.348   0.521  12.985 -0.9359  0.1003 -0.7822
 3997TIP3    H233407   0.397   0.656  13.033  1.9963 -0.0856 -2.9629
 3998TIP3   OH233408   4.490   1.190  15.992  0.7356  0.1917  0.2428
 3998TIP3    H133409   4.460   1.180  16.083  1.0942  0.0637  0.3484
 3998TIP3    H233410   4.471   1.281  15.970  0.0411  0.0532  0.2244
 3999TIP3   OH233411   3.878   2.919  10.885 -0.5059  0.3918  0.6055
 3999TIP3    H133412   3.864   2.978  10.811 -0.9168 -1.1032 -0.5624
 3999TIP3    H233413   3.959   2.872  10.863 -0.2564  0.4067  1.4499
 4000TIP3   OH233414   0.698   3.222  15.864  0.7822 -0.5175  0.1172
 4000TIP3    H133415   0.665   3.148  15.813  0.7194 -0.0644 -0.5077
 4000TIP3    H233416   0.754   3.270  15.803  0.2089  0.3866  0.2798
 4001TIP3   OH233417   4.351   0.514   1.272 -0.1901 -0.5636  0.1244
 4001TIP3    H133418   4.399   0.535   1.353  0.0505 -1.5478  0.2454
 4001TIP3    H233419   4.340   0.599   1.229 -1.1046  0.1202  1.6042
 4002TIP3   OH233420   6.042   2.936   4.139  0.3038 -0.2921  0.3047
 4002TIP3    H133421   6.091   2.855   4.132  1.0594  0.2615 -1.3001
 4002TIP3    H233422   5.964   2.923   4.085 -0.6300 -0.6427  1.6756
 4003TIP3   OH233423   4.789   2.176  14.924  0.2139  0.5950 -0.1339
 4003TIP3    H133424   4.803   2.222  14.841 -0.8804  3.1364  1.0064
 4003TIP3    H233425   4.873   2.182  14.969  0.9065 -1.0575 -1.1014
 4004TIP3   OH233426   6.417   6.581  14.185  0.3640 -0.6058 -0.0583
 4004TIP3    H133427   6.338   6.611  14.230 -0.3000  0.6185 -1.9252
 4004TIP3    H233428   6.486   6.641  14.214  0.8993 -2.2817  2.3388
 4005TIP3   OH233429   0.620   2.283  12.192 -0.0055 -0.0468  0.0114
 4005TIP3    H133430   0.608   2.235  12.274 -2.1692 -0.4848 -0.5103
 4005TIP3    H233431   0.708   2.320  12.199 -0.1776  0.0342  2.5774
 4006TIP3   OH233432   4.479   2.951   4.313  0.3277 -0.1680 -0.2845
 4006TIP3    H133433   4.502   3.037   4.276  1.0559  0.3414  1.2874
 4006TIP3    H233434   4.396   2.965   4.358  1.4818  0.3040  1.8136
 4007TIP3   OH233435   2.807   3.908  15.908  0.1295 -0.0785 -0.5089
 4007TIP3    H133436   2.828   3.837  15.969  1.8230  0.4443 -0.4239
 4007TIP3    H233437   2.760   3.972  15.961  1.2057  0.1751  0.1786
 4008TIP3   OH233438   1.133   0.915  16.854 -0.1174 -0.0676 -0.2693
 4008TIP3    H133439   1.149   0.994  16.803 -1.0504 -0.1419 -0.7070
 4008TIP3    H233440   1.058   0.873  16.811 -0.3630 -0.5944  0.6273
 4009TIP3   OH233441   1.638   5.985  16.293  0.7357 -0.4678  0.3557
 4009TIP3    H133442   1.589   5.951  16.368 -0.0135  0.5685  0.3556
 4009TIP3    H233443   1.618   5.924  16.222 -2.0303  0.8414 -0.1321
 4010TIP3   OH233444   6.215   1.633  13.823 -0.2750 -0.4767 -0.6085
 4010TIP3    H133445   6.162   1.555  13.837 -0.5637 -0.4050 -1.2879
 4010TIP3    H233446   6.242   1.659  13.911 -1.2608 -0.5834 -0.2587
 4011TIP3   OH233447   4.002   2.537   3.682  0.0558  0.4967 -0.2352
 4011TIP3    H133448   3.981   2.469   3.617 -2.0761  0.6134  0.2478
 4011TIP3    H233449   4.069   2.498   3.738 -0.7022 -0.9951 -0.3306
 4012TIP3   OH233450   4.610   0.465  16.264 -0.2370  0.5987 -0.0017
 4012TIP3    H133451   4.680   0.508  16.217 -0.5214  1.0101 -0.0534
 4012TIP3    H233452   4.626   0.371  16.252  1.3973  0.6241  1.5755
 4013TIP3   OH233453   2.686   6.437  10.875  0.2735 -0.1357 -0.1804
 4013TIP3    H133454   2.703   6.343  10.890 -1.9008 -0.6104 -0.3985
 4013TIP3    H233455   2.684   6.446  10.780  0.1642  0.0796 -0.1567
 4014TIP3   OH233456   1.778   3.372   4.934 -0.3579  0.3714 -0.1587
 4014TIP3    H133457   1.858   3.386   4.883 -0.9182  1.0706 -0.8858
 4014TIP3    H233458   1.729   3.453   4.922 -0.5921  0.4850  1.3675
 4015TIP3   OH233459   2.557   3.378  16.501  0.4336  0.1224  0.1568
 4015TIP3    H133460   2.596   3.359  16.586  0.1051  1.2377  0.5818
 4015TIP3    H233461   2.463   3.381  16.518  0.3163 -0.2995 -0.3892
 4016TIP3   OH233462   0.315   4.306   0.129  0.6454 -0.4813 -0.1408
 4016TIP3    H133463   0.344   4.309   0.220  0.6164 -0.9569 -0.1121
 4016TIP3    H233464   0.396   4.295   0.079  0.7491  0.5917 -0.2415
 4017TIP3   OH233465   4.928   6.469   2.768  0.0304 -0.2101 -0.3924
 4017TIP3    H133466   4.888   6.466   2.855  0.7487  1.0793 -0.0004
 4017TIP3    H233467   4.885   6.398   2.720  0.3861 -1.6553  1.3206
 4018TIP3   OH233468   0.727   1.070  15.234  0.1886 -0.2420  0.0085
 4018TIP3    H133469   0.688   1.096  15.150 -0.5046  0.3230  0.4961
 4018TIP3    H233470   0.656   1.026  15.281  0.3167  0.1943  0.6311
 4019TIP3   OH233471   4.507   4.431  11.986 -0.5099  0.4177 -0.3498
 4019TIP3    H133472   4.568   4.399  12.054  0.7728 -3.1320 -2.8772
 4019TIP3    H233473   4.563   4.476  11.923 -0.8833 -0.4387 -1.3260
 4020TIP3   OH233474   3.870   4.015  11.324 -0.1808 -0.2388  0.1979
 4020TIP3    H133475   3.823   4.099  11.319  0.3215  0.2916  2.9594
 4020TIP3    H233476   3.961   4.038  11.307 -0.2690 -0.5453 -0.7513
 4021TIP3   OH233477   0.706   1.907   2.553 -0.4821 -0.1136  0.2402
 4021TIP3    H133478   0.669   1.831   2.509 -2.8019  0.0780  1.7034
 4021TIP3    H233479   0.639   1.975   2.546  0.1528  0.7422  1.7632
 4022TIP3   OH233480   0.286   4.005   3.994  0.3692  0.0796  0.0703
 4022TIP3    H133481   0.227   4.048   4.056  1.0813  0.7314  0.3140
 4022TIP3    H233482   0.228   3.969   3.927 -0.5999 -2.4968  2.1642
 4023TIP3   OH233483   3.246   1.315   1.076 -0.6865 -0.0320 -0.4564
 4023TIP3    H133484   3.268   1.400   1.114  3.4413 -0.6353 -1.0850
 4023TIP3    H233485   3.229   1.258   1.151 -0.7158  0.6532  0.0688
 4024TIP3   OH233486   5.992   0.517  14.247 -0.1874 -0.5739  0.1557
 4024TIP3    H133487   5.940   0.557  14.177  1.4490  0.4763 -0.5250
 4024TIP3    H233488   6.083   0.525  14.217  0.4078 -2.1154  1.4076
 4025TIP3   OH233489   5.434   6.531  13.349 -0.1246 -0.3195  0.1005
 4025TIP3    H133490   5.519   6.574  13.355 -0.7845  1.1956 -0.9496
 4025TIP3    H233491   5.392   6.549  13.434 -0.3848  1.1190 -0.3225
 4026TIP3   OH233492   5.047   3.946  15.752 -0.0074 -0.5687 -0.1046
 4026TIP3    H133493   5.118   3.891  15.717  2.0708  0.8711  1.5923
 4026TIP3    H233494   5.066   4.034  15.719 -0.3225  0.0523  1.2942
 4027TIP3   OH233495   4.026   3.110   4.911  0.2237  0.3634  0.1420
 4027TIP3    H133496   3.952   3.109   4.850 -0.8221 -1.4994  1.3634
 4027TIP3    H233497   3.989   3.144   4.992  0.9723  0.3298  0.5026
 4028TIP3   OH233498   5.499   0.598   0.672 -0.2247 -0.3745 -0.0969
 4028TIP3    H133499   5.497   0.690   0.643  1.0585 -0.7630 -1.6257
 4028TIP3    H233500   5.539   0.601   0.759 -0.4851  0.5433  0.0034
 4029TIP3   OH233501   0.301   3.987   5.236  0.3160  0.3404  0.1157
 4029TIP3    H133502   0.333   3.900   5.212  0.1527  0.1368  0.6259
 4029TIP3    H233503   0.208   3.984   5.213 -0.6984 -1.0201  3.7034
 4030TIP3   OH233504   2.842   2.313   2.712 -0.6110 -0.0403  0.2025
 4030TIP3    H133505   2.918   2.287   2.661 -0.4284  0.9987 -0.0789
 4030TIP3    H233506   2.769   2.264   2.673 -0.8799  2.2703 -2.5495
 4031TIP3   OH233507   0.521   4.014   5.406  0.5017  0.0923 -0.3840
 4031TIP3    H133508   0.446   4.007   5.347 -1.5513  0.2085  2.0493
 4031TIP3    H233509   0.503   3.951   5.476  2.2394  0.7595  0.7470
 4032TIP3   OH233510   2.653   4.573  12.770  0.3477 -0.1167  0.3438
 4032TIP3    H133511   2.667   4.585  12.676  0.5763 -0.1367  0.3739
 4032TIP3    H233512   2.692   4.488  12.789  1.1345  0.2874  0.6210
 4033TIP3   OH233513   1.923   2.121   1.508 -1.0291  0.1740  0.1533
 4033TIP3    H133514   1.841   2.130   1.555 -0.8877 -0.8815  0.6442
 4033TIP3    H233515   1.985   2.087   1.574 -0.2332  0.8242 -0.2345
 4034TIP3   OH233516   2.257   0.054   1.549 -0.0471  0.2056 -0.2180
 4034TIP3    H133517   2.281   0.075   1.459 -0.4452  1.6383 -0.0271
 4034TIP3    H233518   2.333   0.083   1.601  0.6568 -1.6293 -0.1469
 4035TIP3   OH233519   3.055   2.240   4.906  0.2057 -0.0595  0.3014
 4035TIP3    H133520   3.007   2.321   4.923 -1.0511 -0.9215  0.9803
 4035TIP3    H233521   3.027   2.214   4.818  1.0314  0.5041 -0.1454
 4036TIP3   OH233522   3.704   1.152   5.471  0.0067  0.3601  0.0229
 4036TIP3    H133523   3.731   1.145   5.563  1.1633 -1.8261 -0.3971
 4036TIP3    H233524   3.772   1.104   5.423 -2.3804 -1.6596 -1.5990
 4037TIP3   OH233525   2.192   3.144  15.426 -0.0174  0.0215 -0.1518
 4037TIP3    H133526   2.218   3.069  15.373 -0.7415 -3.2864  3.7154
 4037TIP3    H233527   2.099   3.156  15.407 -0.1267 -0.7059 -0.1029
 4038TIP3   OH233528   1.669   5.841   5.845  0.3450  0.1755  0.3649
 4038TIP3    H133529   1.757   5.805   5.846  0.0640 -0.5628  1.8992
 4038TIP3    H233530   1.621   5.788   5.910 -1.1982  0.6056 -0.3776
 4039TIP3   OH233531   1.816   2.028   2.844  0.4108  0.1715 -0.0321
 4039TIP3    H133532   1.806   2.063   2.755  0.1306  0.4200  0.0935
 4039TIP3    H233533   1.824   1.933   2.832 -0.5621  0.1096 -0.2587
 4040TIP3   OH233534   0.000   2.570   5.247  0.1358  0.5741  0.1179
 4040TIP3    H133535   0.025   2.548   5.337  0.1592  1.3830  0.3162
 4040TIP3    H233536   0.050   2.509   5.193  0.0398  0.0059  0.6584
 4041TIP3   OH233537   3.325   2.698  11.670 -0.0475  0.4361 -0.2521
 4041TIP3    H133538   3.332   2.739  11.584  0.9527  0.3336 -0.2344
 4041TIP3    H233539   3.377   2.618  11.662 -0.7706 -0.0942  0.1535
 4042TIP3   OH233540   0.001   5.725   3.360 -0.3843 -0.0473 -0.4220
 4042TIP3    H133541   0.068   5.730   3.427  0.6373 -1.1484 -1.3246
 4042TIP3    H233542   0.005   5.635   3.328 -0.1935  0.6616 -2.5875
 4043TIP3   OH233543   2.219   6.436   2.240  0.4636  0.2212  0.6207
 4043TIP3    H133544   2.228   6.492   2.163 -0.4935 -1.0895 -0.4760
 4043TIP3    H233545   2.292   6.374   2.233 -0.7736 -1.2026 -0.4074
 4044TIP3   OH233546   6.645   6.390  12.409 -0.8767 -0.4924 -0.0375
 4044TIP3    H133547   6.616   6.476  12.439 -0.5093  0.1602 -1.4854
 4044TIP3    H233548   6.734   6.382  12.445 -0.8748 -0.2281  0.0234
 4045TIP3   OH233549   2.056   0.853   2.520 -0.2877  0.1206  0.3463
 4045TIP3    H133550   2.146   0.827   2.536 -0.7825 -2.1186 -0.1596
 4045TIP3    H233551   2.062   0.920   2.451  0.9031 -1.5088 -1.2133
 4046TIP3   OH233552   3.309   1.221   4.488 -0.3268 -0.0828  0.3220
 4046TIP3    H133553   3.233   1.202   4.543 -0.8042 -0.2558 -0.3806
 4046TIP3    H233554   3.381   1.174   4.530 -0.9777 -1.3888  0.0106
 4047TIP3   OH233555   5.085   4.246  13.645 -0.1070  0.0981 -1.0643
 4047TIP3    H133556   5.043   4.332  13.649 -1.9789 -0.7663 -1.3328
 4047TIP3    H233557   5.163   4.255  13.700 -1.5310  1.2741  0.8692
 4048TIP3   OH233558   5.239   6.234   3.009 -0.2201 -0.4538  0.0317
 4048TIP3    H133559   5.194   6.315   2.986  2.0480  2.1088  3.5518
 4048TIP3    H233560   5.332   6.257   3.009  0.9113 -4.1553 -2.2691
 4049TIP3   OH233561   1.210   1.555  12.100  0.3123 -0.0044 -0.5091
 4049TIP3    H133562   1.176   1.625  12.155  0.0602  1.6257 -2.5844
 4049TIP3    H233563   1.284   1.518  12.149 -0.9644  0.1411  1.6249
 4050TIP3   OH233564   5.860   4.726   1.014 -0.1515 -0.0959 -0.0226
 4050TIP3    H133565   5.853   4.746   0.921 -0.0191 -2.6035 -0.6548
 4050TIP3    H233566   5.778   4.682   1.036 -0.0066  0.0860  0.9468
 4051TIP3   OH233567   3.065   0.108  13.015  0.0462 -0.0323 -0.2393
 4051TIP3    H133568   2.978   0.127  13.051 -0.0824 -2.7845  1.1502
 4051TIP3    H233569   3.117   0.083  13.091  0.9620 -2.0399 -1.4700
 4052TIP3   OH233570   2.111   6.510  11.839 -0.0960 -0.0858  0.5622
 4052TIP3    H133571   2.052   6.441  11.866 -1.1987  1.0404  1.1234
 4052TIP3    H233572   2.057   6.570  11.788  0.3010  1.4474  1.8537
 4053TIP3   OH233573   6.244   1.274  14.799  0.1161 -0.5580  0.1048
 4053TIP3    H133574   6.150   1.271  14.813  0.0498  1.9541  0.6279
 4053TIP3    H233575   6.254   1.283  14.704 -0.0954 -1.8672 -0.0572
 4054TIP3   OH233576   5.230   4.714   2.095 -0.1681 -0.3423 -0.0859
 4054TIP3    H133577   5.204   4.804   2.113  0.3844 -0.6257  2.6423
 4054TIP3    H233578   5.323   4.720   2.073  0.0792 -0.2915  0.9286
 4055TIP3   OH233579   3.559   4.050   4.684  0.6210  0.2196 -0.5113
 4055TIP3    H133580   3.618   4.025   4.612  0.5142  0.3611 -0.6476
 4055TIP3    H233581   3.617   4.063   4.758  0.9345  1.6899 -0.9741
 4056TIP3   OH233582   3.593   1.787  11.442  0.2356 -0.3645 -0.2823
 4056TIP3    H133583   3.593   1.869  11.393 -2.8128  0.8103  1.4177
 4056TIP3    H233584   3.635   1.808  11.525 -1.1523 -0.2639  0.4261
 4057TIP3   OH233585   2.959   1.717  13.477 -0.3326  0.2538 -0.6973
 4057TIP3    H133586   2.917   1.792  13.434  0.1837  1.4223  0.7395
 4057TIP3    H233587   3.013   1.678  13.409 -0.2741  1.4658 -1.3883
 4058TIP3   OH233588   3.351   3.865  14.499 -0.1430  0.1757  0.0800
 4058TIP3    H133589   3.357   3.941  14.558 -1.0778  1.2400 -1.1566
 4058TIP3    H233590   3.261   3.865  14.468 -1.0994 -3.2362  2.3035
 4059TIP3   OH233591   1.187   5.059  16.970 -0.0211 -0.3648  0.0931
 4059TIP3    H133592   1.128   4.992  17.004  0.2527 -0.3964  0.5146
 4059TIP3    H233593   1.130   5.121  16.924 -0.4966  0.0996  1.2808
 4060TIP3   OH233594   6.474   6.374  11.319 -0.4937 -0.0548 -0.2333
 4060TIP3    H133595   6.443   6.296  11.365  1.0195 -0.8448 -0.4913
 4060TIP3    H233596   6.463   6.446  11.382 -0.0765 -0.8135  0.7247
 4061TIP3   OH233597   3.857   5.739  10.852 -0.2028  0.0666  0.4491
 4061TIP3    H133598   3.786   5.755  10.915 -1.7225 -3.2049 -0.2584
 4061TIP3    H233599   3.813   5.727  10.768  1.3693 -0.3469 -0.3534
 4062TIP3   OH233600   5.295   4.217   0.906 -0.0666  0.2161 -0.0004
 4062TIP3    H133601   5.367   4.162   0.875 -0.5534  0.6295 -2.0435
 4062TIP3    H233602   5.333   4.305   0.911 -0.2446  0.3194 -0.4179
 4063TIP3   OH233603   1.481   1.047  15.542 -0.0115  0.2396  0.5725
 4063TIP3    H133604   1.396   1.022  15.503 -0.3706  0.3996  1.2359
 4063TIP3    H233605   1.465   1.132  15.581  0.6902  0.6419  0.0018
 4064TIP3   OH233606   3.761   5.017   2.950  0.7004 -0.1988  0.1633
 4064TIP3    H133607   3.756   5.093   3.009  0.3387  0.8626 -1.1686
 4064TIP3    H233608   3.698   4.955   2.985  2.6854 -0.9800  2.6936
 4065TIP3   OH233609   1.325   6.114   1.306  0.5011 -0.1878 -0.0656
 4065TIP3    H133610   1.383   6.187   1.327  0.6078 -0.3405  0.1786
 4065TIP3    H233611   1.380   6.036   1.318  0.3592 -0.3126 -0.2245
 4066TIP3   OH233612   5.841   4.031  10.893  0.1683 -0.2511  0.1463
 4066TIP3    H133613   5.913   4.081  10.856 -0.9194  0.2005 -1.5179
 4066TIP3    H233614   5.781   4.097  10.928  0.1071 -0.5598  0.6315
 4067TIP3   OH233615   5.318   3.573  16.202 -1.2001 -0.0431 -0.5871
 4067TIP3    H133616   5.251   3.585  16.135 -2.5705 -1.6097  0.4167
 4067TIP3    H233617   5.325   3.478  16.213  0.0551  0.1292  0.4448
 4068TIP3   OH233618   2.425   1.714   2.659  0.1540 -0.0573 -0.2111
 4068TIP3    H133619   2.363   1.786   2.659 -0.1439 -0.3093 -1.1892
 4068TIP3    H233620   2.510   1.756   2.648  0.0121  0.1612 -0.4670
 4069TIP3   OH233621   1.173   2.191   1.917  0.1206  0.1325 -0.0757
 4069TIP3    H133622   1.148   2.278   1.948 -0.1262  0.5896 -1.5033
 4069TIP3    H233623   1.248   2.206   1.860  0.6672 -0.7102  0.3995
 4070TIP3   OH233624   6.548   5.839   5.018  0.2576 -0.0966  0.4375
 4070TIP3    H133625   6.459   5.831   5.052 -0.1994  0.7224 -0.5079
 4070TIP3    H233626   6.584   5.916   5.061  0.2089  0.0570  0.2076
 4071TIP3   OH233627   4.503   5.589   0.327  0.0683 -0.5444  0.0902
 4071TIP3    H133628   4.451   5.564   0.251  1.0381 -2.1523 -0.1140
 4071TIP3    H233629   4.557   5.662   0.297 -0.3411 -0.4513 -0.4292
 4072TIP3   OH233630   2.926   0.895  13.066  0.4265  0.3936 -0.2800
 4072TIP3    H133631   2.867   0.822  13.080  1.3768 -0.7613 -1.9187
 4072TIP3    H233632   2.982   0.897  13.144 -0.9392  0.7489  0.7257
 4073TIP3   OH233633   2.866   1.318   4.210  0.2737 -0.2300 -0.3142
 4073TIP3    H133634   2.791   1.303   4.266 -0.9728 -2.0167 -2.2785
 4073TIP3    H233635   2.837   1.386   4.148  0.9080  0.2877 -0.0577
 4074TIP3   OH233636   2.514   6.446  16.413 -0.2082 -0.3433  0.1554
 4074TIP3    H133637   2.422   6.431  16.433 -0.6061  1.3747 -0.2677
 4074TIP3    H233638   2.514   6.496  16.331  1.1603 -1.3876 -0.5297
 4075TIP3   OH233639   5.906   4.059   4.284 -0.2407  0.2471 -0.4934
 4075TIP3    H133640   5.831   4.084   4.338  0.3144 -1.4991  1.2153
 4075TIP3    H233641   5.979   4.058   4.345  1.3993  2.5233 -2.2374
 4076TIP3   OH233642   5.222   0.389  13.347  0.1499  0.3123 -0.1217
 4076TIP3    H133643   5.294   0.451  13.359  1.7006 -1.2884 -0.7295
 4076TIP3    H233644   5.177   0.388  13.431 -0.0028  2.3247 -0.1333
 4077TIP3   OH233645   4.483   3.537  11.153  0.0676 -0.2997 -0.4988
 4077TIP3    H133646   4.404   3.552  11.205  0.8807  0.2019  0.6248
 4077TIP3    H233647   4.456   3.473  11.087 -0.9636 -1.0825  0.6351
 4078TIP3   OH233648   1.327   6.409  13.055 -0.3603 -0.0681  0.0180
 4078TIP3    H133649   1.279   6.487  13.084 -1.1344 -0.5583  0.0898
 4078TIP3    H233650   1.399   6.444  13.003  0.2620  0.7725  1.3802
 4079TIP3   OH233651   4.449   1.677  11.592 -0.5353 -0.0380  0.2415
 4079TIP3    H133652   4.483   1.639  11.673 -1.3322  0.8066  0.9896
 4079TIP3    H233653   4.354   1.662  11.596 -0.7748  1.3509  0.2155
 4080TIP3   OH233654   3.935   4.535   2.368 -0.5649 -0.1084 -0.1788
 4080TIP3    H133655   3.932   4.478   2.444  2.6591  1.2770  1.1824
 4080TIP3    H233656   3.864   4.597   2.381 -0.2936 -0.1262  1.5566
 4081TIP3   OH233657   3.287   1.178  11.153  0.0335 -0.8694 -0.1358
 4081TIP3    H133658   3.328   1.192  11.067 -0.4632 -0.4260 -0.3088
 4081TIP3    H233659   3.320   1.093  11.182  2.2340  0.0931  0.3985
 4082TIP3   OH233660   2.484   6.269   3.436  0.0679 -0.2846 -0.0504
 4082TIP3    H133661   2.471   6.185   3.481 -2.4717  0.8147  1.5131
 4082TIP3    H233662   2.541   6.319   3.494  0.1390 -0.3092 -0.0992
 4083TIP3   OH233663   4.033   3.747   5.533 -0.4380  0.0024  0.2260
 4083TIP3    H133664   4.072   3.690   5.467 -0.3999 -0.0372  0.2826
 4083TIP3    H233665   3.944   3.764   5.501  0.1512  1.4521 -0.7575
 4084TIP3   OH233666   0.381   4.732  15.623  0.4852 -0.0257 -0.3034
 4084TIP3    H133667   0.302   4.779  15.600  0.6836  0.6262  0.3324
 4084TIP3    H233668   0.416   4.778  15.699  1.1076 -0.7171 -0.1561
 4085TIP3   OH233669   2.849   3.350   5.226  0.0194 -0.3975  0.3747
 4085TIP3    H133670   2.770   3.300   5.244 -0.3350  0.7203  2.1892
 4085TIP3    H233671   2.916   3.308   5.280  0.3000 -0.3760  0.0470
 4086TIP3   OH233672   3.514   2.970  12.569  0.3029  0.1986 -0.1592
 4086TIP3    H133673   3.518   2.945  12.661 -1.5498  1.9704  0.5055
 4086TIP3    H233674   3.421   2.961  12.545  0.2646  2.1633 -1.0389
 4087TIP3   OH233675   2.754   5.483   5.329 -0.7615 -0.0567  0.3660
 4087TIP3    H133676   2.813   5.442   5.266  2.2074  3.3360  0.6242
 4087TIP3    H233677   2.781   5.448   5.414  1.6417  2.0430  0.5700
 4088TIP3   OH233678   3.970   4.429   0.810 -0.4279  0.3216  0.1028
 4088TIP3    H133679   3.884   4.470   0.818 -0.3962  0.1601  1.6849
 4088TIP3    H233680   4.030   4.502   0.795 -0.7475  0.5054 -0.3072
 4089TIP3   OH233681   4.201   4.429   4.147  0.1784  0.0254  0.3895
 4089TIP3    H133682   4.136   4.487   4.107 -1.4662 -0.4528  2.2319
 4089TIP3    H233683   4.188   4.344   4.104  1.2259  0.4739 -0.8842
 4090TIP3   OH233684   2.194   2.636   5.388  0.0111  0.0627  0.5122
 4090TIP3    H133685   2.137   2.559   5.388 -0.6285  0.5095  2.0967
 4090TIP3    H233686   2.161   2.689   5.316  1.6391 -1.9138 -1.8699
 4091TIP3   OH233687   5.970   2.022  15.169 -0.1313  0.5313 -0.2623
 4091TIP3    H133688   5.941   1.958  15.235  0.7623  1.2141  0.8256
 4091TIP3    H233689   5.954   1.979  15.086  2.7652 -2.2129  0.4149
 4092TIP3   OH233690   4.161   5.259   6.026  0.2450  0.0762 -0.3359
 4092TIP3    H133691   4.150   5.256   5.931 -0.0603 -1.5863 -0.2837
 4092TIP3    H233692   4.074   5.240   6.062  0.6271 -0.6334  0.2459
 4093TIP3   OH233693   5.035   4.833  16.916 -0.2075 -0.5125  0.3544
 4093TIP3    H133694   5.108   4.861  16.861 -0.8268 -0.2236 -0.3360
 4093TIP3    H233695   5.041   4.737  16.917  0.2676 -0.4873  0.4383
 4094TIP3   OH233696   6.403   2.459  16.241  0.2799  0.6314  0.4402
 4094TIP3    H133697   6.323   2.409  16.221  1.0935  0.0500 -1.6164
 4094TIP3    H233698   6.373   2.529  16.298 -1.3563 -0.7191  1.3448
 4095TIP3   OH233699   2.209   1.797  12.026  0.2732  0.3833 -0.1379
 4095TIP3    H133700   2.224   1.868  12.087  0.1719 -0.6977  1.1897
 4095TIP3    H233701   2.142   1.831  11.966  0.0638  1.3159  0.6002
 4096TIP3   OH233702   4.002   6.329  14.417  0.4411  0.0348 -0.1038
 4096TIP3    H133703   3.982   6.244  14.457 -0.9761  0.3003 -0.1954
 4096TIP3    H233704   4.010   6.310  14.323 -0.8687  0.1447 -0.2494
 4097TIP3   OH233705   6.673   3.858   3.938 -0.0016  0.6448  0.1725
 4097TIP3    H133706   6.664   3.904   4.022  0.2610 -0.0280  0.5792
 4097TIP3    H233707   6.706   3.771   3.962 -2.1837 -0.4109 -0.3941
 4098TIP3   OH233708   1.902   6.485   2.857  0.0589 -0.0258  0.3368
 4098TIP3    H133709   1.919   6.398   2.821 -1.2936 -0.5409  0.8857
 4098TIP3    H233710   1.956   6.488   2.937 -0.6686 -0.7805  0.8763
 4099TIP3   OH233711   4.512   4.739   2.521  0.2953 -0.2210 -0.2160
 4099TIP3    H133712   4.524   4.739   2.426  1.0014  2.2172 -0.1937
 4099TIP3    H233713   4.600   4.747   2.557 -0.0314 -0.2351  0.6162
 4100TIP3   OH233714   5.371   0.466  12.204 -0.0648  0.2893  0.0554
 4100TIP3    H133715   5.395   0.537  12.144  0.2390  0.0629 -0.0941
 4100TIP3    H233716   5.279   0.449  12.185  0.7256 -1.7953 -2.4907
 4101TIP3   OH233717   0.090   3.014  16.809 -0.4681 -0.0094  0.2324
 4101TIP3    H133718   0.063   2.960  16.882 -1.6029 -0.1850 -0.3036
 4101TIP3    H233719   0.053   3.101  16.828 -0.0251  0.1732  0.2880
 4102TIP3   OH233720   4.999   1.121  13.646  0.2612  0.6300  0.2370
 4102TIP3    H133721   4.913   1.085  13.624  0.7256 -0.5064  0.1777
 4102TIP3    H233722   4.980   1.202  13.693 -0.8317  0.5568 -0.0540
 4103TIP3   OH233723   5.373   5.116   3.247 -0.3219  0.2794  0.3791
 4103TIP3    H133724   5.449   5.172   3.230  0.9319 -1.9512 -2.0453
 4103TIP3    H233725   5.331   5.106   3.161  0.2742 -3.4393  0.3692
 4104TIP3   OH233726   2.240   6.045   4.675  0.0014 -0.8340 -0.3470
 4104TIP3    H133727   2.316   6.057   4.618 -0.2056  0.5047 -0.3628
 4104TIP3    H233728   2.180   5.990   4.624 -0.7863  1.4734 -2.0350
 4105TIP3   OH233729   3.913   4.485  15.891  0.1758  0.0845 -0.4723
 4105TIP3    H133730   3.935   4.392  15.885 -1.2116 -0.5170  2.0569
 4105TIP3    H233731   3.831   4.493  15.842  0.7498  0.1929 -1.4365
 4106TIP3   OH233732   2.384   0.221  12.867  0.0390 -0.1184  0.1736
 4106TIP3    H133733   2.364   0.309  12.837 -0.9093 -0.1162  0.7691
 4106TIP3    H233734   2.299   0.184  12.893  0.1243 -1.8611 -1.7508
 4107TIP3   OH233735   4.391   6.109  11.717  0.3952 -0.0853 -0.1071
 4107TIP3    H133736   4.364   6.188  11.765  2.4550  0.1568  0.7532
 4107TIP3    H233737   4.407   6.139  11.628  0.2970  0.2853 -0.0014
 4108TIP3   OH233738   5.884   5.704  16.482 -0.0529 -0.3097  0.0546
 4108TIP3    H133739   5.863   5.625  16.432  1.6436 -0.5651 -0.3177
 4108TIP3    H233740   5.979   5.702  16.490 -0.2185  0.1007  2.7177
 4109TIP3   OH233741   0.019   4.129   2.079 -0.1657 -0.3407  0.3909
 4109TIP3    H133742   0.030   4.050   2.132  0.2170 -1.5723 -1.4356
 4109TIP3    H233743  -0.065   4.116   2.035 -0.0186  0.1925 -0.0470
 4110TIP3   OH233744   5.200   5.010   2.149 -0.9667 -0.0273 -0.2564
 4110TIP3    H133745   5.164   5.065   2.079 -0.3253  1.2475  0.3773
 4110TIP3    H233746   5.134   5.014   2.218 -1.1580 -0.5098 -0.4019
 4111TIP3   OH233747   2.836   3.429  17.057  0.1575  0.0233  0.5268
 4111TIP3    H133748   2.750   3.445  17.019 -0.2939 -0.1060  1.4658
 4111TIP3    H233749   2.836   3.336  17.079  0.4644  0.0581  0.6876
 4112TIP3   OH233750   5.900   4.343  16.396 -0.8535 -0.0485  0.2115
 4112TIP3    H133751   5.821   4.302  16.361  0.4842 -0.6028 -2.3913
 4112TIP3    H233752   5.922   4.290  16.473 -1.7121 -1.3182 -0.3830
 4113TIP3   OH233753   4.356   0.434   3.972 -0.3370 -0.0992 -0.2477
 4113TIP3    H133754   4.330   0.420   3.880 -0.9029  0.4509 -0.1759
 4113TIP3    H233755   4.452   0.436   3.969 -0.3608  1.5369 -1.0913
 4114TIP3   OH233756   0.309   3.402  11.321  0.8230 -0.6924  0.5779
 4114TIP3    H133757   0.374   3.366  11.261 -0.2339 -1.6614 -0.0273
 4114TIP3    H233758   0.325   3.496  11.321  0.7466 -0.6568 -1.3352
 4115TIP3   OH233759   4.592   6.098   3.134 -0.2651  0.0538  0.5421
 4115TIP3    H133760   4.552   6.162   3.075  0.6324  0.7738  0.6955
 4115TIP3    H233761   4.592   6.016   3.085  1.0010  0.7649 -0.7181
 4116TIP3   OH233762   0.685   6.199   4.091  0.3980 -0.4241 -0.4088
 4116TIP3    H133763   0.610   6.141   4.084  0.3780 -0.5002  0.3892
 4116TIP3    H233764   0.755   6.144   4.126  0.3860  0.0140  0.3242
 4117TIP3   OH233765   2.407   2.460   5.007 -0.7126 -0.1895  0.7901
 4117TIP3    H133766   2.426   2.502   4.923 -1.8889 -1.8678 -0.3581
 4117TIP3    H233767   2.320   2.423   4.996  0.3428 -3.1409  1.6362
 4118TIP3   OH233768   0.573   2.198   5.782 -0.5382 -0.1278  0.1103
 4118TIP3    H133769   0.648   2.254   5.803  0.2165 -1.2140  0.4125
 4118TIP3    H233770   0.612   2.115   5.754 -1.6244 -0.8722  0.7266
 4119TIP3   OH233771   2.765   1.481   6.026  0.3700 -0.4015  0.1060
 4119TIP3    H133772   2.841   1.538   6.040 -0.2440  0.2315  0.9378
 4119TIP3    H233773   2.802   1.403   5.986  1.3635  0.1962 -0.1930
 4120TIP3   OH233774   4.364   0.701   0.599 -0.2488  0.3405 -0.0089
 4120TIP3    H133775   4.444   0.656   0.625 -0.1377 -0.5784 -1.8441
 4120TIP3    H233776   4.394   0.778   0.551 -0.4443 -0.1029 -0.8599
 4121TIP3   OH233777   1.425   0.435   3.441  0.1584 -0.0089  0.3491
 4121TIP3    H133778   1.453   0.492   3.370 -1.2676 -0.8577 -0.9868
 4121TIP3    H233779   1.346   0.393   3.407 -0.0207 -1.1796  2.0875
 4122TIP3   OH233780   2.219   2.201  15.624 -0.0042 -0.4308 -0.0174
 4122TIP3    H133781   2.143   2.143  15.624 -0.6372  0.3799  0.6144
 4122TIP3    H233782   2.287   2.150  15.669 -0.7425 -0.4707  1.0960
 4123TIP3   OH233783   1.247   1.577   6.229  1.1176 -0.0733 -0.8220
 4123TIP3    H133784   1.298   1.644   6.274 -0.5416  1.0729 -0.5465
 4123TIP3    H233785   1.158   1.613   6.227  0.1625 -2.3153 -0.6235
 4124TIP3   OH233786   2.615   4.199   0.152  0.0950  0.0539  0.0032
 4124TIP3    H133787   2.520   4.205   0.137  0.2925  0.1947 -1.2707
 4124TIP3    H233788   2.644   4.290   0.158  0.2682  0.0309 -0.4423
 4125TIP3   OH233789   5.666   4.581  11.445 -0.2598  0.0238 -0.4270
 4125TIP3    H133790   5.683   4.593  11.351 -0.4840 -1.0053 -0.6090
 4125TIP3    H233791   5.574   4.606  11.456 -0.0932  0.6416 -0.3758
 4126TIP3   OH233792   5.046   2.574  13.883 -0.6743  0.7484  0.1231
 4126TIP3    H133793   5.048   2.538  13.794 -0.8857  0.0540  0.3900
 4126TIP3    H233794   5.034   2.497  13.939  1.7718  0.8771  0.9303
 4127TIP3   OH233795   5.013   1.862  12.021  0.1391  0.1189 -0.0719
 4127TIP3    H133796   4.935   1.914  12.000  0.0537 -0.2053 -0.5679
 4127TIP3    H233797   5.003   1.840  12.113  0.1916  1.0114  0.1531
 4128TIP3   OH233798   0.840   5.906  15.917  0.1260 -0.0709  0.1270
 4128TIP3    H133799   0.746   5.921  15.906  0.3654  0.0953 -1.9437
 4128TIP3    H233800   0.882   5.975  15.866  1.4003  0.0069  1.2280
 4129TIP3   OH233801   4.366   5.378  10.339  0.4164  0.3300 -0.4572
 4129TIP3    H133802   4.306   5.317  10.382  2.1899  1.0521  3.5814
 4129TIP3    H233803   4.310   5.448  10.306 -1.1835  0.3623  2.0119
 4130TIP3   OH233804   4.235   4.311   0.961  0.4494  0.4923 -0.0752
 4130TIP3    H133805   4.201   4.334   0.874 -1.0881 -1.6086 -0.0946
 4130TIP3    H233806   4.309   4.253   0.943 -0.8235 -1.1958 -0.0193
 4131TIP3   OH233807   4.353   3.153  16.216  0.5517  0.1320 -0.0934
 4131TIP3    H133808   4.429   3.194  16.174  0.9455 -1.9058 -1.5264
 4131TIP3    H233809   4.281   3.169  16.154 -0.1540  1.6470  1.0367
 4132TIP3   OH233810   4.376   0.363  14.581 -0.1019  0.3707  0.6092
 4132TIP3    H133811   4.402   0.281  14.624  2.0083  0.7240  0.1501
 4132TIP3    H233812   4.440   0.373  14.510 -0.5725  2.2229  0.4037
 4133TIP3   OH233813   1.762   2.910   2.722  0.1528  0.3580  0.4425
 4133TIP3    H133814   1.791   2.949   2.640  1.4451 -1.4984 -0.0614
 4133TIP3    H233815   1.788   2.974   2.789 -1.0282  1.9463 -0.5366
 4134TIP3   OH233816   2.865   2.059   4.347  0.1797 -0.5937 -0.2080
 4134TIP3    H133817   2.797   1.993   4.350  0.7177 -1.1307  2.0809
 4134TIP3    H233818   2.947   2.010   4.348  0.5923  0.0373  1.7484
 4135TIP3   OH233819   3.623   5.423  14.302  0.8372 -0.2652 -0.0614
 4135TIP3    H133820   3.528   5.413  14.303  0.7621 -0.7162 -2.8496
 4135TIP3    H233821   3.638   5.512  14.333 -0.5697  0.1353 -0.4418
 4136TIP3   OH233822   2.551   3.381   3.407  0.3770 -0.3856 -0.8774
 4136TIP3    H133823   2.545   3.298   3.359  3.3769 -1.6264  0.6684
 4136TIP3    H233824   2.461   3.397   3.438 -0.5196 -2.3703 -2.2278
 4137TIP3   OH233825   0.349   4.944   5.186 -0.5557  0.2040  0.6807
 4137TIP3    H133826   0.395   4.868   5.221  0.2954  0.4014  0.0134
 4137TIP3    H233827   0.256   4.920   5.192 -0.2954 -1.0368  0.1723
 4138TIP3   OH233828   5.158   4.866   6.026 -0.0249  0.0495 -0.3185
 4138TIP3    H133829   5.103   4.874   6.103  1.0020  1.2232  0.3309
 4138TIP3    H233830   5.120   4.926   5.961  1.8130  2.8363  0.9928
 4139TIP3   OH233831   4.917   5.007   3.902 -0.2635 -0.0618  0.1507
 4139TIP3    H133832   5.000   5.009   3.949 -0.1521  1.0243 -0.0521
 4139TIP3    H233833   4.885   5.097   3.907 -0.4770 -0.0273 -1.4361
 4140TIP3   OH233834   2.460   2.188  15.423  0.3609 -0.3077 -1.0730
 4140TIP3    H133835   2.470   2.101  15.385  0.9590 -1.2736  1.1009
 4140TIP3    H233836   2.379   2.182  15.474  0.3345  0.4488 -1.0224
 4141TIP3   OH233837   0.030   2.851   5.721 -0.4441 -0.2418 -0.5249
 4141TIP3    H133838  -0.046   2.794   5.726 -0.2554 -0.4596 -0.0248
 4141TIP3    H233839   0.027   2.889   5.633  0.0959 -1.9740 -1.3339
 4142TIP3   OH233840   0.327   5.365  13.983  0.4375 -0.0481  0.9844
 4142TIP3    H133841   0.298   5.426  13.916 -0.3836 -1.3428  0.1229
 4142TIP3    H233842   0.276   5.389  14.061  0.0209  0.2663  0.6158
 4143TIP3   OH233843   6.642   1.907   4.016  0.1581  0.3706 -0.4194
 4143TIP3    H133844   6.672   1.819   4.040 -0.1131  0.1034 -1.0533
 4143TIP3    H233845   6.717   1.946   3.971  0.1893  0.3820 -0.3590
 4144TIP3   OH233846   5.943   0.571  15.091 -0.7402 -0.2140  0.0183
 4144TIP3    H133847   6.032   0.600  15.110 -0.3768 -1.1989 -0.0996
 4144TIP3    H233848   5.887   0.637  15.130  0.0315  1.6141 -1.7747
 4145TIP3   OH233849   2.684   1.402   4.841 -0.0597 -0.2021  0.0468
 4145TIP3    H133850   2.712   1.385   4.931  1.0802 -1.6080 -0.5464
 4145TIP3    H233851   2.631   1.326   4.817 -1.0036  0.5176 -0.2488
 4146TIP3   OH233852   5.597   2.446   3.815  0.0502 -0.0052  0.8871
 4146TIP3    H133853   5.686   2.438   3.780 -0.7204  0.1573 -1.2096
 4146TIP3    H233854   5.606   2.507   3.889  1.2670  2.3968 -1.0795
 4147TIP3   OH233855   0.971   4.372   1.399  0.8940 -0.5223 -0.1518
 4147TIP3    H133856   1.027   4.442   1.435  0.3714 -1.0772  1.8716
 4147TIP3    H233857   0.886   4.414   1.386  0.5035 -0.8010  1.3263
 4148TIP3   OH233858   5.030   1.197   3.483 -0.1415 -0.3729 -0.1103
 4148TIP3    H133859   4.968   1.217   3.553  0.0664 -0.5784  0.1388
 4148TIP3    H233860   5.042   1.279   3.436 -0.1384 -0.1880  0.2134
 4149TIP3   OH233861   0.438   5.630  11.850 -0.0040  0.6567 -0.4983
 4149TIP3    H133862   0.437   5.659  11.941 -0.6449 -0.6752 -0.0608
 4149TIP3    H233863   0.522   5.661  11.817  0.5549  0.5714  0.7602
 4150TIP3   OH233864   4.055   5.564  11.464 -0.3270 -0.2943 -0.2162
 4150TIP3    H133865   4.041   5.616  11.385 -2.3539 -1.9879 -1.0967
 4150TIP3    H233866   4.012   5.614  11.533  0.0315  0.4321 -0.5138
 4151TIP3   OH233867   1.267   6.648  16.580 -0.0614  0.3746 -0.1472
 4151TIP3    H133868   1.270   6.561  16.620  0.7523 -0.4312 -1.8565
 4151TIP3    H233869   1.283   6.708  16.653 -0.0767 -0.9349  0.9780
 4152TIP3   OH233870   1.058   5.261   5.310  0.1786  0.1125 -0.2748
 4152TIP3    H133871   1.146   5.243   5.275  0.6796  0.5104  0.7449
 4152TIP3    H233872   1.008   5.181   5.291  1.1390 -0.6562  0.3317
 4153TIP3   OH233873   2.454   4.881   4.738 -0.1011 -0.5096 -0.2996
 4153TIP3    H133874   2.439   4.886   4.832 -1.3326 -0.9268 -0.4553
 4153TIP3    H233875   2.533   4.828   4.728 -0.0256 -0.5502  0.4814
 4154TIP3   OH233876   1.469   0.584   4.378  0.2803 -0.6533  0.0044
 4154TIP3    H133877   1.464   0.588   4.282 -0.7933 -1.3676  0.0216
 4154TIP3    H233878   1.556   0.549   4.396  0.8880  0.4573 -0.6760
 4155TIP3   OH233879   1.416   0.883  11.871 -0.1056 -0.0126 -0.6329
 4155TIP3    H133880   1.335   0.835  11.886  0.1080  0.2730  1.8243
 4155TIP3    H233881   1.431   0.876  11.776 -2.6390 -0.5827 -1.0596
 4156TIP3   OH233882   4.654   4.993   3.095  0.1203  0.0953 -0.2921
 4156TIP3    H133883   4.603   5.032   3.024 -0.3353  1.4210  0.7145
 4156TIP3    H233884   4.627   4.901   3.097  1.0358 -0.2911 -2.5828
 4157TIP3   OH233885   4.119   5.263   2.405 -0.8548  0.0205  0.0559
 4157TIP3    H133886   4.068   5.211   2.468  1.7570 -0.5632  1.8281
 4157TIP3    H233887   4.147   5.339   2.455  1.2167 -0.4166 -0.3610
 4158TIP3   OH233888   1.413   3.641   4.814 -0.2546 -0.0709 -0.2347
 4158TIP3    H133889   1.328   3.685   4.822 -0.1526  0.0026  0.5446
 4158TIP3    H233890   1.470   3.689   4.874  0.2871 -0.2477 -0.6053
 4159TIP3   OH233891   0.565   4.450   0.383 -0.4680  0.1921 -0.5356
 4159TIP3    H133892   0.560   4.384   0.314  1.7798 -1.5769  0.8651
 4159TIP3    H233893   0.654   4.483   0.379 -0.7509  1.1529  0.5753
 4160TIP3   OH233894   0.321   1.378   4.531  0.4972 -0.2460  0.0169
 4160TIP3    H133895   0.303   1.467   4.560  0.8673 -0.7284  1.8754
 4160TIP3    H233896   0.337   1.386   4.437  0.3629  1.6141  0.1174
 4161TIP3   OH233897   6.389   2.133  16.097  0.2686  0.8653  0.4529
 4161TIP3    H133898   6.305   2.104  16.133  0.0313 -0.2274 -0.8960
 4161TIP3    H233899   6.369   2.214  16.051  0.4598  1.9480  2.1970
 4162TIP3   OH233900   1.972   2.585   3.095  0.0590 -0.3610  0.7804
 4162TIP3    H133901   1.949   2.503   3.051  1.1696 -0.1708 -0.1848
 4162TIP3    H233902   1.903   2.646   3.070 -0.0947 -0.6560  0.4731
 4163TIP3   OH233903   2.001   0.865   1.955 -0.6217 -0.7736  0.2115
 4163TIP3    H133904   1.929   0.919   1.989 -1.5289 -0.0431 -2.6061
 4163TIP3    H233905   2.074   0.927   1.944 -1.0772 -0.4469 -1.2531
 4164TIP3   OH233906   1.610   4.575   3.460  0.5249 -0.1278 -0.2468
 4164TIP3    H133907   1.637   4.501   3.405 -0.1697  0.0893 -0.8985
 4164TIP3    H233908   1.529   4.545   3.503  0.6039  0.0120  0.0003
 4165TIP3   OH233909   5.811   2.933  13.973 -0.1681  0.1327  0.4410
 4165TIP3    H133910   5.733   2.968  14.015  0.4371  0.5430  1.2627
 4165TIP3    H233911   5.848   2.873  14.037 -0.0635 -0.4256 -0.1338
 4166TIP3   OH233912   3.645   4.335   6.019 -0.4055 -1.0252  0.3510
 4166TIP3    H133913   3.734   4.302   6.009 -0.3872 -2.0482  2.9615
 4166TIP3    H233914   3.637   4.353   6.113 -2.3195  1.0101 -0.1058
 4167TIP3   OH233915   6.362   3.487  13.157  0.5697  0.3284 -0.3026
 4167TIP3    H133916   6.287   3.435  13.129  0.3673  0.4234  0.0716
 4167TIP3    H233917   6.370   3.471  13.251  0.4208  1.0787 -0.1523
 4168TIP3   OH233918   0.410   5.196  11.350  0.2234 -0.1344 -0.5262
 4168TIP3    H133919   0.429   5.288  11.368 -0.8182 -0.4246  2.6866
 4168TIP3    H233920   0.427   5.151  11.433 -1.5873 -2.4361 -1.2891
 4169TIP3   OH233921   4.854   4.141  13.265 -0.2455  0.2530 -0.0327
 4169TIP3    H133922   4.781   4.150  13.328  0.2735  2.5711  0.3399
 4169TIP3    H233923   4.932   4.159  13.317  0.4887 -0.9030 -0.7175
 4170TIP3   OH233924   5.208   4.144   3.752 -0.3674  0.7775  0.0220
 4170TIP3    H133925   5.205   4.222   3.697 -0.5525 -0.1784 -1.3867
 4170TIP3    H233926   5.227   4.176   3.840  0.6556  2.3069 -0.7270
 4171TIP3   OH233927   1.948   5.831  13.076  0.1699 -0.1956  0.3275
 4171TIP3    H133928   1.867   5.881  13.087  0.2491  0.0451 -0.1594
 4171TIP3    H233929   2.007   5.868  13.141  0.2485  0.3963 -0.0694
 4172TIP3   OH233930   3.930   5.271   4.920 -0.1642 -0.6613 -0.0643
 4172TIP3    H133931   3.887   5.190   4.895 -0.6244 -0.4275 -0.0344
 4172TIP3    H233932   4.015   5.243   4.955 -0.1521 -1.0960 -0.4341
 4173TIP3   OH233933   4.878   3.983   1.797 -0.2989 -0.0224  0.4389
 4173TIP3    H133934   4.841   4.071   1.809 -0.6341 -0.0322 -0.4331
 4173TIP3    H233935   4.920   3.987   1.711 -2.6125 -1.4626 -0.8625
 4174TIP3   OH233936   3.026   0.707  14.227  0.0502 -0.3995  0.9732
 4174TIP3    H133937   2.991   0.774  14.285 -2.1199 -0.4264 -0.1652
 4174TIP3    H233938   3.036   0.630  14.283  1.7991  0.5993  2.1158
 4175TIP3   OH233939   0.217   5.473   3.519 -0.3112  0.3529  0.6880
 4175TIP3    H133940   0.286   5.531   3.551  0.3471 -0.1419  0.2098
 4175TIP3    H233941   0.236   5.388   3.559  0.0445 -0.0699 -0.3490
 4176TIP3   OH233942   2.499   5.409   3.500  0.2755  0.4066 -0.3356
 4176TIP3    H133943   2.557   5.459   3.556 -1.4875  1.8161  0.3513
 4176TIP3    H233944   2.482   5.466   3.425 -0.4498  0.1770 -0.3630
 4177TIP3   OH233945   0.658   1.035   2.986 -0.0087  0.1919  0.5512
 4177TIP3    H133946   0.586   0.996   2.936  0.3120 -1.1655  1.1162
 4177TIP3    H233947   0.686   1.110   2.932 -0.6747 -0.3144 -0.5412
 4178TIP3   OH233948   0.596   6.423  14.871  0.2469 -0.2212 -0.1480
 4178TIP3    H133949   0.579   6.357  14.804 -3.9176 -2.3512  2.5717
 4178TIP3    H233950   0.620   6.373  14.949  2.1135  1.9549  0.7982
 4179TIP3   OH233951   2.130   0.499  14.630 -0.6931 -0.7036 -0.3933
 4179TIP3    H133952   2.144   0.572  14.690  2.2407 -1.0108 -0.5807
 4179TIP3    H233953   2.035   0.484  14.633 -1.0972  1.5796  1.3939
 4180TIP3   OH233954   5.753   0.132  14.853  0.0502  0.0263  0.2057
 4180TIP3    H133955   5.833   0.132  14.800  0.1314 -0.5726  0.3241
 4180TIP3    H233956   5.773   0.075  14.927 -1.2295 -2.0557 -0.9497
 4181TIP3   OH233957   4.226   1.943  13.517 -0.5479  0.1918  0.1964
 4181TIP3    H133958   4.157   1.934  13.582 -0.3101  0.5478  0.5033
 4181TIP3    H233959   4.225   1.860  13.469 -2.5349  0.9115 -1.1597
 4182TIP3   OH233960   2.804   5.686   3.140 -0.3651  0.0280 -0.4184
 4182TIP3    H133961   2.784   5.763   3.086  1.1822  1.2785  0.6931
 4182TIP3    H233962   2.899   5.674   3.130 -0.5137 -1.4851 -0.2235
 4183TIP3   OH233963   2.856   2.435   4.128 -0.3790  0.4717  0.0293
 4183TIP3    H133964   2.828   2.379   4.200 -2.1862 -1.7729 -2.2089
 4183TIP3    H233965   2.820   2.522   4.149  0.0270  0.1504  2.2504
 4184TIP3   OH233966   0.070   2.548   5.506  0.5594  0.2978 -0.3153
 4184TIP3    H133967   0.146   2.543   5.564 -0.4091  0.7145  1.0403
 4184TIP3    H233968  -0.000   2.504   5.554  0.0730 -0.6608 -1.8197
 4185TIP3   OH233969   2.082   3.259   0.435  0.1680 -0.5029  0.0689
 4185TIP3    H133970   2.061   3.331   0.375 -2.2666 -0.7541  0.4946
 4185TIP3    H233971   2.061   3.180   0.385 -1.5857 -0.7215  1.0500
 4186TIP3   OH233972   2.560   3.140   0.322  0.4219  0.1673 -0.4680
 4186TIP3    H133973   2.468   3.123   0.302  1.1834 -3.0564 -2.1048
 4186TIP3    H233974   2.565   3.139   0.417 -1.0654 -1.0825 -0.3638
 4187TIP3   OH233975   2.023   1.683  12.286 -0.3515 -0.1748 -0.5519
 4187TIP3    H133976   2.014   1.777  12.271  1.5617  0.1599  0.1992
 4187TIP3    H233977   2.038   1.674  12.380 -0.4796 -1.2368 -0.6193
 4188TIP3   OH233978   6.520   3.361  11.173  0.0366 -0.1065  1.2505
 4188TIP3    H133979   6.613   3.347  11.192 -0.0697  0.3504  2.1385
 4188TIP3    H233980   6.496   3.287  11.117  0.9297 -0.2343  1.0268
 4189TIP3   OH233981   0.713   1.014   4.541 -0.3833  0.0932 -0.2041
 4189TIP3    H133982   0.652   1.043   4.474  0.1683  1.3128 -0.2201
 4189TIP3    H233983   0.795   1.060   4.520  0.1168 -0.3760  0.6479
 4190TIP3   OH233984   2.033   4.965  16.471 -0.0713  0.0389 -0.1360
 4190TIP3    H133985   2.062   4.895  16.414 -1.0682  0.0535 -0.6962
 4190TIP3    H233986   1.938   4.968  16.459 -0.3321 -0.0572  1.6488
 4191TIP3   OH233987   2.252   4.648  13.025  0.1926 -0.0224 -0.7277
 4191TIP3    H133988   2.284   4.711  13.089 -1.9543  0.4136  0.0116
 4191TIP3    H233989   2.326   4.590  13.007  0.6713 -0.6741  2.7611
 4192TIP3   OH233990   3.992   1.131   5.689  0.3422 -0.4395  0.0506
 4192TIP3    H133991   4.005   1.214   5.643 -0.4920 -0.7090 -0.6976
 4192TIP3    H233992   3.964   1.157   5.777 -0.7330  0.0826 -0.4264
 4193TIP3   OH233993   2.248   4.274  12.955 -0.5067  0.3122 -0.1043
 4193TIP3    H133994   2.332   4.318  12.966 -1.2060  1.1902  2.4488
 4193TIP3    H233995   2.254   4.231  12.869  1.6845  2.1256 -0.9496
 4194TIP3   OH233996   2.229   5.293   6.068  0.2046  0.5287  0.0583
 4194TIP3    H133997   2.197   5.362   6.126 -0.6600  1.7842 -1.8255
 4194TIP3    H233998   2.190   5.313   5.983  1.9305 -0.8673 -1.1300
 4195TIP3   OH233999   4.549   3.911   1.381  0.3992 -0.4071  0.1639
 4195TIP3    H134000   4.481   3.856   1.342 -0.3171  1.2623 -1.0639
 4195TIP3    H234001   4.574   3.971   1.311 -0.2194  2.0742  1.9593
 4196TIP3   OH234002   2.579   3.528   2.550 -0.2414  0.3751 -0.1440
 4196TIP3    H134003   2.545   3.527   2.460  0.7633  0.4588 -0.5291
 4196TIP3    H234004   2.671   3.550   2.541  0.0636 -0.4462  0.8540
 4197TIP3   OH234005   4.625   6.519  16.423  0.1482  0.6988  0.3364
 4197TIP3    H134006   4.700   6.578  16.430 -0.1727  1.2439 -0.5538
 4197TIP3    H234007   4.633   6.460  16.497  1.9967  0.1156 -0.2811
 4198TIP3   OH234008   5.762   2.143  16.768 -0.2135 -0.1232  0.4524
 4198TIP3    H134009   5.736   2.127  16.677  1.0019 -0.0383  0.0766
 4198TIP3    H234010   5.856   2.129  16.769 -0.3074 -0.8708  1.8691
 4199TIP3   OH234011   2.839   0.868   4.631  0.0132  0.3845  0.1038
 4199TIP3    H134012   2.795   0.810   4.569 -1.5598 -0.6219  2.0729
 4199TIP3    H234013   2.820   0.831   4.717  2.3712  1.5616  1.2266
 4200TIP3   OH234014   0.302   1.557  13.074 -1.1661  0.3464 -0.0036
 4200TIP3    H134015   0.363   1.521  13.010 -1.2372  0.8106 -0.3360
 4200TIP3    H234016   0.218   1.558  13.029 -1.6605 -1.2866  0.8045
 4201TIP3   OH234017   2.364   1.902   6.011  0.1536 -0.4926  0.5183
 4201TIP3    H134018   2.449   1.864   5.989 -0.2223 -0.8150 -0.4553
 4201TIP3    H234019   2.374   1.996   5.995 -0.0550 -0.6943 -0.9671
 4202TIP3   OH234020   0.785   1.352  11.391  0.7842 -0.0532 -0.4131
 4202TIP3    H134021   0.763   1.431  11.343  0.1196 -0.7471 -1.2886
 4202TIP3    H234022   0.701   1.311  11.411  1.1070 -0.4021  0.2523
 4203TIP3   OH234023   6.488   1.253  12.106  0.2099  0.0473 -0.1406
 4203TIP3    H134024   6.452   1.239  12.194 -1.1079  0.1023 -0.6551
 4203TIP3    H234025   6.583   1.246  12.118 -0.0122 -1.5345  1.0123
 4204TIP3   OH234026   1.576   2.352   5.187  0.0075  0.6886 -0.5778
 4204TIP3    H134027   1.594   2.443   5.212  0.4938 -0.1402  2.3735
 4204TIP3    H234028   1.500   2.327   5.240  0.5648 -0.9587 -0.5098
 4205TIP3   OH234029   4.607   1.738  13.849  0.2060 -0.2010  0.0190
 4205TIP3    H134030   4.561   1.821  13.838  1.7040  0.8360  1.1088
 4205TIP3    H234031   4.614   1.727  13.944  1.0942 -0.9511 -0.1210
 4206TIP3   OH234032   0.297   6.083  12.996  0.6708 -0.3087  0.5532
 4206TIP3    H134033   0.284   6.073  12.901 -0.1001 -0.0511  0.6265
 4206TIP3    H234034   0.390   6.067  13.009  0.7330 -0.6132 -0.2179
 4207TIP3   OH234035   5.366   3.741   2.216 -0.1543 -0.3378  0.2539
 4207TIP3    H134036   5.326   3.655   2.232  0.2046 -0.4524  0.5597
 4207TIP3    H234037   5.441   3.722   2.159  0.7392 -0.4265  1.4079
 4208TIP3   OH234038   1.646   5.156  13.243  0.2901  0.2889 -0.4749
 4208TIP3    H134039   1.601   5.233  13.208  0.5001  0.6538  0.0316
 4208TIP3    H234040   1.577   5.105  13.284 -0.0938 -0.5667 -2.1153
 4209TIP3   OH234041   3.555   2.743  16.771  0.5167 -0.2687 -0.6302
 4209TIP3    H134042   3.587   2.805  16.837 -0.6058  1.2418 -1.4155
 4209TIP3    H234043   3.633   2.720  16.721  1.2729 -0.9448  0.8025
 4210TIP3   OH234044   4.965   2.018   0.610  0.3938  0.1530 -0.2275
 4210TIP3    H134045   4.984   2.056   0.696  0.9330  0.6843 -0.5712
 4210TIP3    H234046   5.051   1.995   0.574  0.3679  1.7358 -1.4171
 4211TIP3   OH234047   5.698   4.463   3.971  0.2723  0.2878  0.2806
 4211TIP3    H134048   5.746   4.380   3.969  0.6816  0.5332 -0.2192
 4211TIP3    H234049   5.655   4.463   4.057  0.7202 -0.1844  0.5155
 4212TIP3   OH234050   5.359   6.000  10.491 -0.3159 -0.1354 -0.2443
 4212TIP3    H134051   5.392   5.938  10.557 -0.3093 -0.2220 -0.3289
 4212TIP3    H234052   5.267   5.978  10.482 -0.8770  1.3146  1.3604
 4213TIP3   OH234053   4.336   6.483   5.613 -0.2807  0.2435  0.2436
 4213TIP3    H134054   4.254   6.527   5.636 -0.7065 -1.0881  1.4007
 4213TIP3    H234055   4.370   6.450   5.696 -1.0531 -3.3742 -0.6898
 4214TIP3   OH234056   1.576   3.771  15.367 -0.3196  0.1400  0.3513
 4214TIP3    H134057   1.591   3.816  15.284 -0.6370  2.2708  1.3887
 4214TIP3    H234058   1.551   3.840  15.428  0.8783 -1.2042  2.5025
 4215TIP3   OH234059   3.334   4.998   1.105  0.5709 -0.1044  0.1419
 4215TIP3    H134060   3.274   5.055   1.155  0.9393  1.6219 -1.2674
 4215TIP3    H234061   3.277   4.948   1.047  0.3454  0.2766  0.0260
 4216TIP3   OH234062   4.000   1.997  11.198 -0.0948 -0.1711 -0.5183
 4216TIP3    H134063   4.055   1.961  11.129  1.2662 -0.5087  0.7039
 4216TIP3    H234064   3.918   1.947  11.191 -0.6862  0.9392 -2.9296
 4217TIP3   OH234065   3.921   1.603  14.761 -0.1916  0.1712 -0.3367
 4217TIP3    H134066   4.005   1.573  14.796 -0.2940 -0.7052 -0.8257
 4217TIP3    H234067   3.935   1.697  14.746  0.7813 -0.0024 -0.6226
 4218TIP3   OH234068   1.856   2.211   5.393  0.1270  0.3721 -0.0340
 4218TIP3    H134069   1.805   2.164   5.327  0.2649 -0.4619  0.4399
 4218TIP3    H234070   1.875   2.146   5.459  3.3799  0.1406 -1.0271
 4219TIP3   OH234071   2.349   6.185   1.143 -0.8060  0.2295 -0.2225
 4219TIP3    H134072   2.256   6.167   1.131 -0.9134  0.2400  0.5284
 4219TIP3    H234073   2.369   6.153   1.231 -0.2050  0.6216 -0.2059
 4220TIP3   OH234074   1.833   5.130  14.261 -0.1633 -0.1867 -0.5297
 4220TIP3    H134075   1.848   5.224  14.265 -0.1766 -0.2135  0.3537
 4220TIP3    H234076   1.913   5.095  14.220  0.3734  0.0960  0.2433
 4221TIP3   OH234077   5.364   1.980  13.869  0.1334 -0.9027  0.0964
 4221TIP3    H134078   5.319   1.918  13.812 -0.2485 -0.8019  0.2860
 4221TIP3    H234079   5.454   1.982  13.836  0.0134 -1.1450 -0.2497
 4222TIP3   OH234080   5.160   1.704   4.662 -0.2909 -0.1410 -0.2696
 4222TIP3    H134081   5.125   1.693   4.750  0.5898 -2.8851 -0.1525
 4222TIP3    H234082   5.255   1.706   4.674 -0.1849  0.3819 -1.0989
 4223TIP3   OH234083   5.863   6.025  14.115  0.3318  0.3874 -0.1864
 4223TIP3    H134084   5.877   6.016  14.210 -0.8479 -0.3161 -0.0605
 4223TIP3    H234085   5.773   5.996  14.101  0.9098 -0.8028 -1.7109
 4224TIP3   OH234086   2.045   2.736   5.109 -0.3473  0.2727 -0.0399
 4224TIP3    H134087   1.959   2.701   5.134 -0.4324 -0.5126 -1.3344
 4224TIP3    H234088   2.030   2.830   5.097 -0.9272  0.2091  0.1470
 4225TIP3   OH234089   5.509   5.821  14.756  0.0960 -0.0394 -0.0485
 4225TIP3    H134090   5.549   5.902  14.789 -0.6921 -0.1625  1.3004
 4225TIP3    H234091   5.434   5.807  14.813 -2.0470  0.2799 -2.6033
 4226TIP3   OH234092   0.032   0.735  15.654  0.1289  0.2022  0.2729
 4226TIP3    H134093   0.116   0.709  15.692  0.5292  0.9689 -0.0625
 4226TIP3    H234094   0.010   0.664  15.594  1.1754  0.5766 -0.5916
 4227TIP3   OH234095   2.955   4.714   6.737  0.0775 -0.0294  0.2608
 4227TIP3    H134096   2.950   4.619   6.722 -3.2357  0.0875 -0.1596
 4227TIP3    H234097   2.909   4.727   6.820  1.2690  1.1819  0.7696
 4228TIP3   OH234098   6.092   3.321   5.492 -0.0066  0.7828 -0.2212
 4228TIP3    H134099   6.174   3.371   5.495 -0.3833  1.3661  1.5243
 4228TIP3    H234100   6.034   3.366   5.553 -0.3032 -1.9103  1.6589
 4229TIP3   OH234101   6.078   6.183  15.191  0.2919 -0.1017  0.0512
 4229TIP3    H134102   6.067   6.105  15.136 -0.7002 -1.5050  2.0782
 4229TIP3    H234103   6.037   6.159  15.274  0.7035  2.3189  1.0409
 4230TIP3   OH234104   0.736   0.319   1.638  0.6787 -0.1710 -0.8676
 4230TIP3    H134105   0.681   0.382   1.684 -0.1216 -1.9018  0.6257
 4230TIP3    H234106   0.679   0.246   1.618  1.8490 -0.9342 -1.5635
 4231TIP3   OH234107   3.195   0.995  15.978 -0.4281 -0.4973  1.0009
 4231TIP3    H134108   3.159   0.944  15.905 -0.9183 -1.4133  1.8562
 4231TIP3    H234109   3.127   1.060  15.997  0.2435  0.5913 -0.1598
 4232TIP3   OH234110   6.119   4.740   1.490 -0.1906  0.2707 -0.3961
 4232TIP3    H134111   6.118   4.683   1.414  0.7876  0.0196 -0.2404
 4232TIP3    H234112   6.199   4.716   1.537  0.1648  1.6668 -0.2492
 4233TIP3   OH234113   6.112   4.166  15.410 -0.0897 -0.4064 -0.0435
 4233TIP3    H134114   6.178   4.121  15.462  0.4781 -1.4197 -1.5886
 4233TIP3    H234115   6.115   4.257  15.441  0.6549 -0.8424  1.2269
 4234TIP3   OH234116   5.514   1.449  15.898 -0.2525  0.0678 -0.0358
 4234TIP3    H134117   5.452   1.494  15.839  0.1424 -0.2756 -0.7245
 4234TIP3    H234118   5.541   1.517  15.960 -0.7838  0.4015 -0.1622
 4235TIP3   OH234119   6.180   5.935  14.245 -0.1599  0.6684 -0.0035
 4235TIP3    H134120   6.253   5.976  14.291 -1.4046  2.1078  0.7941
 4235TIP3    H234121   6.102   5.973  14.286 -1.3465  0.4073 -1.8950
 4236TIP3   OH234122   3.716   3.534   5.151 -0.1344 -0.1224  1.3747
 4236TIP3    H134123   3.751   3.446   5.142  0.9885  0.4012  0.3183
 4236TIP3    H234124   3.680   3.554   5.064 -1.8722 -0.1340  2.0562
 4237TIP3   OH234125   6.060   4.633   1.226  0.2694 -0.2639 -1.0022
 4237TIP3    H134126   5.974   4.661   1.196 -0.3778  1.6406  2.1398
 4237TIP3    H234127   6.045   4.548   1.268  0.2126 -0.5951 -1.6924
 4238TIP3   OH234128   1.176   2.959   5.687 -0.2350  0.1499  0.4341
 4238TIP3    H134129   1.091   2.934   5.650  0.3568 -0.6382 -0.4402
 4238TIP3    H234130   1.170   3.054   5.696 -0.7223  0.2740 -0.9300
 4239TIP3   OH234131   4.971   0.407  14.222  0.0371 -0.8699  0.1772
 4239TIP3    H134132   4.951   0.420  14.130 -0.4767  2.5232  0.6309
 4239TIP3    H234133   5.057   0.448  14.235 -1.4908  2.2103  1.7537
 4240TIP3   OH234134   5.301   6.317  15.990 -0.3084  0.3703  0.5210
 4240TIP3    H134135   5.214   6.349  16.015 -0.7813 -0.0145 -0.5224
 4240TIP3    H234136   5.316   6.241  16.047 -1.9940 -1.3776 -1.1761
 4241TIP3   OH234137   5.825   6.502  14.029  0.3868  0.6190 -0.2792
 4241TIP3    H134138   5.822   6.544  13.943  1.3335  0.8448 -0.2103
 4241TIP3    H234139   5.826   6.575  14.091  0.6715  0.4727 -0.1104
 4242TIP3   OH234140   4.443   3.655  17.045  0.0777 -0.4192 -0.0479
 4242TIP3    H134141   4.529   3.648  17.004  0.3707 -0.6702  0.6065
 4242TIP3    H234142   4.461   3.668  17.138 -0.5900 -0.2447  0.0623
 4243TIP3   OH234143   6.143   0.345  16.513  0.4703  0.0602  0.0973
 4243TIP3    H134144   6.153   0.270  16.572 -1.9402  0.7673  1.5484
 4243TIP3    H234145   6.202   0.326  16.440  2.7624 -1.3914  2.1766
 4244TIP3   OH234146   2.198   3.014   3.259 -0.5680  0.2237 -0.2213
 4244TIP3    H134147   2.138   2.974   3.196 -0.9685  1.5432 -0.7083
 4244TIP3    H234148   2.179   3.107   3.254 -1.5580  0.2880  2.8075
 4245TIP3   OH234149   3.996   5.152  15.850  0.0693 -0.5919 -0.4116
 4245TIP3    H134150   4.031   5.066  15.828 -0.9924 -0.8378 -1.2208
 4245TIP3    H234151   4.068   5.197  15.893  1.1073 -1.3611 -1.2926
 4246TIP3   OH234152   1.275   1.548  12.859 -0.1520 -0.0700  0.3150
 4246TIP3    H134153   1.240   1.542  12.947  1.4727 -1.7939  0.9266
 4246TIP3    H234154   1.348   1.486  12.858 -1.3444 -1.6823 -2.8104
 4247TIP3   OH234155   3.921   1.683   4.648  0.5510  0.3040 -0.5809
 4247TIP3    H134156   3.954   1.624   4.716  1.5224 -1.3061 -2.3562
 4247TIP3    H234157   3.833   1.706   4.677  0.5614 -1.1235  0.7185
 4248TIP3   OH234158   1.784   2.208   1.225 -0.1160 -0.0833  0.0483
 4248TIP3    H134159   1.780   2.255   1.308  0.0058 -1.5900  0.9389
 4248TIP3    H234160   1.704   2.157   1.222  0.5604 -1.1696 -0.0542
 4249TIP3   OH234161   5.582   5.941   6.280  0.3798 -0.1330 -0.4683
 4249TIP3    H134162   5.546   5.959   6.367  0.6876 -2.9605  0.3454
 4249TIP3    H234163   5.669   5.981   6.281  0.3955 -0.1750  0.5479
 4250TIP3   OH234164   5.233   4.229   0.546  0.3504  0.0662  0.1505
 4250TIP3    H134165   5.267   4.282   0.619  0.6147 -0.1562  0.1918
 4250TIP3    H234166   5.312   4.197   0.501  0.2474 -1.9945  1.3353
 4251TIP3   OH234167   3.714   0.016   5.248 -0.1990  0.2116 -0.2218
 4251TIP3    H134168   3.623   0.041   5.266  0.1004  1.1935 -0.0417
 4251TIP3    H234169   3.707  -0.047   5.177 -1.0901 -0.4573  0.4276
 4252TIP3   OH234170   2.302   3.740   6.947 -0.4466  0.0373 -0.6265
 4252TIP3    H134171   2.386   3.765   6.984  0.3588 -3.7982  0.6289
 4252TIP3    H234172   2.324   3.695   6.865 -1.4155  0.3962 -1.0956
 4253TIP3   OH234173   0.987   3.718  12.092 -0.7392  0.4765 -0.3543
 4253TIP3    H134174   0.939   3.796  12.119 -0.6588  0.6303 -0.6472
 4253TIP3    H234175   1.075   3.732  12.125 -0.8465  0.2870  0.0099
 4254TIP3   OH234176   5.236   4.570   0.990 -0.5275 -0.4784 -0.4629
 4254TIP3    H134177   5.143   4.563   1.011 -0.7180  0.6307 -0.8341
 4254TIP3    H234178   5.271   4.629   1.057 -0.1455 -0.6679 -0.4930
 4255TIP3   OH234179   4.487   3.464  15.635 -0.2778  0.4764  0.8080
 4255TIP3    H134180   4.570   3.439  15.673  1.0178  1.4800 -1.1574
 4255TIP3    H234181   4.462   3.544  15.682 -0.4020 -0.0912  1.7254
 4256TIP3   OH234182   2.830   0.305  14.126 -0.3439 -0.3133  0.1615
 4256TIP3    H134183   2.824   0.311  14.222  2.2272  2.2903  0.2645
 4256TIP3    H234184   2.740   0.322  14.096 -1.0086 -0.2220  2.0514
 4257TIP3   OH234185   5.889   0.412  12.238  0.1587  0.4221 -0.3138
 4257TIP3    H134186   5.854   0.355  12.306  0.6557  2.6330  1.9197
 4257TIP3    H234187   5.875   0.501  12.271  0.7541  1.5980 -2.9650
 4258TIP3   OH234188   5.932   6.333  15.405 -0.2907  0.1260 -0.6550
 4258TIP3    H134189   5.883   6.383  15.470 -0.8778 -1.6579  0.3387
 4258TIP3    H234190   5.866   6.311  15.339 -0.3767 -0.5330 -0.3566
 4259TIP3   OH234191   2.436   2.449  12.005 -0.0131 -0.4243  0.1304
 4259TIP3    H134192   2.490   2.398  12.066 -1.6801 -0.4245  1.7067
 4259TIP3    H234193   2.386   2.383  11.957 -1.0726 -0.3551  1.1055
 4260TIP3   OH234194   1.747   1.423  11.430 -0.1449  0.0063  0.6937
 4260TIP3    H134195   1.794   1.342  11.412  0.7356  0.6247  0.1259
 4260TIP3    H234196   1.667   1.416  11.378  0.7357  0.2346 -0.7387
 4261TIP3   OH234197   3.640   5.290   6.099 -0.0948  0.9732  0.0319
 4261TIP3    H134198   3.627   5.200   6.070  0.9193  0.2567  1.6931
 4261TIP3    H234199   3.571   5.305   6.163 -0.3333  1.4388 -0.3262
 4262TIP3   OH234200   6.176   5.050  15.814 -0.1535 -0.0547 -0.2802
 4262TIP3    H134201   6.152   4.968  15.856  0.5118 -0.9354 -1.5572
 4262TIP3    H234202   6.110   5.113  15.844 -0.8595 -1.1204  0.4591
 4263TIP3   OH234203   0.089   0.502  12.787 -0.1289 -0.5166  0.2900
 4263TIP3    H134204   0.116   0.518  12.878  1.6313 -0.4664 -0.1883
 4263TIP3    H234205   0.028   0.428  12.793 -2.7528  1.6072  1.8052
 4264TIP3   OH234206   3.472   4.156   0.065  0.7094  0.0145 -0.2203
 4264TIP3    H134207   3.417   4.172   0.142  0.0142 -1.4413 -0.3720
 4264TIP3    H234208   3.530   4.231   0.061 -1.0727  1.4958  0.1284
 4265TIP3   OH234209   3.540   6.579  16.939  0.1833 -0.0817  0.4568
 4265TIP3    H134210   3.583   6.534  17.012 -0.1359  0.5174  1.0199
 4265TIP3    H234211   3.519   6.666  16.973  1.5699  0.8256 -0.8671
 4266TIP3   OH234212   3.046   1.885   0.784  0.2712 -0.0491 -0.0317
 4266TIP3    H134213   3.119   1.916   0.730 -0.8835  1.2500 -0.9140
 4266TIP3    H234214   2.969   1.892   0.727 -0.7575 -0.1092  1.2957
 4267TIP3   OH234215   3.414   6.257   4.708  0.0776 -0.1728 -0.1329
 4267TIP3    H134216   3.494   6.275   4.757 -0.6770  0.6269  0.8417
 4267TIP3    H234217   3.349   6.234   4.775  0.1589 -3.6749 -1.0409
 4268TIP3   OH234218   5.359   5.608   3.062 -0.7192 -0.4183 -0.9025
 4268TIP3    H134219   5.385   5.589   3.152 -0.1789  0.7514 -0.8039
 4268TIP3    H234220   5.264   5.619   3.067 -0.4888  1.7707 -0.0403
 4269TIP3   OH234221   1.680   4.130  16.081 -0.1616  0.3278  0.1452
 4269TIP3    H134222   1.624   4.171  16.148  1.4978  1.4890  0.8749
 4269TIP3    H234223   1.759   4.105  16.129  0.4220 -0.2721 -1.1021
 4270TIP3   OH234224   3.252   5.005   1.853 -0.3991  0.6184 -0.0344
 4270TIP3    H134225   3.246   5.085   1.905  0.5475 -0.3226  1.5961
 4270TIP3    H234226   3.335   5.012   1.806  0.7520 -0.2970  1.7596
 4271TIP3   OH234227   6.686   5.276  16.273  0.0064  0.1704  0.2127
 4271TIP3    H134228   6.679   5.371  16.267  3.1163  0.7532  2.9445
 4271TIP3    H234229   6.732   5.250  16.193 -1.7177  0.7123 -1.0316
 4272TIP3   OH234230   0.378   0.768  12.011 -0.2903  1.0652 -0.5947
 4272TIP3    H134231   0.321   0.772  11.934 -0.0169  1.1606 -0.7897
 4272TIP3    H234232   0.428   0.687  12.000  0.2171  1.4107 -0.8436
 4273TIP3   OH234233   4.887   6.476   3.820 -0.7938 -0.1911  0.1551
 4273TIP3    H134234   4.961   6.468   3.759 -1.2343 -0.2373 -0.3826
 4273TIP3    H234235   4.911   6.419   3.893 -1.2026 -1.8537 -0.9430
 4274TIP3   OH234236   0.730   6.498  17.033 -0.4771 -0.7216 -0.3068
 4274TIP3    H134237   0.762   6.429  16.975  0.3172  0.0673 -0.8300
 4274TIP3    H234238   0.700   6.452  17.112 -1.9913 -1.8630 -1.4800
 4275TIP3   OH234239   1.590   4.898   0.603  0.0497 -0.5683  0.0066
 4275TIP3    H134240   1.522   4.896   0.535  0.9115 -0.7566 -0.8695
 4275TIP3    H234241   1.565   4.972   0.659 -0.0275  0.3596 -1.2100
 4276TIP3   OH234242   3.653   6.663  12.547  0.0625  0.2842 -0.0116
 4276TIP3    H134243   3.691   6.738  12.593 -1.2149  0.2816  1.1100
 4276TIP3    H234244   3.661   6.590  12.609  4.5322 -1.5578 -2.3336
 4277TIP3   OH234245   2.657   6.331  12.567 -0.3356  0.6863  0.2412
 4277TIP3    H134246   2.666   6.375  12.652 -0.2604  0.0365  0.5807
 4277TIP3    H234247   2.720   6.376  12.510 -1.0836  1.7806  0.2452
 4278TIP3   OH234248   5.177   2.272   0.631 -0.2585 -0.0186 -0.1085
 4278TIP3    H134249   5.226   2.281   0.713  2.8819 -0.8712 -1.7361
 4278TIP3    H234250   5.165   2.363   0.601 -0.5198  0.2498  0.7838
 4279TIP3   OH234251   1.638   0.196  12.754  0.7001 -0.5595  0.1145
 4279TIP3    H134252   1.555   0.160  12.722  1.2615 -2.2563  0.5012
 4279TIP3    H234253   1.658   0.145  12.832  1.5342  0.6284  0.7088
 4280TIP3   OH234254   6.711   4.642  11.248  0.0358 -0.0557  0.2364
 4280TIP3    H134255   6.670   4.589  11.317 -1.2509 -0.7815 -1.0453
 4280TIP3    H234256   6.776   4.584  11.208  1.7061  0.7681  1.5915
 4281TIP3   OH234257   4.373   0.627  15.829 -0.0046 -0.3625 -0.0572
 4281TIP3    H134258   4.298   0.612  15.770 -1.4868  1.2262  1.2984
 4281TIP3    H234259   4.449   0.622  15.772 -1.1560 -1.5622 -1.6036
 4282TIP3   OH234260   3.610   5.259   2.681  0.5192  0.2844 -0.5419
 4282TIP3    H134261   3.527   5.213   2.681  0.7193 -0.1649  1.5180
 4282TIP3    H234262   3.606   5.318   2.756  1.0981  2.1670 -1.8918
 4283TIP3   OH234263   1.117   4.560   0.824 -0.2694 -0.4003 -0.5878
 4283TIP3    H134264   1.130   4.473   0.863  1.5425 -0.3370 -0.9621
 4283TIP3    H234265   1.197   4.608   0.846 -1.1386  1.0987 -0.6126
 4284TIP3   OH234266   2.964   0.516  14.396 -0.2533  0.3235 -0.0059
 4284TIP3    H134267   2.870   0.504  14.408 -0.9607  1.5237 -3.1599
 4284TIP3    H234268   3.004   0.436  14.430 -2.9160 -2.6455 -3.0630
 4285TIP3   OH234269   6.478   3.843   2.479 -0.2953 -0.0157  0.1464
 4285TIP3    H134270   6.439   3.872   2.562 -2.1683 -0.8106 -0.3975
 4285TIP3    H234271   6.413   3.866   2.413 -0.0561 -1.8122 -0.7690
 4286TIP3   OH234272   1.436   4.277   0.269  0.1565  0.3732 -0.1463
 4286TIP3    H134273   1.490   4.354   0.287 -0.0000  0.7000 -1.0396
 4286TIP3    H234274   1.372   4.275   0.341  1.7451 -0.4168  1.3266
 4287TIP3   OH234275   5.658   1.912   6.207 -0.8921 -0.2713  0.3451
 4287TIP3    H134276   5.658   1.872   6.120  2.0951 -0.6179  0.4160
 4287TIP3    H234277   5.648   1.838   6.268 -0.0253 -0.3700  0.3672
 4288TIP3   OH234278   1.336   2.268  14.616 -0.0250  0.1831 -0.5761
 4288TIP3    H134279   1.348   2.251  14.710  0.5660  1.2570 -0.4440
 4288TIP3    H234280   1.339   2.181  14.576 -1.4844 -0.4002  0.5078
 4289TIP3   OH234281   2.091   5.589  13.120 -0.4946  0.0887 -0.2555
 4289TIP3    H134282   2.179   5.626  13.111 -0.3528  0.1068  0.9955
 4289TIP3    H234283   2.035   5.647  13.070  0.3429 -0.5164 -1.9572
 4290TIP3   OH234284   4.018   6.002  12.839  0.2972 -0.1690  0.1862
 4290TIP3    H134285   4.071   6.081  12.850  0.5482 -0.3847  0.5797
 4290TIP3    H234286   3.928   6.033  12.836  0.4356  0.1904 -0.3493
 4291TIP3   OH234287   5.329   3.565   3.796 -0.7079 -0.1645  0.3581
 4291TIP3    H134288   5.317   3.635   3.860 -0.9701  2.1903 -2.1143
 4291TIP3    H234289   5.244   3.557   3.753  0.0646 -0.0739 -1.2391
 4292TIP3   OH234290   6.174   5.207   1.133  0.8191 -0.0634  0.0817
 4292TIP3    H134291   6.123   5.131   1.105  1.1322  0.1422 -1.1157
 4292TIP3    H234292   6.111   5.263   1.178  0.4927 -0.8297  0.5995
 4293TIP3   OH234293   3.198   5.804  11.415  0.6355  0.2838  0.1506
 4293TIP3    H134294   3.211   5.843  11.328 -0.5960  0.4313  0.0209
 4293TIP3    H234295   3.134   5.860  11.458  0.6682 -0.2179  0.8769
 4294TIP3   OH234296   2.120   0.251  15.323 -0.2726 -0.1949 -0.2688
 4294TIP3    H134297   2.208   0.224  15.348 -0.8148 -0.5877  1.2882
 4294TIP3    H234298   2.133   0.334  15.277  0.9210 -0.3636 -0.2651
 4295TIP3   OH234299   3.929   0.732   1.212  0.1780 -0.6241 -0.0997
 4295TIP3    H134300   3.998   0.666   1.218 -1.6920 -2.7043 -0.2007
 4295TIP3    H234301   3.959   0.792   1.144  0.6837 -3.0407 -2.1423
 4296TIP3   OH234302   3.745   4.207   5.316 -0.1357 -0.6123 -0.7082
 4296TIP3    H134303   3.706   4.122   5.339  0.0963 -0.7434 -0.8039
 4296TIP3    H234304   3.714   4.266   5.384 -0.5313 -0.7118 -0.7987
 4297TIP3   OH234305   3.865   0.507   2.215 -0.1259  0.6296 -0.1587
 4297TIP3    H134306   3.831   0.532   2.301  0.5774 -1.1788  0.6924
 4297TIP3    H234307   3.787   0.488   2.163 -0.5357  0.6754  0.4306
 4298TIP3   OH234308   3.250   4.382   0.946 -0.3485  0.0034 -0.4534
 4298TIP3    H134309   3.278   4.443   1.015 -1.1835 -0.1292  0.0150
 4298TIP3    H234310   3.160   4.407   0.926 -0.2191 -0.1651 -1.2812
 4299TIP3   OH234311   3.465   3.526  11.283  0.0813  0.1857  0.4861
 4299TIP3    H134312   3.489   3.614  11.256 -2.6729  1.4613  1.7606
 4299TIP3    H234313   3.526   3.505  11.354 -0.0606  1.6573  1.0778
 4300TIP3   OH234314   4.658   0.156   1.595 -0.2818 -0.2448 -0.2950
 4300TIP3    H134315   4.691   0.192   1.677 -0.1220  2.4107 -1.4122
 4300TIP3    H234316   4.563   0.156   1.605 -0.2221 -1.1444  0.3378
 4301TIP3   OH234317   6.243   5.687  13.092  0.4484 -0.0278 -0.5314
 4301TIP3    H134318   6.324   5.678  13.042 -0.2597 -1.6704 -1.4907
 4301TIP3    H234319   6.174   5.657  13.032 -0.5910 -0.8021  0.9653
 4302TIP3   OH234320   1.978   0.285   3.603  0.0422 -0.0949 -0.7040
 4302TIP3    H134321   2.000   0.367   3.559 -3.1115  1.0962 -0.3514
 4302TIP3    H234322   1.936   0.232   3.535 -0.0853 -0.4199 -0.3762
 4303TIP3   OH234323   6.611   1.614   3.918  0.6523 -0.4105 -0.1798
 4303TIP3    H134324   6.568   1.563   3.987  1.1567 -0.3105  0.2178
 4303TIP3    H234325   6.610   1.556   3.842  0.4211 -0.6723  0.0169
 4304TIP3   OH234326   5.767   6.739   5.623 -0.3694  0.4568  0.4566
 4304TIP3    H134327   5.858   6.768   5.623 -0.6524  1.3835 -0.2784
 4304TIP3    H234328   5.753   6.704   5.711  1.1612 -1.2843  0.0740
 4305TIP3   OH234329   2.489   6.433   1.117  0.3256  0.3432 -0.9157
 4305TIP3    H134330   2.554   6.367   1.140 -1.6124 -0.7786  1.7911
 4305TIP3    H234331   2.408   6.384   1.102 -1.0253  1.9798  0.5362
 4306TIP3   OH234332   4.736   2.407   4.622 -0.1518 -0.5774  0.0052
 4306TIP3    H134333   4.810   2.348   4.641  0.6755  0.1405 -0.9218
 4306TIP3    H234334   4.758   2.488   4.668  0.9344  0.5197 -2.3040
 4307TIP3   OH234335   6.181   1.177  16.326  0.4177 -0.1972 -0.4295
 4307TIP3    H134336   6.256   1.211  16.277  0.9051 -2.5376 -1.4370
 4307TIP3    H234337   6.130   1.129  16.261 -1.4257  0.4395  0.4755
 4308TIP3   OH234338   2.080   0.416  12.550 -0.1855 -0.1218 -0.7478
 4308TIP3    H134339   1.996   0.374  12.570  0.6351 -0.8456  1.5891
 4308TIP3    H234340   2.057   0.501  12.513 -1.9968  0.0862  0.7024
 4309TIP3   OH234341   5.480   6.530  11.667  0.8208  0.2673 -0.0586
 4309TIP3    H134342   5.419   6.594  11.630  0.4852 -0.2116 -0.3341
 4309TIP3    H234343   5.484   6.553  11.760 -0.0722  0.0716  0.0373
 4310TIP3   OH234344   3.887   5.469   4.745  0.2032  0.0929 -0.0093
 4310TIP3    H134345   3.905   5.407   4.817  0.1485  0.9535  0.7608
 4310TIP3    H234346   3.871   5.413   4.669  2.5072 -0.7950  0.0997
 4311TIP3   OH234347   6.195   4.964   5.341  0.4197  0.0062 -0.0469
 4311TIP3    H134348   6.281   4.936   5.373  1.1158  0.5444 -1.3874
 4311TIP3    H234349   6.196   5.059   5.349  0.7832  0.2029 -1.9904
 4312TIP3   OH234350   0.229   5.143   5.804 -0.5123  0.1422 -0.4472
 4312TIP3    H134351   0.234   5.060   5.853 -1.2323  0.3970  0.0798
 4312TIP3    H234352   0.283   5.204   5.854 -0.4208  0.1327 -0.5350
 4313TIP3   OH234353   3.872   2.485   5.266 -0.6230  0.3282 -0.2932
 4313TIP3    H134354   3.887   2.396   5.297  0.0551  0.9072  1.1450
 4313TIP3    H234355   3.956   2.510   5.226 -0.5238  0.6203  0.0945
 4314TIP3   OH234356   1.512   0.677   1.737 -0.0997  0.2840  0.5376
 4314TIP3    H134357   1.565   0.728   1.799 -0.9889  0.8300  0.8579
 4314TIP3    H234358   1.561   0.684   1.654 -0.6685  2.5014  0.3219
 4315TIP3   OH234359   5.979   2.598  16.212  0.6178 -0.1399  0.5554
 4315TIP3    H134360   6.020   2.550  16.141  0.8347  0.9915 -0.1148
 4315TIP3    H234361   5.926   2.665  16.169  0.2558  0.1734  1.4505
 4316TIP3   OH234362   2.150   2.482  11.261  0.3219  0.9788 -0.4307
 4316TIP3    H134363   2.154   2.574  11.288  0.6134  0.7788  0.2351
 4316TIP3    H234364   2.057   2.462  11.257  0.2153  0.5586  2.1217
 4317TIP3   OH234365   2.304   5.694  11.377  0.3721 -0.2877  0.2335
 4317TIP3    H134366   2.311   5.788  11.398  1.0223  0.0931 -1.4995
 4317TIP3    H234367   2.344   5.686  11.290 -0.4683 -2.0351 -0.0357
 4318TIP3   OH234368   3.119   0.288  12.055  0.4365 -0.2259  0.7987
 4318TIP3    H134369   3.026   0.268  12.059  0.1366  0.7364 -0.5879
 4318TIP3    H234370   3.162   0.203  12.048 -0.2511 -0.7343  2.2907
 4319TIP3   OH234371   0.256   1.264   2.131 -0.1930 -0.4181 -0.6481
 4319TIP3    H134372   0.309   1.307   2.198 -1.8277  1.2282 -0.3205
 4319TIP3    H234373   0.215   1.191   2.177 -1.6260  0.9382  0.3600
 4320TIP3   OH234374   6.007   6.616  16.030  0.1165 -0.2902 -0.4383
 4320TIP3    H134375   6.024   6.675  16.103  1.3046 -0.2690 -0.7235
 4320TIP3    H234376   6.019   6.528  16.067  0.6954 -0.2799 -0.5916
 4321TIP3   OH234377   1.824   2.633  12.806  0.0852 -0.1517  0.0659
 4321TIP3    H134378   1.762   2.637  12.879 -0.2640 -0.0928 -0.2303
 4321TIP3    H234379   1.787   2.692  12.740  1.3270  1.1836  0.5231
 4322TIP3   OH234380   5.739   6.053   3.046 -0.2320 -0.6757 -0.0764
 4322TIP3    H134381   5.779   5.969   3.025 -2.0823 -1.1944 -1.8373
 4322TIP3    H234382   5.757   6.108   2.970 -0.2932  0.0552  0.4256
 4323TIP3   OH234383   4.028   6.176   2.833  0.1158  0.0119  0.3878
 4323TIP3    H134384   4.001   6.088   2.805  3.6085 -0.8814 -0.6594
 4323TIP3    H234385   3.958   6.233   2.801 -1.5831 -2.2084 -0.1457
 4324TIP3   OH234386   3.036   1.072  16.276  0.2007 -0.0317  0.7592
 4324TIP3    H134387   2.975   1.072  16.202 -0.4886 -0.9113  1.3064
 4324TIP3    H234388   3.093   1.146  16.260 -2.4117  2.2887  1.3887
 4325TIP3   OH234389   5.703   1.045  13.012 -0.3563  0.3096 -0.6656
 4325TIP3    H134390   5.690   0.992  12.933  0.8693  0.5428 -1.0375
 4325TIP3    H234391   5.750   1.122  12.982 -1.6561  1.3949 -0.0340
 4326TIP3   OH234392   0.930   4.076   6.367 -0.1567  0.0310  0.2389
 4326TIP3    H134393   0.987   4.149   6.343  1.3248 -1.7431 -2.0539
 4326TIP3    H234394   0.974   3.998   6.331 -3.1972 -1.6496 -0.1814
 4327TIP3   OH234395   0.680   0.273   3.915 -0.5195 -0.0310  0.0545
 4327TIP3    H134396   0.639   0.206   3.969  0.1223  0.8501  1.6845
 4327TIP3    H234397   0.630   0.352   3.933  0.5560  0.5799  0.4344
 4328TIP3   OH234398   6.071   6.197   2.669 -0.0774 -0.1373 -0.7128
 4328TIP3    H134399   6.150   6.242   2.698 -0.5164 -0.2971  0.8332
 4328TIP3    H234400   6.093   6.163   2.582  1.9207 -1.0427  0.0665
 4329TIP3   OH234401   2.355   1.710   0.366  0.6734 -0.0043 -0.0270
 4329TIP3    H134402   2.383   1.631   0.413 -0.1363 -0.2530  0.0540
 4329TIP3    H234403   2.293   1.753   0.426 -0.1879 -0.1947 -0.7523
 4330TIP3   OH234404   3.769   3.093  17.229  0.5520  0.1227  0.2395
 4330TIP3    H134405   3.760   3.114  17.137  0.8247  1.1584  0.4314
 4330TIP3    H234406   3.767   3.178  17.273 -0.4633 -0.4108  1.2732
 4331TIP3   OH234407   2.698   2.612   5.718  0.9467 -0.0202  0.3510
 4331TIP3    H134408   2.732   2.524   5.735  1.0149  0.0668  0.6771
 4331TIP3    H234409   2.606   2.608   5.747  0.2714 -0.6246 -1.7103
 4332TIP3   OH234410   4.999   0.972   4.065 -0.5578 -0.4070  0.3724
 4332TIP3    H134411   5.001   0.995   4.157 -0.7822 -1.2086  0.5906
 4332TIP3    H234412   4.906   0.965   4.044 -0.6873  3.0401 -0.8029
 4333TIP3   OH234413   3.452   4.778   2.536 -0.2415  0.0158  0.7142
 4333TIP3    H134414   3.485   4.758   2.624  0.6143 -1.0981  0.1601
 4333TIP3    H234415   3.497   4.715   2.479 -3.1559 -1.4412 -0.1339
 4334TIP3   OH234416   6.190   0.714  15.978 -0.1426  0.4173 -0.0978
 4334TIP3    H134417   6.215   0.805  15.963 -1.8797  0.8755 -0.4105
 4334TIP3    H234418   6.216   0.668  15.898  0.8239  0.6080  0.1007
 4335TIP3   OH234419   2.617   5.395  11.407 -0.0408 -0.1072 -0.6496
 4335TIP3    H134420   2.638   5.303  11.425  0.5502  0.2459  0.5842
 4335TIP3    H234421   2.574   5.394  11.322  1.8278 -1.2899 -1.6419
 4336TIP3   OH234422   1.970   1.621   2.237  0.3729 -0.2824  0.6494
 4336TIP3    H134423   2.021   1.592   2.160  1.1419  1.4866  0.4534
 4336TIP3    H234424   2.023   1.593   2.312 -0.1225 -1.5493  0.5542
 4337TIP3   OH234425   2.305   5.697  15.950  0.3506  0.2875 -0.5764
 4337TIP3    H134426   2.370   5.766  15.940 -0.3493  1.1254  0.4484
 4337TIP3    H234427   2.299   5.684  16.044  0.7386 -1.4508 -0.7625
 4338TIP3   OH234428   6.051   6.387  11.526 -0.3782  0.0600  0.0769
 4338TIP3    H134429   6.096   6.454  11.577  2.3925 -1.2018 -0.4904
 4338TIP3    H234430   6.005   6.435  11.458 -0.0815  1.4798  0.8511
 4339TIP3   OH234431   0.527   4.237   6.117  0.2912  0.7427  0.4626
 4339TIP3    H134432   0.546   4.275   6.031 -3.8476  0.8994 -0.6042
 4339TIP3    H234433   0.598   4.175   6.132  1.6243  1.2976 -2.6949
 4340TIP3   OH234434   1.550   4.666  14.974  0.9469  0.0317  0.5545
 4340TIP3    H134435   1.470   4.643  15.020  0.9237 -1.0566  0.0121
 4340TIP3    H234436   1.524   4.673  14.882  1.4618 -0.3009  0.3776
 4341TIP3   OH234437   2.407   2.897  14.200  0.6091 -0.0083  0.3806
 4341TIP3    H134438   2.327   2.844  14.188  0.7423  0.2490 -2.4951
 4341TIP3    H234439   2.386   2.956  14.272 -0.5206 -2.1679  1.9509
 4342TIP3   OH234440   3.055   3.428   4.274 -0.2941 -0.4843  0.0984
 4342TIP3    H134441   3.063   3.347   4.324  3.4946  0.4072  1.2007
 4342TIP3    H234442   3.038   3.399   4.185  1.8196 -2.6227  0.2937
 4343TIP3   OH234443   4.843   1.450  15.867 -0.3138  0.2712  0.3337
 4343TIP3    H134444   4.862   1.468  15.960  2.0113 -0.8980  0.1538
 4343TIP3    H234445   4.796   1.367  15.868 -1.9451  1.1537  0.5268
 4344TIP3   OH234446   6.730   0.095   3.493 -0.0446  0.6514 -0.0442
 4344TIP3    H134447   6.684   0.081   3.575 -1.2026  0.0400 -0.7803
 4344TIP3    H234448   6.820   0.067   3.511 -0.1839  0.9089  1.1194
 4345TIP3   OH234449   6.027   2.075   1.784  0.0171 -0.1153 -0.3111
 4345TIP3    H134450   6.079   2.142   1.739  0.7626 -0.5691 -0.1459
 4345TIP3    H234451   5.940   2.113   1.790  0.3268  0.6740 -0.5874
 4346TIP3   OH234452   0.980   1.476  12.911  0.2294 -0.0026  0.3674
 4346TIP3    H134453   1.030   1.539  12.963  1.3204  0.6760 -1.4499
 4346TIP3    H234454   1.037   1.452  12.839 -0.7490 -1.9520  0.1530
 4347TIP3   OH234455   2.518   0.560  13.378  0.0413 -0.3181 -0.3639
 4347TIP3    H134456   2.534   0.470  13.407 -1.9025 -1.2265 -1.8793
 4347TIP3    H234457   2.504   0.554  13.284  0.8516  1.7491 -0.6769
 4348TIP3   OH234458   4.014   1.778  15.605 -0.0743  0.4245 -0.1313
 4348TIP3    H134459   3.994   1.768  15.512  0.0890  2.0803 -0.3672
 4348TIP3    H234460   4.107   1.757  15.612  0.1488  1.2696 -0.5191
 4349TIP3   OH234461   4.967   2.468  11.776  0.0657 -0.4782 -0.0863
 4349TIP3    H134462   4.966   2.399  11.710  1.1655  0.2545 -0.8901
 4349TIP3    H234463   5.012   2.541  11.735 -0.3132  0.4358  1.0515
 4350TIP3   OH234464   0.713   3.819   4.901  0.2866  0.4497 -0.2037
 4350TIP3    H134465   0.729   3.911   4.922 -0.0972  0.5853 -0.4724
 4350TIP3    H234466   0.619   3.808   4.915  0.6317 -0.4014  1.6783
 4351TIP3   OH234467   5.566   0.496  14.856 -0.0252 -0.1472  0.0036
 4351TIP3    H134468   5.503   0.522  14.923 -1.2050 -1.3788 -0.5733
 4351TIP3    H234469   5.547   0.403  14.841  1.6801 -0.4514 -0.4775
 4352TIP3   OH234470   3.519   4.272  16.893 -0.1015  0.0583  0.1650
 4352TIP3    H134471   3.424   4.278  16.895 -0.0485  0.9379  0.9407
 4352TIP3    H234472   3.539   4.238  16.806 -1.0464  1.8711 -0.8272
 4353TIP3   OH234473   3.428   3.643  15.992 -0.2373  0.0825 -0.1256
 4353TIP3    H134474   3.420   3.559  15.948 -0.0136 -0.0568  0.0995
 4353TIP3    H234475   3.462   3.622  16.079 -0.5880  0.3671  0.0809
 4354TIP3   OH234476   3.131   2.811  13.474  0.6489  0.2109  0.1305
 4354TIP3    H134477   3.123   2.757  13.553 -1.8480 -0.8442 -0.7310
 4354TIP3    H234478   3.044   2.810  13.436  1.1460  2.8831 -1.2798
 4355TIP3   OH234479   6.373   0.299  11.392 -0.4904 -0.2078 -0.1110
 4355TIP3    H134480   6.402   0.319  11.304 -0.2149 -0.5428 -0.0958
 4355TIP3    H234481   6.283   0.266  11.381 -0.0120 -1.4635 -0.3988
 4356TIP3   OH234482   0.482   5.339  13.718 -0.4968  0.0147  0.5715
 4356TIP3    H134483   0.466   5.331  13.812  1.1496 -0.9151  0.8264
 4356TIP3    H234484   0.454   5.428  13.695  2.0114  1.4934  2.6551
 4357TIP3   OH234485   5.488   0.774   5.587 -0.1224  0.6667 -0.1953
 4357TIP3    H134486   5.572   0.729   5.600 -0.6195 -0.5119 -0.9222
 4357TIP3    H234487   5.431   0.707   5.550 -1.7572  1.1063  1.4272
 4358TIP3   OH234488   5.825   3.137   5.558 -0.2300 -0.4748  0.2503
 4358TIP3    H134489   5.912   3.101   5.542 -0.0584  0.2290 -0.4564
 4358TIP3    H234490   5.837   3.198   5.632  0.1521  0.5699 -0.6465
 4359TIP3   OH234491   0.019   1.386   0.237 -0.2268  0.2321 -0.3841
 4359TIP3    H134492   0.059   1.457   0.187  0.3083 -0.2346 -0.6294
 4359TIP3    H234493  -0.035   1.430   0.302 -1.3072  0.8514 -1.6593
 4360TIP3   OH234494   0.739   3.570  13.916  0.1378 -0.1247 -0.5539
 4360TIP3    H134495   0.816   3.532  13.957  0.0516  0.8766  0.5933
 4360TIP3    H234496   0.724   3.516  13.839  1.8287 -0.5088 -0.6691
 4361TIP3   OH234497   3.540   0.231  15.876  0.5364  0.0120 -0.1033
 4361TIP3    H134498   3.480   0.167  15.914 -0.5034  1.3363  0.5546
 4361TIP3    H234499   3.602   0.178  15.825  0.4417 -1.6036  1.3631
 4362TIP3   OH234500   5.959   3.925  12.466 -0.1426  0.1426 -0.0190
 4362TIP3    H134501   5.905   3.961  12.396 -0.3199  0.1170  0.1021
 4362TIP3    H234502   5.940   3.981  12.542 -0.7604 -0.4651  0.2899
 4363TIP3   OH234503   4.715   0.511   4.943  0.2631 -0.4452 -0.0240
 4363TIP3    H134504   4.645   0.477   4.999  0.3140  1.5951  1.3877
 4363TIP3    H234505   4.674   0.519   4.856 -0.8505 -0.5431  0.4729
 4364TIP3   OH234506   4.224   6.104  15.643  0.1369 -0.0468 -0.2297
 4364TIP3    H134507   4.297   6.048  15.669 -1.3290 -1.5310  0.8302
 4364TIP3    H234508   4.240   6.122  15.550  2.1263  0.1499  0.1010
 4365TIP3   OH234509   4.720   2.236   0.870  0.5811  0.2857 -0.1897
 4365TIP3    H134510   4.793   2.175   0.883 -0.1175 -0.5260  0.0076
 4365TIP3    H234511   4.656   2.211   0.936 -0.3942  0.1626 -1.1473
 4366TIP3   OH234512   1.087   4.582   1.517  0.2185  0.2192  0.5566
 4366TIP3    H134513   1.049   4.644   1.579  0.6717  1.1200 -0.0288
 4366TIP3    H234514   1.122   4.511   1.570 -0.7007  0.2530  1.2162
 4367TIP3   OH234515   5.816   6.342  12.999  0.3588 -0.2776  0.1599
 4367TIP3    H134516   5.890   6.292  12.965  2.1667 -0.3851  3.7746
 4367TIP3    H234517   5.850   6.432  13.006 -0.3757 -0.0234  0.5287
 4368TIP3   OH234518   2.649   1.509   1.908 -0.0669  0.0091 -0.1367
 4368TIP3    H134519   2.713   1.576   1.882  0.5628 -0.6065 -0.2101
 4368TIP3    H234520   2.568   1.536   1.865  0.3022  0.4518 -0.5737
 4369TIP3   OH234521   5.761   4.089  14.266  0.2858  0.1838  0.1787
 4369TIP3    H134522   5.842   4.038  14.275  1.2427  1.7091  0.5765
 4369TIP3    H234523   5.743   4.122  14.354 -1.5780 -1.2505  0.3854
 4370TIP3   OH234524   5.316   3.806   3.588  0.0191  0.0960  0.2217
 4370TIP3    H134525   5.364   3.846   3.660 -0.2894  0.1231  0.4103
 4370TIP3    H234526   5.310   3.876   3.522 -2.1850  1.0260  1.2997
 4371TIP3   OH234527   2.202   5.694  17.018 -0.0806  0.0676  0.1423
 4371TIP3    H134528   2.241   5.782  17.022  1.5393 -0.3942 -2.5954
 4371TIP3    H234529   2.117   5.708  16.977 -0.3823  0.4578  0.8704
 4372TIP3   OH234530   1.657   0.001  15.564  1.2056  0.0372 -0.3707
 4372TIP3    H134531   1.666   0.045  15.649  0.0461  2.5049 -1.4391
 4372TIP3    H234532   1.578  -0.052  15.573  0.3270  1.3298 -0.3071
 4373TIP3   OH234533   2.944   1.470   6.394 -0.4013 -0.1475  0.6627
 4373TIP3    H134534   2.903   1.548   6.358  1.6947  0.4130 -0.7079
 4373TIP3    H234535   2.872   1.409   6.407 -1.7199  0.8905 -1.2664
 4374TIP3   OH234536   6.484   5.531   0.580  0.2417  0.0929 -0.0112
 4374TIP3    H134537   6.451   5.551   0.492 -2.4500 -0.1964  0.8502
 4374TIP3    H234538   6.453   5.604   0.634 -0.4040 -1.0082  1.1587
 4375TIP3   OH234539   3.188   5.546  12.657 -0.5287 -0.0899 -0.4205
 4375TIP3    H134540   3.231   5.588  12.732  0.7622 -1.1225 -0.5435
 4375TIP3    H234541   3.244   5.567  12.583  0.4353 -2.3131 -0.4156
 4376TIP3   OH234542   6.252   3.970   2.341 -0.0554  0.3640  0.7686
 4376TIP3    H134543   6.238   3.992   2.249 -1.1804 -0.0810  0.8087
 4376TIP3    H234544   6.174   3.919   2.365 -0.4397  1.6013  2.3358
 4377TIP3   OH234545   3.306   3.641   1.416 -0.8135  0.2749  0.3041
 4377TIP3    H134546   3.401   3.634   1.402 -0.7507 -0.3229  0.9739
 4377TIP3    H234547   3.272   3.669   1.331 -0.1699 -0.7623 -0.3184
 4378TIP3   OH234548   1.655   6.102  11.438  0.1702  0.0317 -0.6058
 4378TIP3    H134549   1.724   6.086  11.374 -0.0573  0.0695 -0.8666
 4378TIP3    H234550   1.574   6.097  11.386  0.0285  0.9363 -0.4948
 4379TIP3   OH234551   5.002   4.647  16.618 -0.1254 -0.0381 -0.0381
 4379TIP3    H134552   4.980   4.619  16.530  0.4651  0.1022 -0.2352
 4379TIP3    H234553   5.081   4.701  16.608  0.9181 -1.3600  0.7523
 4380TIP3   OH234554   4.520   2.720  12.706 -0.2662 -0.0069  0.0093
 4380TIP3    H134555   4.454   2.692  12.769 -0.8867 -1.7059 -1.3399
 4380TIP3    H234556   4.556   2.639  12.670  3.2119  0.7911  1.2700
 4381TIP3   OH234557   2.111   4.966   4.923  0.0947  0.1768 -0.4468
 4381TIP3    H134558   2.066   4.957   4.838 -0.0396  1.5457 -0.5425
 4381TIP3    H234559   2.043   4.994   4.983 -0.0129 -1.7193  0.3661
 4382TIP3   OH234560   5.342   5.496  15.035 -0.2162 -0.2139 -0.3330
 4382TIP3    H134561   5.315   5.404  15.034 -1.0354  0.0180 -0.5601
 4382TIP3    H234562   5.417   5.499  15.094 -0.1891 -1.0258 -0.3181
 4383TIP3   OH234563   3.979   0.196   1.392 -0.7886 -0.4097  0.2918
 4383TIP3    H134564   4.035   0.267   1.424 -0.1433 -0.1895 -1.2317
 4383TIP3    H234565   3.908   0.241   1.346 -0.2816 -0.7301 -0.8332
 4384TIP3   OH234566   4.122   2.093   2.734 -0.1652  0.2450  0.0941
 4384TIP3    H134567   4.069   2.031   2.784  1.4424  0.2872  1.9902
 4384TIP3    H234568   4.158   2.041   2.662  1.3010 -1.1773  1.7468
 4385TIP3   OH234569   1.317   4.430  16.756 -0.1212 -0.6353 -1.0806
 4385TIP3    H134570   1.263   4.412  16.833  0.4429  3.9605  0.7102
 4385TIP3    H234571   1.405   4.403  16.782 -0.1166 -0.1152 -0.5501
 4386TIP3   OH234572   1.212   1.496   1.575  1.0191  0.4322  0.2450
 4386TIP3    H134573   1.294   1.491   1.624  1.6437 -0.7282 -0.8586
 4386TIP3    H234574   1.233   1.551   1.499 -0.3117  3.4209  1.8395
 4387TIP3   OH234575   0.169   5.240  15.630  0.0592  0.6729  0.1124
 4387TIP3    H134576   0.082   5.234  15.591  0.1696  1.4980 -0.2834
 4387TIP3    H234577   0.158   5.208  15.719 -0.8721  1.7162  0.3887
 4388TIP3   OH234578   4.036   4.572   1.600 -0.1778  0.4236 -0.1026
 4388TIP3    H134579   3.945   4.549   1.577 -0.2454  0.5971 -0.0080
 4388TIP3    H234580   4.044   4.664   1.577  0.4836  0.0063 -1.6960
 4389TIP3   OH234581   3.863   1.483  11.908 -0.3708 -0.6085  0.1804
 4389TIP3    H134582   3.768   1.476  11.903 -0.3846  0.2144 -1.0240
 4389TIP3    H234583   3.892   1.484  11.817  0.6165  1.0931  0.4639
 4390TIP3   OH234584   3.132   1.952   2.779  0.0952 -0.4210 -0.7673
 4390TIP3    H134585   3.215   1.924   2.740 -0.3054  0.4011 -2.2738
 4390TIP3    H234586   3.156   1.989   2.864  1.3286  0.1941 -1.3666
 4391TIP3   OH234587   6.345   1.773  15.876  0.1707 -0.1651 -0.1525
 4391TIP3    H134588   6.379   1.862  15.889  1.5214 -0.3692 -1.9456
 4391TIP3    H234589   6.311   1.773  15.787  1.2547 -1.7497 -0.6109
 4392TIP3   OH234590   6.492   3.568  10.996 -0.2649  0.5396 -0.1354
 4392TIP3    H134591   6.417   3.545  10.941 -0.8636 -0.2010  0.9614
 4392TIP3    H234592   6.492   3.502  11.065  2.6127 -0.7351 -1.2016
 4393TIP3   OH234593   4.788   6.673   2.191  0.0086 -0.9108  0.2017
 4393TIP3    H134594   4.784   6.728   2.269  0.0429  2.9437 -2.2791
 4393TIP3    H234595   4.706   6.691   2.144  0.2419 -2.6809 -0.9825
 4394TIP3   OH234596   5.934   6.349   3.049 -0.5760 -0.2543  0.5387
 4394TIP3    H134597   5.892   6.316   2.969  1.6322 -0.1477 -0.7452
 4394TIP3    H234598   6.018   6.304   3.053  0.6607  1.9366  1.1240
 4395TIP3   OH234599   2.037   6.150  11.505 -0.4502  0.6011  0.2602
 4395TIP3    H134600   1.945   6.154  11.531 -0.0559 -1.5778  2.3013
 4395TIP3    H234601   2.043   6.070  11.452  0.2686  0.7956  0.0395
 4396TIP3   OH234602   2.199   4.147   1.984  0.0811 -0.7445  0.4321
 4396TIP3    H134603   2.262   4.115   1.918  0.0048  0.3357 -0.1859
 4396TIP3    H234604   2.253   4.166   2.061  0.2433 -1.5624  0.5278
 4397TIP3   OH234605   5.777   2.765  16.111 -0.0849  0.3578 -0.2456
 4397TIP3    H134606   5.730   2.834  16.064  0.9510  0.7119 -0.8173
 4397TIP3    H234607   5.773   2.689  16.053 -2.9665 -0.7845  1.2497
 4398TIP3   OH234608   4.133   0.341  13.326 -0.4675  0.5466 -0.1489
 4398TIP3    H134609   4.081   0.375  13.253 -0.4169  0.5091 -0.2020
 4398TIP3    H234610   4.161   0.420  13.373 -0.4438  0.5740 -0.2084
 4399TIP3   OH234611   5.774   3.744   0.241  0.0102 -0.3022  0.1383
 4399TIP3    H134612   5.696   3.782   0.280 -0.0601  0.5902 -0.8024
 4399TIP3    H234613   5.846   3.780   0.292 -0.0478  1.3065 -0.8286
 4400TIP3   OH234614   1.036   1.936   5.221 -0.2443 -0.5224 -0.4107
 4400TIP3    H134615   1.058   1.944   5.128 -0.0478 -1.5175 -0.4586
 4400TIP3    H234616   0.960   1.877   5.223  1.2638 -2.5447  0.1961
 4401TIP3   OH234617   0.703   4.067   6.204  0.1779  0.9386  0.5487
 4401TIP3    H134618   0.768   4.085   6.272  0.5161 -0.6902  0.6982
 4401TIP3    H234619   0.687   3.973   6.210  1.2037  0.4640 -2.4912
 4402TIP3   OH234620   5.662   4.357   2.178 -0.4718 -0.0143 -0.0421
 4402TIP3    H134621   5.586   4.403   2.215  0.5683  2.6888 -0.9750
 4402TIP3    H234622   5.630   4.321   2.096 -1.4558 -1.5385  0.9587
 4403TIP3   OH234623   0.042   5.573  10.737 -0.0429  0.7088 -0.3038
 4403TIP3    H134624   0.134   5.582  10.760  0.4594 -0.5155 -1.6835
 4403TIP3    H234625  -0.005   5.583  10.820  1.5269 -1.3273  0.9196
 4404TIP3   OH234626   4.364   2.878  13.024 -0.1438 -0.5226  0.8124
 4404TIP3    H134627   4.327   2.958  13.060 -1.4197 -0.3090 -0.8662
 4404TIP3    H234628   4.308   2.808  13.057 -0.1091 -0.5320  0.8514
 4405TIP3   OH234629   0.059   0.105   5.716 -0.4559  0.4212  0.0086
 4405TIP3    H134630   0.005   0.103   5.637 -0.7177  0.8365  0.1752
 4405TIP3    H234631   0.111   0.184   5.708  0.3540 -0.1272 -0.2921
 4406TIP3   OH234632   3.252   4.465   2.953 -0.1471 -0.3467  0.1088
 4406TIP3    H134633   3.184   4.491   3.015  1.1324 -3.5312  3.1676
 4406TIP3    H234634   3.308   4.542   2.944 -1.3433  0.7480  1.5207
 4407TIP3   OH234635   1.756   1.021   3.662 -0.1251 -0.4259  0.4343
 4407TIP3    H134636   1.757   1.030   3.567 -0.7608 -1.1532  0.3472
 4407TIP3    H234637   1.820   1.085   3.693  1.4597 -1.4404 -0.5882
 4408TIP3   OH234638   5.115   1.332   4.203  0.3211 -0.0062  0.5585
 4408TIP3    H134639   5.024   1.302   4.202  0.3690 -0.1685  1.0133
 4408TIP3    H234640   5.165   1.258   4.237  0.8051 -0.4046 -0.9415
 4409TIP3   OH234641   0.038   1.663  14.892  0.2627  0.4640  0.4444
 4409TIP3    H134642   0.115   1.684  14.944  1.7298 -1.9027 -0.6314
 4409TIP3    H234643  -0.023   1.623  14.955  0.3447  1.3116  1.0788
 4410TIP3   OH234644   3.461   0.045   0.530 -0.4732 -0.1333  0.1398
 4410TIP3    H134645   3.416   0.098   0.464  0.1661  1.0674  0.6328
 4410TIP3    H234646   3.410   0.060   0.610  1.2131  1.9411  0.9136
 4411TIP3   OH234647   4.001   3.912   1.472  0.0533 -0.0506  0.7984
 4411TIP3    H134648   3.923   3.866   1.501  0.4136 -0.8792  0.4759
 4411TIP3    H234649   3.969   3.998   1.444 -0.8846 -0.7102 -0.2105
 4412TIP3   OH234650   2.918   1.090   2.261 -0.2030 -0.7716  0.0741
 4412TIP3    H134651   2.938   1.183   2.251 -0.7636 -0.4995  1.3336
 4412TIP3    H234652   2.831   1.088   2.302 -0.9016 -1.8747 -1.3560
 4413TIP3   OH234653   2.175   4.785  11.972  0.0175  0.2000  0.3279
 4413TIP3    H134654   2.138   4.832  11.897  2.2311  1.8044  0.1545
 4413TIP3    H234655   2.216   4.853  12.025 -0.6754 -1.0235  2.5603
 4414TIP3   OH234656   1.371   2.698   5.042 -0.3564 -0.5229  0.1456
 4414TIP3    H134657   1.434   2.640   4.999 -1.5016 -0.4804 -1.6685
 4414TIP3    H234658   1.367   2.776   4.987 -0.7196  0.2069  1.1752
 4415TIP3   OH234659   4.411   5.229  11.955 -0.0476  0.2300  0.1866
 4415TIP3    H134660   4.422   5.158  12.018  0.6147  1.3279  1.3392
 4415TIP3    H234661   4.499   5.261  11.939 -0.3036  0.5767 -0.6084
 4416TIP3   OH234662   5.092   2.478  11.299 -0.0634  0.5646  0.3649
 4416TIP3    H134663   5.056   2.465  11.211 -0.3395 -2.7266  0.8518
 4416TIP3    H234664   5.186   2.493  11.283 -0.2319  0.7530 -0.5254
 4417TIP3   OH234665   5.243   6.435   6.721 -0.3903  0.7075  0.4533
 4417TIP3    H134666   5.273   6.404   6.636 -0.4874  0.9656  0.3221
 4417TIP3    H234667   5.298   6.389   6.784 -0.8620 -0.1046  0.2906
 4418TIP3   OH234668   3.100   4.522  17.006  0.2363  0.5590 -0.8943
 4418TIP3    H134669   3.133   4.432  17.000  0.4230 -0.0019  4.2675
 4418TIP3    H234670   3.020   4.521  16.955  1.2303 -1.9244 -2.6192
 4419TIP3   OH234671   5.077   5.521  12.443 -0.3940 -0.4557 -0.1166
 4419TIP3    H134672   5.119   5.590  12.391 -0.1224 -0.6278 -0.1291
 4419TIP3    H234673   5.124   5.441  12.419  0.2564 -0.4209  0.9611
 4420TIP3   OH234674   3.044   3.938  13.944  0.4858  0.0966 -0.4503
 4420TIP3    H134675   3.027   3.990  13.866  1.0633  0.4425 -0.3560
 4420TIP3    H234676   3.136   3.957  13.965  0.4475 -0.2973  0.0799
 4421TIP3   OH234677   3.917   2.468   4.349 -0.1753 -0.2663  0.1661
 4421TIP3    H134678   3.836   2.416   4.342 -0.3085 -1.0753  4.8991
 4421TIP3    H234679   3.987   2.403   4.344  0.0129 -0.0450 -0.1194
 4422TIP3   OH234680   0.901   2.532  16.162  0.2012 -0.2435 -0.3011
 4422TIP3    H134681   0.887   2.578  16.079 -0.5667 -0.7554 -0.4655
 4422TIP3    H234682   0.831   2.564  16.219  0.4404 -0.2529  0.0010
 4423TIP3   OH234683   4.059   4.742  13.040 -0.5536 -0.2673 -0.5843
 4423TIP3    H134684   3.972   4.703  13.051 -0.0557 -1.7302 -1.5743
 4423TIP3    H234685   4.106   4.680  12.984  1.7822 -0.5068  1.4683
 4424TIP3   OH234686   6.535   3.224   5.374 -0.5767  0.0893 -0.0091
 4424TIP3    H134687   6.602   3.264   5.318  0.4923 -0.4274  0.8769
 4424TIP3    H234688   6.458   3.218   5.318  0.3013  0.1039 -1.2495
 4425TIP3   OH234689   1.101   3.383  13.524  0.0780 -0.2367  0.1014
 4425TIP3    H134690   1.029   3.337  13.569  0.5122  0.5567  1.6702
 4425TIP3    H234691   1.175   3.323  13.532 -0.0481 -0.4484 -0.2877
 4426TIP3   OH234692   3.822   6.306   1.462  0.1657 -0.0127 -0.4742
 4426TIP3    H134693   3.907   6.336   1.497  0.7647 -0.5240 -1.4440
 4426TIP3    H234694   3.845   6.237   1.399 -1.0495 -0.9606  0.0793
 4427TIP3   OH234695   4.845   2.524   2.973  0.4109  0.0417 -0.6882
 4427TIP3    H134696   4.757   2.560   2.969  0.8382  1.1562 -0.5812
 4427TIP3    H234697   4.873   2.519   2.882  0.5129  0.4218 -0.6801
 4428TIP3   OH234698   2.032   6.732  11.687  0.0716 -0.2514  0.1335
 4428TIP3    H134699   2.072   6.802  11.636  0.5999  0.8167  1.9420
 4428TIP3    H234700   1.939   6.755  11.692  0.4866  1.2583  2.0498
 4429TIP3   OH234701   1.634   3.989   1.925  0.1656  0.1339 -0.0827
 4429TIP3    H134702   1.675   3.996   2.012  0.7917 -1.3922 -0.2237
 4429TIP3    H234703   1.558   4.046   1.930 -0.7940 -1.1921  2.0688
 4430TIP3   OH234704   5.594   6.053   3.685 -0.0689 -0.2023  0.0956
 4430TIP3    H134705   5.550   6.138   3.684  0.9760  0.3979  1.6096
 4430TIP3    H234706   5.681   6.071   3.721 -0.2136 -2.0838  1.5454
 4431TIP3   OH234707   4.054   0.687   0.228  0.3300  0.0900 -0.3712
 4431TIP3    H134708   4.113   0.762   0.225  1.6355 -0.9021 -0.6899
 4431TIP3    H234709   4.085   0.636   0.303 -0.4175 -0.2327 -0.2746
 4432TIP3   OH234710   4.006   0.610  13.863 -0.0492  0.0928  0.1166
 4432TIP3    H134711   3.944   0.608  13.935  2.0183 -0.3528  1.9859
 4432TIP3    H234712   4.031   0.702  13.855 -1.4794  0.4208 -1.2177
 4433TIP3   OH234713   5.020   5.124   4.425  0.1872 -0.1535 -0.6817
 4433TIP3    H134714   4.999   5.032   4.414 -0.7293  0.2610 -3.2526
 4433TIP3    H234715   4.935   5.169   4.427  0.6284  0.7493 -1.2312
 4434TIP3   OH234716   3.447   4.910  13.412  0.0899  0.5888  0.3954
 4434TIP3    H134717   3.398   4.828  13.408  0.4987  0.3750 -0.5423
 4434TIP3    H234718   3.455   4.938  13.320  0.8449  1.1400  0.6178
 4435TIP3   OH234719   6.385   1.225   5.744  0.6408  0.1777 -0.1122
 4435TIP3    H134720   6.426   1.256   5.825  1.0036 -1.5662  0.4261
 4435TIP3    H234721   6.422   1.138   5.731 -0.1748  0.0290 -1.6275
 4436TIP3   OH234722   5.920   5.395  14.308  0.1185  0.1579  0.1396
 4436TIP3    H134723   5.862   5.328  14.343 -2.0853  0.7449 -2.1267
 4436TIP3    H234724   5.904   5.472  14.363  0.3914 -0.2693  0.8382
 4437TIP3   OH234725   5.597   2.041   5.211 -0.1420 -0.2272 -0.0239
 4437TIP3    H134726   5.544   2.085   5.277 -0.7391  0.5801 -1.0036
 4437TIP3    H234727   5.537   1.978   5.170 -0.2144  0.3199 -0.7822
 4438TIP3   OH234728   1.920   0.117   3.936 -0.1176  0.3736  0.0432
 4438TIP3    H134729   1.834   0.127   3.896 -1.2148  1.1510  2.4159
 4438TIP3    H234730   1.903   0.116   4.031  2.2462 -1.9484  0.5682
 4439TIP3   OH234731   4.997   5.740  11.815 -0.0939  0.3943  0.7252
 4439TIP3    H134732   5.007   5.822  11.862 -0.9322  1.0932 -0.2687
 4439TIP3    H234733   4.955   5.764  11.732 -0.0572 -0.9876  0.2680
 4440TIP3   OH234734   6.192   6.714  13.966 -0.1291  0.3279  0.2849
 4440TIP3    H134735   6.136   6.774  14.015  0.3757  1.5471 -0.5757
 4440TIP3    H234736   6.275   6.760  13.957  0.2169 -0.4192 -0.5569
 4441TIP3   OH234737   0.672   3.361   0.751  0.1276  0.1339 -0.0648
 4441TIP3    H134738   0.689   3.452   0.729  1.8515  0.0296  0.6529
 4441TIP3    H234739   0.755   3.316   0.735 -0.3471 -1.0778  0.7011
 4442TIP3   OH234740   4.114   4.875  11.385 -0.0290 -0.5406  0.2353
 4442TIP3    H134741   4.095   4.838  11.299 -0.0756  0.0918 -0.0298
 4442TIP3    H234742   4.028   4.882  11.427 -0.4372  1.9860 -0.8298
 4443TIP3   OH234743   5.305   0.646   5.150  0.2149  0.2632  0.5569
 4443TIP3    H134744   5.237   0.684   5.206 -1.3750  0.5582 -1.4900
 4443TIP3    H234745   5.291   0.552   5.155  0.9372  0.1883  1.6390
 4444TIP3   OH234746   2.511   4.089  11.048 -0.6558  0.7445 -0.2652
 4444TIP3    H134747   2.576   4.137  10.997 -1.1951  0.3843 -1.3178
 4444TIP3    H234748   2.457   4.157  11.088 -0.9261  1.0335 -1.1036
 4445TIP3   OH234749   2.416   5.197  14.708 -0.0096 -0.1002 -0.0494
 4445TIP3    H134750   2.445   5.145  14.783 -0.9592 -0.4123  0.1124
 4445TIP3    H234751   2.326   5.221  14.728 -0.5367 -0.8255 -1.4193
 4446TIP3   OH234752   0.124   4.834   6.375 -0.1251 -0.0642  0.5296
 4446TIP3    H134753   0.196   4.864   6.431  1.7484 -1.2560 -1.1042
 4446TIP3    H234754   0.089   4.914   6.337  0.2130  0.5508  1.4683
 4447TIP3   OH234755   5.139   0.187  14.641 -0.8049 -0.6911 -0.1937
 4447TIP3    H134756   5.060   0.225  14.602  0.0760  1.7800  0.2268
 4447TIP3    H234757   5.192   0.263  14.667  0.4926 -2.2330  2.0553
 4448TIP3   OH234758   5.358   0.229  10.633 -0.1489 -0.1214 -0.7021
 4448TIP3    H134759   5.410   0.309  10.623  0.6012 -0.6574 -1.2202
 4448TIP3    H234760   5.271   0.253  10.603 -0.2629  0.8403  0.3440
 4449TIP3   OH234761   2.074   0.634  10.808  0.5374 -1.2813 -0.4700
 4449TIP3    H134762   2.143   0.675  10.859  0.5853 -2.5271  0.5289
 4449TIP3    H234763   2.119   0.569  10.754  0.1909 -1.9387  0.0163
 4450TIP3   OH234764   2.479   1.037   1.231 -0.0552 -0.1325  0.0667
 4450TIP3    H134765   2.397   1.004   1.270 -0.0643  0.0356  0.1888
 4450TIP3    H234766   2.514   1.097   1.296  0.7639 -1.0890  0.5271
 4451TIP3   OH234767   4.713   0.800  16.571  0.5663  0.6156  0.5048
 4451TIP3    H134768   4.759   0.878  16.542  1.0344  0.1052 -0.1556
 4451TIP3    H234769   4.639   0.792  16.511  0.5999  0.4811  0.4790
 4452TIP3   OH234770   1.648   4.448   1.223 -0.1972  0.1846  0.5824
 4452TIP3    H134771   1.705   4.389   1.173 -0.3202  1.0668 -0.6458
 4452TIP3    H234772   1.640   4.406   1.309  0.2793 -1.2245 -0.0240
 4453TIP3   OH234773   3.828   1.818   6.093  0.2453  0.2515  0.2666
 4453TIP3    H134774   3.914   1.796   6.130 -0.1891  0.3810  1.3927
 4453TIP3    H234775   3.840   1.906   6.057  0.7230  0.0569 -0.0656
 4454TIP3   OH234776   2.478   1.161   0.353 -0.0645 -0.4058 -0.2589
 4454TIP3    H134777   2.390   1.137   0.381 -0.4643 -1.3928 -2.1566
 4454TIP3    H234778   2.537   1.106   0.405 -0.7891 -2.5762 -1.6334
 4455TIP3   OH234779   5.333   2.037  15.923  0.1644 -1.0354  0.0885
 4455TIP3    H134780   5.274   1.977  15.967 -0.3893 -0.1305  0.6046
 4455TIP3    H234781   5.287   2.060  15.842 -0.0876 -0.5317  0.3691
 4456TIP3   OH234782   2.105   2.991   6.540  0.6091  0.5362 -0.0622
 4456TIP3    H134783   2.090   2.897   6.533 -2.2293  0.9874 -2.1422
 4456TIP3    H234784   2.198   2.999   6.558  1.0947 -2.6474 -0.5100
 4457TIP3   OH234785   3.313   2.649  16.901 -0.4310  0.2191  0.3371
 4457TIP3    H134786   3.235   2.656  16.846  0.0428 -0.1126 -0.3978
 4457TIP3    H234787   3.382   2.689  16.848  0.2873 -1.2078  0.1700
 4458TIP3   OH234788   0.034   2.860  12.244  0.5261  0.7296 -0.2988
 4458TIP3    H134789   0.100   2.821  12.187 -0.4394 -0.8421 -0.4083
 4458TIP3    H234790   0.041   2.809  12.325  1.9122  2.9507  1.0750
 4459TIP3   OH234791   1.749   6.202   0.705  0.2415  0.4437  0.0925
 4459TIP3    H134792   1.745   6.246   0.619  0.8105 -1.2362 -0.8302
 4459TIP3    H234793   1.749   6.109   0.684  1.9446 -0.0147  1.8383
 4460TIP3   OH234794   5.739   2.777   1.425  0.4641 -0.3286 -0.1761
 4460TIP3    H134795   5.718   2.684   1.425  0.8386 -0.4179  0.4370
 4460TIP3    H234796   5.745   2.800   1.332 -1.6277 -0.4386 -0.3843
 4461TIP3   OH234797   6.232   3.807  14.656 -0.3311 -0.1288  0.2677
 4461TIP3    H134798   6.226   3.869  14.728 -0.7212 -1.1001  1.1092
 4461TIP3    H234799   6.293   3.740  14.688 -0.2518 -0.3976 -0.4424
 4462TIP3   OH234800   4.271   2.650   0.456  0.2284  0.1718  0.0614
 4462TIP3    H134801   4.228   2.585   0.511  1.1778 -0.0745  0.5441
 4462TIP3    H234802   4.342   2.684   0.510  2.2064 -1.2127 -1.5229
 4463TIP3   OH234803   5.814   6.276   3.616 -0.8014  0.4614 -0.4998
 4463TIP3    H134804   5.791   6.263   3.708 -0.8483  1.7845 -0.3063
 4463TIP3    H234805   5.852   6.193   3.589 -0.6792  0.0900  0.7519
 4464TIP3   OH234806   2.042   1.153  14.162  0.1343  0.2589  0.1081
 4464TIP3    H134807   2.022   1.246  14.155 -0.9628 -0.0598 -1.6694
 4464TIP3    H234808   1.960   1.109  14.138  1.4716 -1.1387 -2.3074
 4465TIP3   OH234809   5.561   4.983  16.956 -0.2119  0.2452  0.6041
 4465TIP3    H134810   5.656   4.984  16.971 -0.4092  0.8258  1.9528
 4465TIP3    H234811   5.551   5.004  16.863  0.9434  1.4732  0.7309
 4466TIP3   OH234812   6.064   2.004  13.412  0.0893 -0.1614  0.0672
 4466TIP3    H134813   5.978   2.044  13.423 -0.0016 -0.2959 -0.1515
 4466TIP3    H234814   6.121   2.053  13.472 -0.7496 -1.9758  2.5451
 4467TIP3   OH234815   3.041   0.805   4.890  0.3401 -0.2059 -0.2692
 4467TIP3    H134816   3.070   0.896   4.882 -1.2732  0.3787  0.1748
 4467TIP3    H234817   2.997   0.801   4.975 -1.2311 -0.9154 -1.0765
 4468TIP3   OH234818   6.105   2.741  11.409  0.1963  0.4956 -0.4256
 4468TIP3    H134819   6.071   2.811  11.354 -1.6616 -0.4563 -0.5381
 4468TIP3    H234820   6.092   2.661  11.359  1.3145 -0.0807  0.1449
 4469TIP3   OH234821   1.835   3.694  13.286 -0.6368 -0.4033 -0.5761
 4469TIP3    H134822   1.927   3.719  13.294 -0.7187  0.2571 -1.5774
 4469TIP3    H234823   1.836   3.619  13.226 -0.8557  0.4796 -1.7264
 4470TIP3   OH234824   2.500   0.860   2.869  0.1884 -0.4597 -0.2679
 4470TIP3    H134825   2.547   0.780   2.843  0.8380 -0.2180  0.1278
 4470TIP3    H234826   2.534   0.880   2.957  0.5236  0.6172 -0.6229
 4471TIP3   OH234827   5.444   4.116  16.503 -0.0762 -0.5197 -0.1154
 4471TIP3    H134828   5.516   4.133  16.564 -1.5875  2.1300  1.0890
 4471TIP3    H234829   5.412   4.029  16.527  1.7266 -1.1107  0.3239
 4472TIP3   OH234830   5.453   0.496   1.328 -0.0644 -0.0451 -0.4413
 4472TIP3    H134831   5.396   0.525   1.257  0.3270  0.9546 -0.3685
 4472TIP3    H234832   5.529   0.554   1.323  0.2038 -0.2925  0.4715
 4473TIP3   OH234833   6.457   1.740  13.708  0.7370 -1.1572  0.4525
 4473TIP3    H134834   6.475   1.676  13.639  0.6524 -0.9619  0.2495
 4473TIP3    H234835   6.367   1.724  13.734  0.9750 -1.6733  0.9846
 4474TIP3   OH234836   0.504   5.333   5.415 -0.0554  0.7022  0.6089
 4474TIP3    H134837   0.441   5.266   5.441  0.9808 -0.2552  0.7281
 4474TIP3    H234838   0.450   5.407   5.385 -1.2278  0.3280  1.7159
 4475TIP3   OH234839   5.781   2.417   4.772  0.2058 -0.7402 -0.1058
 4475TIP3    H134840   5.751   2.396   4.861  2.4616  1.4115  1.2647
 4475TIP3    H234841   5.865   2.371   4.764  1.3295  1.1875 -0.0239
 4476TIP3   OH234842   3.885   2.752  13.399  0.0775 -0.0460  0.1976
 4476TIP3    H134843   3.815   2.782  13.341  2.2422  0.1197 -2.5328
 4476TIP3    H234844   3.849   2.675  13.442 -1.5532 -0.4290 -1.7119
 4477TIP3   OH234845   0.365   5.219   2.923  0.1475 -0.1179 -0.0847
 4477TIP3    H134846   0.377   5.174   2.839  0.1888 -1.4694  0.6091
 4477TIP3    H234847   0.277   5.255   2.919  0.4818  0.6341 -1.0547
 4478TIP3   OH234848   4.652   6.724  14.797  0.1552 -0.1950  0.2207
 4478TIP3    H134849   4.728   6.735  14.855  1.2694  2.4008 -1.5625
 4478TIP3    H234850   4.679   6.659  14.733  0.8940  0.6675 -0.3632
 4479TIP3   OH234851   4.013   1.401  12.353  0.6259  0.0800  0.7378
 4479TIP3    H134852   3.989   1.469  12.290  1.3754  0.5458  0.9400
 4479TIP3    H234853   4.095   1.365  12.318  0.3539 -0.5798  0.7511
 4480TIP3   OH234854   0.662   4.398  16.202 -0.2094  0.3321 -0.1278
 4480TIP3    H134855   0.734   4.364  16.147  1.7495  1.6559  1.4776
 4480TIP3    H234856   0.588   4.404  16.142  1.3164  0.0007 -2.1976
 4481TIP3   OH234857   3.948   2.416  13.541 -0.0973 -0.1829 -0.0946
 4481TIP3    H134858   3.894   2.494  13.556 -0.3470 -0.5475  0.9652
 4481TIP3    H234859   3.915   2.381  13.458  0.0288  0.8327 -0.6002
 4482TIP3   OH234860   2.515   6.677  11.955 -0.1009  0.0752 -0.4677
 4482TIP3    H134861   2.464   6.665  11.876 -1.1106  2.6427 -0.2989
 4482TIP3    H234862   2.595   6.626  11.940 -0.5229  0.0041 -2.8597
 4483TIP3   OH234863   3.142   5.601  11.589 -0.1198 -0.3883 -0.7620
 4483TIP3    H134864   3.155   5.677  11.533 -0.2323  0.0015 -0.2657
 4483TIP3    H234865   3.077   5.629  11.653 -0.4036 -1.0067 -0.7708
 4484TIP3   OH234866   6.067   1.762   2.113 -0.1773 -0.0130 -0.0948
 4484TIP3    H134867   5.988   1.754   2.059 -0.7398 -0.6921  0.7868
 4484TIP3    H234868   6.078   1.856   2.126 -0.8261  0.0900 -0.2615
 4485TIP3   OH234869   6.329   4.620   2.123  0.7139  0.8736 -0.3169
 4485TIP3    H134870   6.257   4.682   2.116 -0.4492 -0.5226 -1.3666
 4485TIP3    H234871   6.368   4.618   2.036  0.4287 -0.1689 -0.4441
 4486TIP3   OH234872   2.171   2.852   1.298 -0.2547  0.5652 -0.4673
 4486TIP3    H134873   2.262   2.843   1.268  0.1198 -1.3655  0.9933
 4486TIP3    H234874   2.120   2.863   1.218  1.2942  2.2204 -1.2864
 4487TIP3   OH234875   5.170   1.078  12.701  0.0878  0.6693  0.0602
 4487TIP3    H134876   5.217   1.157  12.727 -1.2255  1.4284  0.2180
 4487TIP3    H234877   5.135   1.041  12.782 -1.0262  1.0829 -0.2045
 4488TIP3   OH234878   1.447   3.490  12.953  0.1917 -0.3578  0.0611
 4488TIP3    H134879   1.479   3.513  13.040 -4.8358 -0.2355  2.2451
 4488TIP3    H234880   1.496   3.546  12.893  2.1514  1.3973  3.0891
 4489TIP3   OH234881   0.020   3.888  12.467  0.3558  0.2086 -0.2866
 4489TIP3    H134882  -0.018   3.807  12.502  0.2329 -0.3078 -1.5527
 4489TIP3    H234883   0.035   3.869  12.374  2.8162  0.7303 -0.0720
 4490TIP3   OH234884   5.198   4.983  14.491 -0.2295  0.0286 -0.2151
 4490TIP3    H134885   5.211   4.932  14.571  0.8244  0.5583 -0.0332
 4490TIP3    H234886   5.268   4.954  14.433 -1.0378 -0.4170 -1.0034
 4491TIP3   OH234887   2.998   0.358   3.783 -0.2504 -0.2725  0.2427
 4491TIP3    H134888   2.922   0.343   3.839 -1.1633 -0.9164 -1.1146
 4491TIP3    H234889   2.961   0.387   3.699  1.1373  2.4692  0.4554
 4492TIP3   OH234890   6.291   0.356   1.056  0.0337  0.1680 -0.1225
 4492TIP3    H134891   6.326   0.291   0.995  0.7399 -0.1042  0.5417
 4492TIP3    H234892   6.256   0.304   1.128  1.8273  0.4910  1.0659
 4493TIP3   OH234893   1.724   3.501  12.800 -0.1214  0.6337 -0.0631
 4493TIP3    H134894   1.717   3.569  12.734 -1.1568 -0.2045 -0.8483
 4493TIP3    H234895   1.784   3.436  12.762 -2.4305 -0.9448 -1.2309
 4494TIP3   OH234896   0.943   3.951   2.361  0.0580 -0.4958  0.3971
 4494TIP3    H134897   1.003   3.920   2.429 -1.5922 -1.5589  1.4332
 4494TIP3    H234898   0.895   4.023   2.401 -0.1491 -0.3862 -0.0375
 4495TIP3   OH234899   5.272   2.250  13.848 -0.7606  0.0051 -0.3928
 4495TIP3    H134900   5.352   2.291  13.882  0.2944 -1.3078 -1.1839
 4495TIP3    H234901   5.290   2.156  13.853 -2.2766 -0.3173 -0.5762
 4496TIP3   OH234902   0.372   2.591  10.458  0.2546  0.0874 -0.0447
 4496TIP3    H134903   0.392   2.517  10.516 -0.8285  1.0041  1.5831
 4496TIP3    H234904   0.383   2.669  10.514 -0.9882  1.0039 -1.0153
 4497TIP3   OH234905   3.718   1.147   3.565  0.1584 -0.4545  0.1987
 4497TIP3    H134906   3.676   1.233   3.568  2.0448  0.5356 -0.1501
 4497TIP3    H234907   3.652   1.089   3.528 -0.3706  1.3649 -1.9194
 4498TIP3   OH234908   6.726   6.380   5.071 -0.1683  0.3649 -0.2270
 4498TIP3    H134909   6.749   6.289   5.055 -0.0543  0.3980 -0.2524
 4498TIP3    H234910   6.671   6.377   5.149 -0.7100  0.2056 -0.6092
 4499TIP3   OH234911   2.897   4.246   3.818  0.0552 -0.2614 -0.0786
 4499TIP3    H134912   2.944   4.166   3.841 -1.2035 -1.4564 -1.4623
 4499TIP3    H234913   2.815   4.241   3.866  0.0289  0.2863 -0.0573
 4500TIP3   OH234914   3.549   2.849  14.495  0.1955  0.0634 -0.2372
 4500TIP3    H134915   3.616   2.881  14.434  0.7178 -0.4690  0.0464
 4500TIP3    H234916   3.563   2.754  14.498  0.6227  0.1594  1.2460
 4501TIP3   OH234917   3.071   2.382   2.022 -0.5890  0.0497 -0.4698
 4501TIP3    H134918   2.992   2.422   2.059 -0.8857  1.5578 -2.5609
 4501TIP3    H234919   3.127   2.367   2.098 -2.3971  0.0060  0.9443
 4502TIP3   OH234920   0.535   3.107   3.129  0.2437 -0.2541 -0.4997
 4502TIP3    H134921   0.498   3.042   3.069 -0.3314  0.7355 -1.2435
 4502TIP3    H234922   0.603   3.151   3.078 -0.5351  0.8819 -0.5909
 4503TIP3   OH234923   6.378   2.145   2.938  0.3812 -0.1925 -0.4521
 4503TIP3    H134924   6.399   2.128   3.030  1.5596 -1.1222 -0.8689
 4503TIP3    H234925   6.391   2.061   2.895  4.2732  1.1259 -2.2357
 4504TIP3   OH234926   6.624   5.993  11.613  0.4946 -0.1025  0.1813
 4504TIP3    H134927   6.630   5.913  11.664  1.6383 -0.0489  0.1486
 4504TIP3    H234928   6.564   6.049  11.662  1.0893 -0.2909  1.1325
 4505TIP3   OH234929   6.413   3.480  12.493  0.0344 -0.1380  0.0758
 4505TIP3    H134930   6.365   3.488  12.575  1.4240  0.1276  0.9054
 4505TIP3    H234931   6.408   3.387  12.471 -0.9799 -0.0877  0.0399
 4506TIP3   OH234932   1.497   3.504   3.115 -0.1993  0.0774 -0.0085
 4506TIP3    H134933   1.445   3.544   3.185 -1.4408 -1.2055 -0.1392
 4506TIP3    H234934   1.583   3.489   3.155 -0.6002  0.2240  0.9436
 4507TIP3   OH234935   0.254   3.392   1.788  0.2066 -0.4701  0.4966
 4507TIP3    H134936   0.167   3.429   1.770  0.5667  0.4169  0.5259
 4507TIP3    H234937   0.260   3.316   1.731  0.6763  1.2991 -1.9918
 4508TIP3   OH234938   0.860   2.544  14.504  0.1685 -0.0004 -0.0053
 4508TIP3    H134939   0.949   2.540  14.470  0.1648 -1.3756  0.1083
 4508TIP3    H234940   0.846   2.460  14.546 -0.0231  1.3955  3.0188
 4509TIP3   OH234941   6.510   4.107   3.452 -0.6857  0.1988  0.0886
 4509TIP3    H134942   6.420   4.124   3.424 -0.6446  0.4699  0.1191
 4509TIP3    H234943   6.563   4.132   3.377 -0.6453 -0.1474 -0.0014
 4510TIP3   OH234944   1.509   1.328   5.917 -0.6023  0.7931  0.4827
 4510TIP3    H134945   1.491   1.420   5.937 -1.4634  0.4657  1.2979
 4510TIP3    H234946   1.486   1.281   5.998 -0.8051 -0.2022 -0.1328
 4511TIP3   OH234947   6.227   1.643   3.089 -0.3763 -0.1334  0.1434
 4511TIP3    H134948   6.200   1.561   3.047  0.3019 -0.6994  0.7809
 4511TIP3    H234949   6.242   1.619   3.181  2.0833  0.1638 -0.1069
 4512TIP3   OH234950   0.012   2.342  14.623 -0.4479 -0.1596 -0.7602
 4512TIP3    H134951   0.073   2.404  14.583  0.2235  1.0476  1.8873
 4512TIP3    H234952   0.062   2.261  14.630 -0.0624  0.0477 -1.0559
 4513TIP3   OH234953   2.392   0.080   3.874  0.0830 -0.6733  0.4642
 4513TIP3    H134954   2.365   0.082   3.966 -2.4365 -0.6893 -0.1869
 4513TIP3    H234955   2.380   0.170   3.844  2.0324 -0.3936  0.3871
 4514TIP3   OH234956   1.596   6.508  15.880 -0.1068  0.2668  0.2789
 4514TIP3    H134957   1.691   6.513  15.889 -0.3074  3.2159  1.7679
 4514TIP3    H234958   1.562   6.568  15.946 -2.9990  0.0400 -0.8631
 4515TIP3   OH234959   1.852   1.389   2.556  0.4184 -0.3257 -0.1132
 4515TIP3    H134960   1.764   1.406   2.588 -0.3575 -1.8334 -1.3390
 4515TIP3    H234961   1.879   1.309   2.601  0.8117 -0.3630 -0.4118
 4516TIP3   OH234962   1.878   4.003   5.204  0.0865 -0.6672 -0.1272
 4516TIP3    H134963   1.843   3.953   5.130 -0.0506 -0.4830 -0.1867
 4516TIP3    H234964   1.807   4.061   5.230  0.6597  0.4192 -0.8899
 4517TIP3   OH234965   4.700   2.481   2.599 -0.3838  0.3998 -0.1357
 4517TIP3    H134966   4.784   2.523   2.620  0.0917  0.0118 -1.2136
 4517TIP3    H234967   4.671   2.445   2.682  2.1665 -2.3820 -0.2765
 4518TIP3   OH234968   2.927   3.522  16.393 -0.2422 -0.0691 -0.4341
 4518TIP3    H134969   2.983   3.574  16.451 -0.3250 -0.4948  0.0323
 4518TIP3    H234970   2.972   3.524  16.308 -0.6189  1.3669 -0.6190
 4519TIP3   OH234971   0.294   3.788  13.500 -0.2544  0.0953 -0.0338
 4519TIP3    H134972   0.287   3.693  13.498  0.5279  0.0408 -1.2323
 4519TIP3    H234973   0.354   3.806  13.573 -0.0573 -0.3502 -0.0839
 4520TIP3   OH234974   6.232   1.627   3.605 -0.7860  0.2135 -0.2405
 4520TIP3    H134975   6.308   1.667   3.647 -0.1279 -0.8102 -0.4203
 4520TIP3    H234976   6.174   1.605   3.678 -0.8117  0.7951 -0.0841
 4521TIP3   OH234977   3.716   4.474  14.834  0.5630 -0.0472  0.0074
 4521TIP3    H134978   3.742   4.542  14.772 -1.0567 -1.0583 -1.8657
 4521TIP3    H234979   3.731   4.392  14.788  0.3805 -0.8809  1.3827
 4522TIP3   OH234980   6.215   3.072  16.570 -0.4453 -0.0060  0.0633
 4522TIP3    H134981   6.241   3.003  16.631 -0.7581 -0.4473 -0.2918
 4522TIP3    H234982   6.247   3.042  16.485  2.2037  1.7578  0.3140
 4523TIP3   OH234983   2.490   6.037   3.837  0.2049 -0.0844 -0.3859
 4523TIP3    H134984   2.476   6.132   3.837 -1.1751 -0.2506  0.6877
 4523TIP3    H234985   2.567   6.024   3.783  0.9356  1.7355  0.1476
 4524TIP3   OH234986   4.650   1.825   5.164  0.2249 -0.1464  0.1648
 4524TIP3    H134987   4.638   1.734   5.191  1.5445  0.4994  3.2899
 4524TIP3    H234988   4.698   1.818   5.081  0.5761 -2.3099  0.4770
 4525TIP3   OH234989   4.770   1.645  16.739 -0.1716  0.3790  0.4259
 4525TIP3    H134990   4.776   1.594  16.658  0.3740  1.6495 -0.3588
 4525TIP3    H234991   4.764   1.736  16.710 -2.4025  0.7148  1.7568
 4526TIP3   OH234992   1.796   1.746  14.913  0.4483 -0.0360  0.2640
 4526TIP3    H134993   1.744   1.711  14.985 -0.5826  1.2544  0.2002
 4526TIP3    H234994   1.779   1.688  14.839  1.7351 -1.5329  1.0968
 4527TIP3   OH234995   2.959   5.726   4.363 -0.0419  0.0106  0.0438
 4527TIP3    H134996   2.884   5.682   4.323 -0.6434  0.2845  0.8612
 4527TIP3    H234997   2.949   5.713   4.457  0.3270  1.0075  0.2390
 4528TIP3   OH234998   4.365   2.259   4.298 -0.5303  0.2728  0.1733
 4528TIP3    H134999   4.434   2.311   4.338 -0.3380 -0.1761  0.4326
 4528TIP3    H235000   4.388   2.255   4.205  0.1976 -0.4934  0.3773
 4529TIP3   OH235001   5.051   5.734   1.183  0.2955  0.0935 -0.4393
 4529TIP3    H135002   5.035   5.755   1.275 -0.8820 -0.6321 -0.4560
 4529TIP3    H235003   5.139   5.768   1.165  0.5802  0.1592  0.9729
 4530TIP3   OH235004   5.611   5.376   6.255 -0.0515  0.1185 -0.6779
 4530TIP3    H135005   5.703   5.353   6.269 -0.2628 -1.3532 -1.5222
 4530TIP3    H235006   5.588   5.429   6.332  0.2007 -3.4565  2.1619
 4531TIP3   OH235007   6.089   4.713  11.336 -0.2074  0.1804 -0.0868
 4531TIP3    H135008   6.063   4.676  11.252  0.6341 -1.7267  0.4384
 4531TIP3    H235009   6.007   4.741  11.377 -1.1918 -2.7782  0.2180
 4532TIP3   OH235010   6.765   0.074  11.419 -0.2201 -0.5998  0.2080
 4532TIP3    H135011   6.722   0.048  11.338 -0.6907  1.0519 -0.1101
 4532TIP3    H235012   6.695   0.073  11.485 -0.0546 -0.9624  0.3823
 4533TIP3   OH235013   4.762   2.903  16.855 -0.5927 -0.4966 -0.6965
 4533TIP3    H135014   4.826   2.898  16.926  0.6431  0.9162 -1.6296
 4533TIP3    H235015   4.792   2.839  16.791 -0.5790 -0.4192 -0.7694
 4534TIP3   OH235016   1.577   1.698  12.609 -0.3522 -0.0486  0.0064
 4534TIP3    H135017   1.566   1.606  12.585 -0.2928  0.2542 -1.2594
 4534TIP3    H235018   1.488   1.734  12.611 -0.4293 -0.2581  1.1128
 4535TIP3   OH235019   4.700   1.556   5.362 -0.2251  0.5336  0.3857
 4535TIP3    H135020   4.630   1.512   5.410 -0.1575  0.6569  0.5973
 4535TIP3    H235021   4.725   1.493   5.294  0.1817  0.0485  0.9698
 4536TIP3   OH235022   3.571   4.728   5.978  1.1421 -0.3429  0.1493
 4536TIP3    H135023   3.562   4.807   6.031  1.4307 -1.0803  1.3201
 4536TIP3    H235024   3.666   4.718   5.966  1.1035 -0.5140 -0.0102
 4537TIP3   OH235025   1.539   2.335  11.565 -0.2124  0.0509 -0.5628
 4537TIP3    H135026   1.485   2.380  11.500 -0.2039 -0.8136 -1.1870
 4537TIP3    H235027   1.517   2.243  11.554  1.0839 -0.2784 -0.5398
 4538TIP3   OH235028   2.651   6.194   1.070 -0.0084 -0.3268 -0.1595
 4538TIP3    H135029   2.716   6.184   1.001 -0.2369  0.6479 -0.5313
 4538TIP3    H235030   2.572   6.153   1.035  0.0615 -0.4297 -0.1973
 4539TIP3   OH235031   0.456   4.341  12.898 -0.3412 -0.4016 -0.4745
 4539TIP3    H135032   0.509   4.316  12.974  0.1712 -0.5975 -0.8900
 4539TIP3    H235033   0.367   4.347  12.932 -0.5879 -3.1850 -0.3932
 4540TIP3   OH235034   4.070   0.935  12.902  0.5814  0.5029 -0.1614
 4540TIP3    H135035   4.062   0.934  12.807 -2.8349 -0.1038  0.0257
 4540TIP3    H235036   4.004   0.874  12.933  0.4295  1.9353  2.6673
 4541TIP3   OH235037   2.751   1.009  13.940  0.1690  0.1215  0.2847
 4541TIP3    H135038   2.795   0.994  14.023 -0.3361 -2.7202  0.1589
 4541TIP3    H235039   2.805   0.964  13.875 -1.7431 -1.7066 -0.1619
 4542TIP3   OH235040   6.320   3.710  13.826 -0.2266 -0.3201  0.5068
 4542TIP3    H135041   6.395   3.688  13.882  1.0857 -0.0169 -1.0486
 4542TIP3    H235042   6.358   3.761  13.754 -1.7582 -1.0887 -0.9137
 4543TIP3   OH235043   3.873   6.197   4.107 -0.5716 -0.1783  0.0276
 4543TIP3    H135044   3.886   6.102   4.110  0.0662 -0.2668 -2.9767
 4543TIP3    H235045   3.783   6.208   4.075 -0.3278  0.2227 -0.5259
 4544TIP3   OH235046   4.876   0.903   2.444  0.4557  0.2616 -0.2769
 4544TIP3    H135047   4.934   0.909   2.368 -0.2546 -2.2037 -1.1015
 4544TIP3    H235048   4.908   0.828   2.493  1.0408  1.9319  2.0901
 4545TIP3   OH235049   2.357   5.708   3.541 -0.0962 -0.4306  0.0323
 4545TIP3    H135050   2.453   5.709   3.542 -0.0783 -0.3162 -1.0425
 4545TIP3    H235051   2.332   5.739   3.628  0.8395 -0.8371  0.4642
 4546TIP3   OH235052   3.540   5.236  12.972 -0.3458  1.0907  0.0369
 4546TIP3    H135053   3.511   5.255  12.883 -0.5645  0.4626 -0.0315
 4546TIP3    H235054   3.635   5.232  12.965 -0.4241 -0.7282 -0.5573
 4547TIP3   OH235055   0.498   2.072  11.683 -0.4996 -0.8546 -0.3579
 4547TIP3    H135056   0.471   2.140  11.622 -0.0527  0.5064  0.9211
 4547TIP3    H235057   0.592   2.063  11.670 -0.5714 -1.2978 -0.5863
 4548TIP3   OH235058   1.895   4.631  14.582  0.0408 -0.5644  0.3445
 4548TIP3    H135059   1.973   4.591  14.622 -0.9781 -1.8917  1.0885
 4548TIP3    H235060   1.930   4.700  14.526  1.6516  0.1165  2.0791
 4549TIP3   OH235061   0.333   2.996  14.636  0.1677 -0.1766 -1.0068
 4549TIP3    H135062   0.339   2.900  14.629 -0.9848 -0.3185 -0.2850
 4549TIP3    H235063   0.287   3.023  14.556  0.6259 -0.2071 -1.2816
 4550TIP3   OH235064   5.203   2.016  17.067  0.1973  0.2079 -0.0070
 4550TIP3    H135065   5.230   2.029  16.975  0.7946  0.6187  0.2154
 4550TIP3    H235066   5.110   1.998  17.062  0.4879 -1.2654 -0.8259
 4551TIP3   OH235067   3.557   4.055  13.984  0.0090  0.5725  0.3538
 4551TIP3    H135068   3.523   4.010  14.062 -0.5101  0.1376 -0.1199
 4551TIP3    H235069   3.625   3.997  13.950  2.4092  2.1184  2.1598
 4552TIP3   OH235070   6.655   4.746   0.314 -0.3182  0.4936  0.8134
 4552TIP3    H135071   6.638   4.823   0.259  1.0984 -1.0739 -2.0696
 4552TIP3    H235072   6.749   4.729   0.302 -0.5443 -1.4957  1.5712
 4553TIP3   OH235073   3.524   1.313  14.190 -0.3460 -0.2660 -0.2575
 4553TIP3    H135074   3.547   1.221  14.178 -0.2790 -0.7135  2.5819
 4553TIP3    H235075   3.477   1.316  14.274  0.6012  2.3928  0.2984
 4554TIP3   OH235076   3.120   5.317  16.177 -0.1212 -0.1953  0.4911
 4554TIP3    H135077   3.211   5.300  16.151 -0.8020 -1.8950 -1.0113
 4554TIP3    H235078   3.117   5.295  16.270  1.1659  0.6595  0.7577
 4555TIP3   OH235079   1.060   6.341   0.483 -0.1698  0.0216  0.3035
 4555TIP3    H135080   1.005   6.418   0.498 -1.2313 -0.8150  0.7540
 4555TIP3    H235081   1.052   6.325   0.389  0.2680  0.6011  0.1570
 4556TIP3   OH235082   2.384   2.076  14.688  0.0758 -0.2805  0.8812
 4556TIP3    H135083   2.313   2.109  14.742 -0.4883 -0.2561  0.1360
 4556TIP3    H235084   2.353   1.991  14.656 -0.6881  0.7973 -1.4490
 4557TIP3   OH235085   4.759   6.304  15.152 -0.2166 -0.5208  0.1624
 4557TIP3    H135086   4.710   6.295  15.234  0.7635 -2.3159  0.6091
 4557TIP3    H235087   4.752   6.397  15.130 -1.0071 -0.1086  1.9625
 4558TIP3   OH235088   0.135   5.977  14.395 -0.2465 -0.1466  0.2382
 4558TIP3    H135089   0.073   6.049  14.385 -0.9226 -0.5445  1.3711
 4558TIP3    H235090   0.122   5.924  14.316 -1.7475 -0.4923  0.6744
 4559TIP3   OH235091   5.505   1.788   1.813  0.4713  0.3808  0.0652
 4559TIP3    H135092   5.491   1.694   1.826  2.0011 -0.0271 -1.0009
 4559TIP3    H235093   5.523   1.822   1.901  0.6899 -0.4606  0.3540
 4560TIP3   OH235094   4.122   4.404  11.418 -0.7916 -0.1982  0.1828
 4560TIP3    H135095   4.200   4.422  11.470 -0.0525  1.0582 -1.3041
 4560TIP3    H235096   4.054   4.461  11.456 -0.7860 -0.6727  0.9344
 4561TIP3   OH235097   2.803   0.702   1.322 -0.3073 -0.0283 -0.1613
 4561TIP3    H135098   2.896   0.720   1.313 -0.0696 -1.1394 -0.0490
 4561TIP3    H235099   2.799   0.616   1.363 -1.3834 -0.1387 -0.4652
 4562TIP3   OH235100   4.019   6.313   0.446 -0.4847  0.5137 -0.9339
 4562TIP3    H135101   3.961   6.335   0.518  2.1394 -1.1957  1.9486
 4562TIP3    H235102   4.079   6.388   0.440  0.7054 -0.2952  0.3170
 4563TIP3   OH235103   1.513   5.452  14.768  0.5178 -0.6157  0.2040
 4563TIP3    H135104   1.477   5.522  14.823 -1.1199 -0.6524 -0.7333
 4563TIP3    H235105   1.481   5.372  14.809  1.9356 -0.8230  0.9609
 4564TIP3   OH235106   3.440   5.312  12.746 -0.0329 -0.7088  0.1209
 4564TIP3    H135107   3.426   5.218  12.740 -1.8503 -0.4823  0.2293
 4564TIP3    H235108   3.466   5.338  12.657  0.6711 -1.3211  0.1371
 4565TIP3   OH235109   6.059   3.805  13.703  0.1124 -0.0140 -0.0456
 4565TIP3    H135110   6.076   3.875  13.766 -0.2613  0.5388 -0.5475
 4565TIP3    H235111   6.080   3.724  13.751 -0.6188  0.3587  0.9499
 4566TIP3   OH235112   3.979   3.626   2.580 -0.5501  0.2671 -0.0386
 4566TIP3    H135113   4.062   3.673   2.580 -0.3672 -0.0493 -0.6159
 4566TIP3    H235114   3.917   3.687   2.623 -0.2913  0.9838 -0.6564
 4567TIP3   OH235115   0.007   5.066   2.473 -0.2122  0.6359  0.5656
 4567TIP3    H135116  -0.019   5.020   2.553  0.1162 -2.1201 -0.7860
 4567TIP3    H235117   0.102   5.072   2.478 -0.0598 -0.7055 -0.1162
 4568TIP3   OH235118   0.619   5.425   4.420 -0.2458 -0.5429 -0.1858
 4568TIP3    H135119   0.698   5.386   4.383 -0.4118 -1.0362 -0.0274
 4568TIP3    H235120   0.631   5.519   4.410  1.3104 -0.4846  1.7154
 4569TIP3   OH235121   6.415   4.479   6.537 -0.0338  0.1715  0.2831
 4569TIP3    H135122   6.485   4.431   6.492 -1.2881 -0.2943 -1.2831
 4569TIP3    H235123   6.387   4.422   6.607 -0.6701 -0.8944 -0.7973
 4570TIP3   OH235124   2.314   0.612   2.860 -0.1129  0.2243 -0.4367
 4570TIP3    H135125   2.236   0.578   2.903 -0.4069 -0.1977 -1.2964
 4570TIP3    H235126   2.323   0.701   2.894 -0.1023 -0.2351  0.8008
 4571TIP3   OH235127   2.173   1.045   2.706  0.1412 -0.5567 -0.3741
 4571TIP3    H135128   2.191   1.109   2.638  0.2672 -0.6342 -0.4130
 4571TIP3    H235129   2.221   0.966   2.679 -0.9604 -1.0540 -0.9476
 4572TIP3   OH235130   0.108   4.880  15.617 -0.1968  0.8994  0.4557
 4572TIP3    H135131   0.144   4.909  15.702 -0.4358  0.2439  0.7904
 4572TIP3    H235132   0.021   4.918  15.613 -1.1054 -0.8959  1.5720
 4573TIP3   OH235133   4.621   0.028  15.409 -0.1101 -0.0750  0.1544
 4573TIP3    H135134   4.648   0.120  15.408  1.4306 -0.4767 -2.1028
 4573TIP3    H235135   4.537   0.027  15.364 -0.0772  0.1987  0.0843
 4574TIP3   OH235136   2.157   1.719   1.547  0.0042  0.1873  0.2497
 4574TIP3    H135137   2.228   1.765   1.594 -0.8926  0.5443  1.2963
 4574TIP3    H235138   2.096   1.694   1.616 -0.3156 -1.1812 -0.5147
 4575TIP3   OH235139   4.466   4.956  14.331 -0.6100  0.9625 -0.4840
 4575TIP3    H135140   4.549   4.931  14.372 -1.5008 -1.5695 -0.0670
 4575TIP3    H235141   4.471   4.920  14.243 -1.4639  0.3669 -0.2924
 4576TIP3   OH235142   5.931   3.280   5.808 -0.4772 -0.3304 -0.3122
 4576TIP3    H135143   6.012   3.330   5.817 -0.7505  0.3118 -1.2735
 4576TIP3    H235144   5.932   3.220   5.883  0.0486  0.8329  0.6516
 4577TIP3   OH235145   4.147   5.670   2.405 -0.2233  0.2581 -0.0307
 4577TIP3    H135146   4.145   5.591   2.459 -0.6668 -0.0361 -0.4683
 4577TIP3    H235147   4.196   5.733   2.457  0.3141 -0.3679  0.2338
 4578TIP3   OH235148   2.319   4.876   3.367 -0.4929  0.0086 -0.3312
 4578TIP3    H135149   2.228   4.868   3.396 -0.7655 -0.3374 -1.2619
 4578TIP3    H235150   2.319   4.955   3.312 -0.4014 -0.4272 -0.9619
 4579TIP3   OH235151   5.970   2.015   6.362 -0.4878  0.5620 -0.4517
 4579TIP3    H135152   6.057   1.983   6.385 -1.1193 -0.2681  0.8471
 4579TIP3    H235153   5.986   2.084   6.297  1.0324 -0.8135 -1.6059
 4580TIP3   OH235154   3.910   3.340   2.523  0.1725 -0.3231 -0.4350
 4580TIP3    H135155   3.940   3.360   2.435  1.9007 -1.1366 -0.0725
 4580TIP3    H235156   3.943   3.412   2.577 -1.8783  0.7950 -0.5812
 4581TIP3   OH235157   3.941   3.173   2.990 -0.2183  0.0633 -0.3292
 4581TIP3    H135158   3.983   3.105   3.043  0.9838  0.7108 -0.4064
 4581TIP3    H235159   3.932   3.247   3.050 -2.6743 -0.5149  0.1221
 4582TIP3   OH235160   3.787   0.305  15.487  0.2309 -0.0695 -0.2652
 4582TIP3    H135161   3.708   0.271  15.444  0.2711 -1.7712  0.8959
 4582TIP3    H235162   3.789   0.260  15.572  0.6056  2.5125  1.2061
 4583TIP3   OH235163   0.888   5.461  15.696 -0.1392 -0.0983 -0.4470
 4583TIP3    H135164   0.837   5.503  15.627  2.6766  1.3622 -1.8290
 4583TIP3    H235165   0.903   5.530  15.760  0.2764 -0.4213 -0.1871
 4584TIP3   OH235166   2.389   3.705   4.847 -0.3995  0.4865 -0.1994
 4584TIP3    H135167   2.438   3.712   4.929 -0.7411 -0.0408  0.0580
 4584TIP3    H235168   2.444   3.749   4.782 -0.1176  0.8994  0.3059
 4585TIP3   OH235169   4.515   4.184   1.250 -0.5530 -0.1779  0.4670
 4585TIP3    H135170   4.522   4.280   1.245 -0.9124 -0.0425  2.1322
 4585TIP3    H235171   4.436   4.168   1.301 -0.0869 -1.3589  0.8558
 4586TIP3   OH235172   6.399   1.237  16.179  0.1725 -0.0586 -0.2869
 4586TIP3    H135173   6.483   1.201  16.206 -0.0515 -1.3159 -1.1672
 4586TIP3    H235174   6.404   1.241  16.083 -0.3719  0.8818 -0.2905
 4587TIP3   OH235175   0.279   0.851  16.931 -0.0548  0.3795  0.1161
 4587TIP3    H135176   0.252   0.763  16.903  0.2840 -0.2039  1.4927
 4587TIP3    H235177   0.287   0.901  16.850 -2.4072 -0.2284 -0.5701
 4588TIP3   OH235178   3.285   1.861   0.078  0.0280  0.3943 -0.4759
 4588TIP3    H135179   3.216   1.828   0.020 -1.9142  0.8053  1.4737
 4588TIP3    H235180   3.279   1.956   0.070 -0.2976  0.4571  0.3965
 4589TIP3   OH235181   5.170   2.603  16.699  0.3865 -0.1901 -0.9576
 4589TIP3    H135182   5.183   2.559  16.783  1.4532  0.1470 -0.9285
 4589TIP3    H235183   5.253   2.648  16.682 -0.9547  2.8153 -0.3874
 4590TIP3   OH235184   2.079   2.531   4.885 -0.2794  0.1211 -0.2426
 4590TIP3    H135185   2.039   2.481   4.957 -2.0467 -1.0508 -1.9310
 4590TIP3    H235186   2.080   2.621   4.917 -3.0951  0.0027  0.5110
 4591TIP3   OH235187   2.967   4.074   4.503  0.5301  0.1677  0.3940
 4591TIP3    H135188   3.057   4.042   4.507  1.2720  2.3029  2.0644
 4591TIP3    H235189   2.937   4.073   4.593 -1.6674 -1.7846 -0.2685
 4592TIP3   OH235190   6.112   5.225   0.112  0.0390  0.5341  0.4434
 4592TIP3    H135191   6.101   5.296   0.176  0.3910  0.5917  0.4390
 4592TIP3    H235192   6.051   5.248   0.042 -0.2307  0.5569  0.6794
 4593TIP3   OH235193   5.962   5.392   1.212  0.6036  0.5931 -0.1055
 4593TIP3    H135194   5.926   5.480   1.212 -1.1443 -0.0322  1.7730
 4593TIP3    H235195   5.902   5.342   1.156  0.0298  0.0937  0.9238
 4594TIP3   OH235196   3.695   1.211  16.982  0.1829 -0.1172  0.6788
 4594TIP3    H135197   3.739   1.276  17.038 -0.1498 -0.8517  1.8109
 4594TIP3    H235198   3.604   1.212  17.011  0.2529 -1.3653  0.9587
 4595TIP3   OH235199   1.195   2.214  15.389  0.2188 -0.1376  0.0643
 4595TIP3    H135200   1.106   2.218  15.355 -0.0113 -0.8071  0.5525
 4595TIP3    H235201   1.208   2.298  15.432  0.6335  0.8602 -1.8945
 4596TIP3   OH235202   2.965   4.437   4.629  0.3769  0.0161 -0.3670
 4596TIP3    H135203   2.937   4.390   4.707  0.4439 -0.7138 -0.7717
 4596TIP3    H235204   3.060   4.433   4.630  0.4803  1.6688  0.5032
 4597TIP3   OH235205   5.302   4.131   4.519  0.0222  0.2201  0.4395
 4597TIP3    H135206   5.323   4.037   4.525 -1.0882 -0.0015  1.0157
 4597TIP3    H235207   5.381   4.170   4.482  1.1743 -0.6809  1.8493
 4598TIP3   OH235208   4.750   6.618   5.536 -0.0208  0.7602  0.6491
 4598TIP3    H135209   4.680   6.570   5.492 -1.2164  2.9547  0.0298
 4598TIP3    H235210   4.772   6.564   5.612 -2.1508 -0.1655  0.6715
 4599TIP3   OH235211   3.654   5.703  17.052 -0.1785  0.3739 -0.7439
 4599TIP3    H135212   3.613   5.673  16.970 -3.2638 -0.2934  0.8800
 4599TIP3    H235213   3.595   5.771  17.084  0.7094  0.3021  1.1386
 4600TIP3   OH235214   0.799   5.623   3.004 -0.1318  0.1706  0.3590
 4600TIP3    H135215   0.728   5.578   2.959 -1.4618  0.5936  1.9133
 4600TIP3    H235216   0.829   5.560   3.070 -1.0892  1.0066  1.6436
 4601TIP3   OH235217   0.851   5.251   4.778 -0.1787 -0.1393 -0.1074
 4601TIP3    H135218   0.770   5.300   4.762 -0.0867 -1.0236 -4.7374
 4601TIP3    H235219   0.823   5.160   4.781  0.5097 -0.3719 -0.6240
 4602TIP3   OH235220   2.389   2.147   3.426 -0.2490  0.0725  0.0710
 4602TIP3    H135221   2.346   2.073   3.383  0.3373 -0.0760 -0.2758
 4602TIP3    H235222   2.366   2.138   3.518 -0.2493 -0.5004  0.0221
 4603TIP3   OH235223   3.628   3.111  15.878  0.2836  0.2403  0.1088
 4603TIP3    H135224   3.673   3.050  15.937 -0.4128  1.7072  2.2931
 4603TIP3    H235225   3.536   3.107  15.906  0.3572  2.9123  0.9876
 4604TIP3   OH235226   4.706   0.741  14.227 -0.9171 -0.5152  0.2063
 4604TIP3    H135227   4.709   0.794  14.306 -0.6079  1.8149 -1.2438
 4604TIP3    H235228   4.798   0.733  14.201 -0.9068 -2.3258  0.6984
 4605TIP3   OH235229   5.933   2.956  12.423 -0.5904 -0.4423  0.3635
 4605TIP3    H135230   5.901   2.990  12.340  0.6150  0.5103  0.2621
 4605TIP3    H235231   5.953   3.034  12.475  0.7368 -0.9869  0.7206
 4606TIP3   OH235232   2.268   2.241  13.263 -0.2010 -0.2320  0.3888
 4606TIP3    H135233   2.242   2.206  13.348  1.2736 -0.2603  0.8554
 4606TIP3    H235234   2.245   2.334  13.266 -2.7107 -0.7622 -0.2736
 4607TIP3   OH235235   0.334   3.480  13.085  0.1210  0.3841  0.4511
 4607TIP3    H135236   0.302   3.426  13.157 -0.4620 -1.5483 -1.1612
 4607TIP3    H235237   0.256   3.528  13.056  0.3759  1.2323  1.1224
 4608TIP3   OH235238   0.421   5.031  13.078 -0.8876  0.4146  0.9245
 4608TIP3    H135239   0.413   4.955  13.021 -2.9275  1.2282  0.0341
 4608TIP3    H235240   0.514   5.033  13.102 -0.0364 -0.2693 -1.9394
 4609TIP3   OH235241   2.666   4.010   2.933  0.4611 -0.1396  0.6362
 4609TIP3    H135242   2.698   3.928   2.971 -1.2106 -2.0475 -1.7437
 4609TIP3    H235243   2.579   3.989   2.900  0.2452  2.4175 -0.6790
 4610TIP3   OH235244   1.704   6.473   1.879 -0.0119  0.1445  0.1546
 4610TIP3    H135245   1.685   6.401   1.938 -0.1955  0.2373  0.2102
 4610TIP3    H235246   1.624   6.526   1.879  0.1977  0.4664  0.2865
 4611TIP3   OH235247   4.108   4.853   1.565 -0.4263 -0.2337 -0.1798
 4611TIP3    H135248   4.187   4.858   1.619 -1.0871 -2.3946  1.0961
 4611TIP3    H235249   4.140   4.862   1.476  0.8419  2.1820  0.3994
 4612TIP3   OH235250   5.103   2.933  14.401  0.0793  0.2855 -0.3611
 4612TIP3    H135251   5.054   2.945  14.320 -1.2870  0.8124  0.5134
 4612TIP3    H235252   5.037   2.932  14.470  1.0532 -1.6177  0.6578
 4613TIP3   OH235253   3.712   6.711  14.672  0.5105  0.2144 -0.0681
 4613TIP3    H135254   3.794   6.662  14.663 -0.2224 -1.2107  0.7378
 4613TIP3    H235255   3.740   6.801  14.689  1.9260 -0.4785  1.4979
 4614TIP3   OH235256   0.864   5.554  16.289 -0.1379 -0.0318  0.1036
 4614TIP3    H135257   0.886   5.549  16.196 -0.0240  0.6713  0.0839
 4614TIP3    H235258   0.772   5.530  16.293 -0.3973  0.8380 -0.3188
 4615TIP3   OH235259   1.299   3.166   3.002 -0.1476  0.1706 -0.6643
 4615TIP3    H135260   1.314   3.072   2.993  1.1385  0.2876 -0.0339
 4615TIP3    H235261   1.387   3.203   3.010 -0.6868  1.0800  2.3531
 4616TIP3   OH235262   0.876   4.517  12.786  0.0821  0.1469  0.9403
 4616TIP3    H135263   0.908   4.554  12.704 -1.3882  1.6866  0.9937
 4616TIP3    H235264   0.828   4.589  12.828 -1.7640 -1.4359  1.7252
 4617TIP3   OH235265   6.183   5.180   2.801  0.6815  0.1915  0.2465
 4617TIP3    H135266   6.246   5.216   2.864  0.0187 -0.6442  1.4261
 4617TIP3    H235267   6.165   5.253   2.741 -0.6963  1.9323  2.5919
 4618TIP3   OH235268   6.256   1.949  16.530 -0.5033  0.4065  0.0969
 4618TIP3    H135269   6.335   1.895  16.526 -1.4538 -1.1117  1.0415
 4618TIP3    H235270   6.290   2.039  16.531  1.4042 -0.2054  3.0722
 4619TIP3   OH235271   3.309   1.214   6.197 -0.4098  0.5273 -0.4421
 4619TIP3    H135272   3.239   1.181   6.253  0.2353  0.7029  0.5009
 4619TIP3    H235273   3.265   1.269   6.132 -1.0417  1.7866  0.9926
 4620TIP3   OH235274   2.724   5.144   1.090 -0.0464 -0.5880  0.2087
 4620TIP3    H135275   2.756   5.129   1.001  1.5234 -0.7621  0.7888
 4620TIP3    H235276   2.649   5.203   1.078  0.6419  0.0621 -1.1573
 4621TIP3   OH235277   3.249   5.177   1.527  0.4127  0.0661 -0.0972
 4621TIP3    H135278   3.172   5.131   1.495  1.3408 -1.4603 -0.2916
 4621TIP3    H235279   3.215   5.244   1.586 -1.0974  0.2071 -1.0923
 4622TIP3   OH235280   1.111   6.640   2.408 -0.6340  0.5886 -0.2382
 4622TIP3    H135281   1.039   6.668   2.353  0.4062  0.2786 -1.8093
 4622TIP3    H235282   1.105   6.544   2.409  1.3528  0.3610 -2.7252
 4623TIP3   OH235283   6.376   0.081   4.232 -0.6712 -0.2739 -0.3848
 4623TIP3    H135284   6.404   0.163   4.273  0.0005 -0.3483 -0.6873
 4623TIP3    H235285   6.415   0.083   4.145  1.3096 -1.9616  0.3884
 4624TIP3   OH235286   6.758   0.093  13.584 -0.2713  0.7923 -0.2307
 4624TIP3    H135287   6.805   0.123  13.506  1.1186 -1.1134 -0.1810
 4624TIP3    H235288   6.672   0.135  13.577 -0.1897  0.6766 -2.8134
 4625TIP3   OH235289   3.212   4.011  16.355 -0.1519  0.6160 -0.6003
 4625TIP3    H135290   3.154   4.003  16.431 -0.3006  1.2893 -0.6375
 4625TIP3    H235291   3.178   4.086  16.306 -0.3545 -0.1207 -1.6007
 4626TIP3   OH235292   2.917   1.796   3.943 -0.0207 -0.4863 -0.3195
 4626TIP3    H135293   2.824   1.780   3.959  0.1581  0.2259  1.6250
 4626TIP3    H235294   2.918   1.858   3.870 -1.0654 -0.5201 -0.3829
 4627TIP3   OH235295   2.573   1.344  14.988 -0.2815 -0.5906  0.2944
 4627TIP3    H135296   2.553   1.337  15.081  0.0388 -0.7442  0.3538
 4627TIP3    H235297   2.645   1.407  14.984 -0.8175  0.0241  0.0774
 4628TIP3   OH235298   3.031   4.431  11.882 -0.6557 -0.5551  0.2369
 4628TIP3    H135299   3.080   4.427  11.800  1.9939 -0.3813  1.6808
 4628TIP3    H235300   3.004   4.341  11.898 -0.2299 -0.7870 -0.3022
 4629TIP3   OH235301   6.674   5.595  10.967 -0.1029  0.0729 -0.3594
 4629TIP3    H135302   6.676   5.623  11.058 -0.9331 -0.9380 -0.0164
 4629TIP3    H235303   6.593   5.633  10.931  0.2147  0.4605 -0.6824
 4630TIP3   OH235304   2.578   2.435   2.360  0.1920  0.2850  0.1224
 4630TIP3    H135305   2.597   2.350   2.399  0.6745  0.3452  0.0355
 4630TIP3    H235306   2.553   2.491   2.434 -1.4079 -0.2708  0.0147
 4631TIP3   OH235307   1.237   1.138   0.639  0.0821  0.5294  0.3046
 4631TIP3    H135308   1.204   1.226   0.657  0.8869  0.9917 -0.4080
 4631TIP3    H235309   1.327   1.151   0.612 -0.5180 -0.2546 -2.3311
 4632TIP3   OH235310   3.824   1.758   0.202  0.5704 -0.5186 -0.8410
 4632TIP3    H135311   3.889   1.699   0.240 -0.0335 -0.5953  0.0940
 4632TIP3    H235312   3.748   1.751   0.260  0.4386  1.0788 -0.7620
 4633TIP3   OH235313   0.745   0.642   2.560 -0.2477  0.0271 -0.0501
 4633TIP3    H135314   0.741   0.646   2.464 -0.2202  0.0967 -0.0484
 4633TIP3    H235315   0.671   0.697   2.589 -1.7686 -1.9011 -0.0537
 4634TIP3   OH235316   4.478   5.301   2.609 -0.0568  0.2007 -0.0293
 4634TIP3    H135317   4.458   5.280   2.701  0.2225  0.9477  0.2107
 4634TIP3    H235318   4.498   5.217   2.569  0.3709 -0.0763  0.7393
 4635TIP3   OH235319   2.205   6.682  14.031 -0.8507 -0.1069 -0.2810
 4635TIP3    H135320   2.222   6.593  14.000 -2.2630 -0.0705 -1.2422
 4635TIP3    H235321   2.110   6.687  14.039 -0.7368  1.0461  0.6466
 4636TIP3   OH235322   2.191   1.174  16.765  0.6486  0.1318  0.3560
 4636TIP3    H135323   2.231   1.133  16.689 -0.4045  2.0675 -1.3540
 4636TIP3    H235324   2.229   1.129  16.841  1.0523 -2.4956 -1.2986
 4637TIP3   OH235325   6.339   3.408  15.112  0.6306 -0.0727  0.1744
 4637TIP3    H135326   6.305   3.362  15.035  2.2485 -2.6890  0.8933
 4637TIP3    H235327   6.287   3.375  15.185  0.5335  0.7452  0.4818
 4638TIP3   OH235328   2.209   4.175  11.362  0.4787  0.3560  0.1988
 4638TIP3    H135329   2.302   4.158  11.375  0.9799  2.8825  0.3870
 4638TIP3    H235330   2.194   4.157  11.269  1.1575 -0.0313  0.1579
 4639TIP3   OH235331   3.726   0.331  13.525  0.5383  0.3810 -1.1317
 4639TIP3    H135332   3.812   0.332  13.566  1.1163  0.0206 -2.2925
 4639TIP3    H235333   3.670   0.382  13.584  0.5221 -2.6149  1.7630
 4640TIP3   OH235334   0.237   6.580   4.784  0.0341  0.8253 -0.0647
 4640TIP3    H135335   0.268   6.628   4.861  0.4998 -2.0692  1.7212
 4640TIP3    H235336   0.144   6.564   4.801 -0.0263  0.7653 -0.4403
 4641TIP3   OH235337   2.382   6.250   5.256 -0.0712 -0.2605  0.4188
 4641TIP3    H135338   2.387   6.269   5.350  1.6330  0.1712  0.2690
 4641TIP3    H235339   2.354   6.332   5.216 -3.9296 -1.2259  0.7493
 4642TIP3   OH235340   2.562   2.572   0.690  0.3016 -0.4848 -0.1816
 4642TIP3    H135341   2.514   2.552   0.771  1.0255 -0.9772  0.1273
 4642TIP3    H235342   2.619   2.645   0.714 -1.0405  0.8530 -0.8366
 4643TIP3   OH235343   4.413   2.220   4.660  0.1924 -0.0460 -0.2869
 4643TIP3    H135344   4.462   2.226   4.742  1.2959  2.2941 -1.0172
 4643TIP3    H235345   4.467   2.165   4.604 -0.0868 -0.8630  0.2340
 4644TIP3   OH235346   2.255   6.079   2.355 -0.2818 -0.2257  0.2264
 4644TIP3    H135347   2.317   6.006   2.352 -1.0801 -0.9406  0.7837
 4644TIP3    H235348   2.170   6.038   2.368 -1.0086  0.6858 -1.3447
 4645TIP3   OH235349   3.382   3.504   6.669 -0.4067  0.2887  1.0804
 4645TIP3    H135350   3.333   3.422   6.664 -0.5873  0.4367  0.1369
 4645TIP3    H235351   3.364   3.547   6.585  1.2749  0.3781  0.7418
 4646TIP3   OH235352   0.597   0.833   1.277  0.2291 -0.3052 -0.5641
 4646TIP3    H135353   0.692   0.822   1.270  0.1383 -1.4185 -0.2570
 4646TIP3    H235354   0.577   0.807   1.367 -0.3370  0.2246 -0.5347
 4647TIP3   OH235355   1.193   0.876  16.212  0.4385  0.3440 -0.1925
 4647TIP3    H135356   1.120   0.918  16.166 -2.6635 -1.1104  2.8776
 4647TIP3    H235357   1.257   0.857  16.144 -0.7570  4.1495 -2.6866
 4648TIP3   OH235358   0.966   5.365  12.732  0.2744 -0.3745 -0.3718
 4648TIP3    H135359   1.003   5.306  12.666 -1.4037  0.7092 -2.4293
 4648TIP3    H235360   1.026   5.440  12.732  0.1356 -0.2557 -0.9110
 4649TIP3   OH235361   2.972   4.181   1.589 -0.5280 -0.1865 -0.2377
 4649TIP3    H135362   3.013   4.102   1.556  0.3797 -0.3930  1.2715
 4649TIP3    H235363   3.015   4.197   1.673 -0.2840  2.2187 -0.7370
 4650TIP3   OH235364   4.826   6.422   1.533 -0.5772 -0.3693 -0.8559
 4650TIP3    H135365   4.752   6.475   1.563 -0.9327 -0.5418 -1.4124
 4650TIP3    H235366   4.876   6.481   1.476 -0.8291 -0.5429 -1.2646
 4651TIP3   OH235367   2.213   0.254  14.529  0.2261  0.4095  0.0517
 4651TIP3    H135368   2.192   0.341  14.561  0.9614  0.9709 -0.9216
 4651TIP3    H235369   2.136   0.227  14.479 -0.1745  0.3079  0.7119
 4652TIP3   OH235370   4.901   0.797  11.599 -0.5613  0.6990  0.3294
 4652TIP3    H135371   4.899   0.709  11.560  0.5657  1.0172 -0.4759
 4652TIP3    H235372   4.809   0.815  11.620 -0.8237 -0.6288  0.4138
 4653TIP3   OH235373   4.060   4.775  17.302  0.2128  0.2819  0.1729
 4653TIP3    H135374   4.093   4.693  17.264 -0.1400  0.6630 -1.0003
 4653TIP3    H235375   4.037   4.829  17.227 -0.0744  1.2605  0.9376
 4654TIP3   OH235376   4.660   0.808   3.244  0.4447  0.7030  0.4657
 4654TIP3    H135377   4.574   0.797   3.202  1.2389  0.6555 -1.2280
 4654TIP3    H235378   4.648   0.882   3.304 -0.6005  1.1733 -0.2894
 4655TIP3   OH235379   5.873   4.317   3.044  0.2523  0.1483 -0.1402
 4655TIP3    H135380   5.873   4.413   3.041 -0.0361  0.1344 -0.6985
 4655TIP3    H235381   5.847   4.295   3.133 -2.0620  0.5771 -0.6566
 4656TIP3   OH235382   1.819   4.931   2.496 -0.1760 -0.1172 -0.1325
 4656TIP3    H135383   1.802   5.024   2.482 -0.5084 -0.1950 -0.2428
 4656TIP3    H235384   1.733   4.890   2.499 -0.0245 -0.4962 -0.6092
 4657TIP3   OH235385   1.931   5.666   2.555 -0.5690  0.9446 -0.1084
 4657TIP3    H135386   1.975   5.641   2.637 -0.2719 -1.0128 -0.8096
 4657TIP3    H235387   1.997   5.717   2.508  0.7085 -1.1199 -0.7110
 4658TIP3   OH235388   4.096   2.398  12.218 -0.9486  0.0291 -0.3705
 4658TIP3    H135389   4.026   2.453  12.183 -2.2939 -1.0212  0.5968
 4658TIP3    H235390   4.060   2.362  12.299  0.1680 -1.7152 -0.6056
 4659TIP3   OH235391   0.311   0.901   4.918 -0.7443  0.2648  0.0968
 4659TIP3    H135392   0.333   0.862   5.004 -0.4707  1.1611  0.4417
 4659TIP3    H235393   0.390   0.887   4.866  0.7647  3.3692  1.2989
 4660TIP3   OH235394   6.197   4.068   3.336  0.3392 -0.3436 -0.1963
 4660TIP3    H135395   6.199   4.163   3.338  0.1631 -0.3456  0.4238
 4660TIP3    H235396   6.109   4.046   3.368  1.1891 -0.7540  2.0452
 4661TIP3   OH235397   3.753   0.447  16.315 -0.4271 -0.0682 -0.5458
 4661TIP3    H135398   3.697   0.369  16.327 -0.3656 -0.0867 -0.3805
 4661TIP3    H235399   3.808   0.449  16.393  1.3895 -1.3493 -1.7184
 4662TIP3   OH235400   4.948   5.763   0.318 -0.0727  0.1656  0.4754
 4662TIP3    H135401   5.032   5.721   0.336 -0.4169 -0.6645  0.2048
 4662TIP3    H235402   4.958   5.852   0.351  1.2522  0.3986 -0.4549
 4663TIP3   OH235403   0.810   6.195  11.099  0.5466  0.2663 -0.1568
 4663TIP3    H135404   0.889   6.247  11.085  0.3846  0.4097 -0.5580
 4663TIP3    H235405   0.742   6.260  11.119 -0.0425  0.3891 -2.3067
 4664TIP3   OH235406   0.275   4.587   4.941  0.3988 -0.2085 -0.2634
 4664TIP3    H135407   0.201   4.526   4.939  0.1687 -0.1250  2.2389
 4664TIP3    H235408   0.235   4.672   4.922  0.1520 -0.3769 -0.5225
 4665TIP3   OH235409   3.446   3.933  13.168  1.0774  0.0640 -0.5113
 4665TIP3    H135410   3.463   3.902  13.257  0.8115  2.7123  0.5600
 4665TIP3    H235411   3.361   3.897  13.145  0.6668  0.2174  0.7409
 4666TIP3   OH235412   4.284   3.841   3.160  0.1129 -0.1225 -0.1532
 4666TIP3    H135413   4.379   3.844   3.156  0.0723  1.6783 -0.4308
 4666TIP3    H235414   4.256   3.830   3.070  0.0520 -1.2446 -0.0094
 4667TIP3   OH235415   0.036   3.288   0.586  0.4077  0.3592 -0.0596
 4667TIP3    H135416  -0.055   3.315   0.597  0.4926  0.3213  0.7904
 4667TIP3    H235417   0.047   3.215   0.647  0.6558 -0.4724 -1.0843
 4668TIP3   OH235418   6.213   2.210  15.580 -0.3591  0.6759 -0.0507
 4668TIP3    H135419   6.137   2.195  15.523 -0.0985  0.2408 -0.2900
 4668TIP3    H235420   6.284   2.162  15.537  0.0358  1.0384  0.2037
 4669TIP3   OH235421   3.757   5.881  12.620  0.2296 -1.3715  0.1125
 4669TIP3    H135422   3.672   5.925  12.610  0.7780 -0.3843 -0.3699
 4669TIP3    H235423   3.738   5.802  12.671 -0.7055 -0.2606  1.5543
 4670TIP3   OH235424   1.790   5.922   4.778  0.0139 -0.0636 -0.4184
 4670TIP3    H135425   1.821   5.934   4.868 -0.5233 -1.3243 -0.0349
 4670TIP3    H235426   1.853   5.970   4.724 -0.0339  1.2695  0.6712
 4671TIP3   OH235427   0.648   1.776  13.795  0.2308 -0.3028  0.3573
 4671TIP3    H135428   0.743   1.769  13.788  0.1944  0.1569 -0.6548
 4671TIP3    H235429   0.617   1.777  13.705 -0.7909 -1.0819  0.6792
 4672TIP3   OH235430   1.271   1.752  10.552 -0.1550  0.1982 -0.2463
 4672TIP3    H135431   1.279   1.746  10.457  2.9548 -0.3902 -0.0493
 4672TIP3    H235432   1.336   1.690  10.586 -1.0126  0.5471  2.2792
 4673TIP3   OH235433   0.300   1.201  13.046 -1.0485  0.2431  0.5148
 4673TIP3    H135434   0.229   1.137  13.047 -0.4709 -0.5624 -2.4614
 4673TIP3    H235435   0.369   1.161  13.099 -1.2916 -0.9006 -0.0072
 4674TIP3   OH235436   4.609   2.672   3.934 -0.2109 -0.2325  0.3334
 4674TIP3    H135437   4.624   2.767   3.933 -1.3448 -0.0408 -0.4502
 4674TIP3    H235438   4.561   2.656   4.015  0.5569 -0.2420  0.7927
 4675TIP3   OH235439   6.606   1.658   0.121 -0.0089 -0.0547  0.6095
 4675TIP3    H135440   6.624   1.564   0.124  0.0633 -0.1140 -1.0026
 4675TIP3    H235441   6.577   1.674   0.031 -1.4886  1.2116  1.2742
 4676TIP3   OH235442   3.748   1.695  16.977 -0.7515  0.6768  0.0916
 4676TIP3    H135443   3.692   1.662  17.048  0.1848 -2.3413 -0.4152
 4676TIP3    H235444   3.836   1.665  17.000 -0.1774  0.9745 -1.6032
 4677TIP3   OH235445   1.306   6.740  13.422 -0.4050  0.2822  0.2520
 4677TIP3    H135446   1.362   6.814  13.400 -2.4456  1.6369 -0.6512
 4677TIP3    H235447   1.287   6.750  13.515 -2.1166  2.0103 -0.2278
 4678TIP3   OH235448   5.421   2.311  12.126  0.4377  0.2161 -0.7039
 4678TIP3    H135449   5.436   2.217  12.111 -0.0391 -0.4295  2.1241
 4678TIP3    H235450   5.509   2.348  12.132  0.6451 -0.1991 -1.0685
 4679TIP3   OH235451   3.537   0.880  12.441 -0.3776  1.1103 -0.6075
 4679TIP3    H135452   3.584   0.896  12.359  0.3603 -1.8063 -0.8786
 4679TIP3    H235453   3.453   0.843  12.413 -0.4597  0.8818 -0.0576
 4680TIP3   OH235454   6.292   0.173   5.332 -0.5496 -0.1171  0.0075
 4680TIP3    H135455   6.298   0.214   5.246  1.0295 -1.8799 -0.7857
 4680TIP3    H235456   6.382   0.171   5.364 -0.8334 -1.2884  0.7987
 4681TIP3   OH235457   4.320   3.350  12.467  0.0731 -0.7122 -0.1053
 4681TIP3    H135458   4.229   3.340  12.493  0.5212 -0.0236  1.9727
 4681TIP3    H235459   4.318   3.408  12.391 -1.1788 -0.1223  0.3627
 4682TIP3   OH235460   6.752   1.596   4.736  0.4283 -0.4103  0.2971
 4682TIP3    H135461   6.797   1.626   4.815  0.1418  0.0626  0.2870
 4682TIP3    H235462   6.681   1.659   4.724 -0.5903 -1.4669  0.6371
 4683TIP3   OH235463   6.567   3.972   4.252  0.5816  0.2989  0.6379
 4683TIP3    H135464   6.482   3.973   4.208  0.1387 -0.0770  1.4624
 4683TIP3    H235465   6.574   4.058   4.292  0.3705  0.1589  0.9763
 4684TIP3   OH235466   1.739   6.616  13.213  0.1541 -0.1755  0.2120
 4684TIP3    H135467   1.795   6.635  13.289 -1.2843  2.0411  0.8195
 4684TIP3    H235468   1.796   6.627  13.137  0.6753  1.7183  0.8263
 4685TIP3   OH235469   6.002   5.354   1.513 -0.4719  0.2410  0.5403
 4685TIP3    H135470   5.971   5.271   1.477 -1.3038  0.0430  1.6748
 4685TIP3    H235471   5.922   5.399   1.541  0.0166  1.1913  0.4587
 4686TIP3   OH235472   4.319   3.963   0.572  0.0430  0.0067  0.4051
 4686TIP3    H135473   4.398   4.014   0.554  0.1311 -0.4436 -0.5545
 4686TIP3    H235474   4.272   4.013   0.639 -0.2699  1.7658 -1.0495
 4687TIP3   OH235475   0.489   1.011  16.192  0.5985  0.4933  0.1422
 4687TIP3    H135476   0.447   1.089  16.229  0.6318  0.9108 -0.6811
 4687TIP3    H235477   0.582   1.028  16.202  0.6009  0.4112  0.2597
 4688TIP3   OH235478   4.055   3.303  12.566  0.4981 -0.0970 -0.3237
 4688TIP3    H135479   4.010   3.281  12.648  0.0008  1.0880 -0.2628
 4688TIP3    H235480   4.035   3.231  12.507 -1.2328  0.2416 -0.1929
 4689TIP3   OH235481   5.414   1.366  14.794 -0.3729  0.0353  0.2121
 4689TIP3    H135482   5.412   1.356  14.698  2.2780 -0.6780  0.1483
 4689TIP3    H235483   5.443   1.281  14.826 -0.0089  0.6436  1.5551
 4690TIP3   OH235484   0.421   0.466  15.697  0.2151  0.1041 -0.2102
 4690TIP3    H135485   0.457   0.381  15.671 -0.8634 -0.2410 -0.6335
 4690TIP3    H235486   0.461   0.529  15.638 -0.0657 -0.3127 -0.8524
 4691TIP3   OH235487   5.897   3.981  16.627 -0.0776  0.2328 -0.2193
 4691TIP3    H135488   5.904   3.923  16.703  3.3112 -0.6707 -1.0789
 4691TIP3    H235489   5.940   4.062  16.655  0.2467  0.2758 -0.8443
 4692TIP3   OH235490   2.868   3.147  15.833 -0.1285 -0.1458 -0.4041
 4692TIP3    H135491   2.882   3.057  15.861 -0.5914 -0.2566 -0.5236
 4692TIP3    H235492   2.876   3.144  15.737 -0.7774 -0.1787 -0.4601
 4693TIP3   OH235493   5.160   5.630  16.380  0.7467 -0.2243 -0.4051
 4693TIP3    H135494   5.172   5.599  16.470 -0.6110 -0.7643 -0.3858
 4693TIP3    H235495   5.228   5.583  16.330  1.2689 -0.2046  0.2686
 4694TIP3   OH235496   1.565   0.392   1.310  0.0730  0.4144  0.1340
 4694TIP3    H135497   1.544   0.382   1.218 -0.1132  2.0711 -0.0347
 4694TIP3    H235498   1.593   0.305   1.338  0.3906 -0.0539 -1.5394
 4695TIP3   OH235499   2.208   3.878  12.605 -0.1646 -0.2755  0.1397
 4695TIP3    H135500   2.267   3.819  12.557  0.4164  0.3119  0.1182
 4695TIP3    H235501   2.172   3.823  12.675 -0.8539 -1.0813 -0.8158
 4696TIP3   OH235502   0.055   0.408  15.281  0.1423 -0.2376  1.0653
 4696TIP3    H135503   0.099   0.341  15.229 -3.3300 -1.5208 -0.4697
 4696TIP3    H235504   0.107   0.414  15.361  1.7862 -3.1989  0.3518
 4697TIP3   OH235505   0.639   2.181  13.363 -0.3455 -0.2314  0.3910
 4697TIP3    H135506   0.732   2.166  13.378 -0.0805  1.6995  0.9231
 4697TIP3    H235507   0.619   2.130  13.285  1.7911  1.2893 -1.2688
 4698TIP3   OH235508   5.863   4.882  11.115  0.0914  0.1323  0.0251
 4698TIP3    H135509   5.774   4.870  11.082  0.6141 -0.1155 -1.3625
 4698TIP3    H235510   5.903   4.795  11.108  0.5932  0.3429  0.2050
 4699TIP3   OH235511   6.206   3.595   4.953 -0.1696  0.2028 -0.1630
 4699TIP3    H135512   6.175   3.542   5.027  2.7493 -0.0536  0.9874
 4699TIP3    H235513   6.293   3.562   4.934  0.2432  2.1029 -1.9410
 4700TIP3   OH235514   5.482   0.592   4.908  0.2639 -0.4615  0.8661
 4700TIP3    H135515   5.525   0.556   4.830 -2.5804 -0.2324 -0.9283
 4700TIP3    H235516   5.526   0.548   4.981  1.6798 -2.2424 -0.9321
 4701TIP3   OH235517   4.256   2.920  11.784 -0.2564 -0.3721  0.2299
 4701TIP3    H135518   4.259   2.928  11.879 -1.1718  1.2922  0.1570
 4701TIP3    H235519   4.310   2.844  11.765  1.2333  0.1799  1.9562
 4702TIP3   OH235520   0.903   6.090  11.408  0.4060  0.0706 -0.2492
 4702TIP3    H135521   0.834   6.092  11.342  0.8346  1.1546 -0.6875
 4702TIP3    H235522   0.981   6.121  11.362  0.4176  2.2350  1.0798
 4703TIP3   OH235523   1.609   5.321  11.376  0.2598  0.3782  0.2822
 4703TIP3    H135524   1.584   5.350  11.288  1.1154 -0.9141 -0.4130
 4703TIP3    H235525   1.625   5.227  11.367 -1.3839 -0.1666  2.2094
 4704TIP3   OH235526   2.917   2.107   2.047 -0.2140 -0.3406  0.1783
 4704TIP3    H135527   2.972   2.183   2.066  0.3770 -0.4621 -0.9610
 4704TIP3    H235528   2.854   2.104   2.119 -0.0482  1.0320  0.4035
 4705TIP3   OH235529   3.792   2.920   5.246 -0.3556  0.1677  0.0042
 4705TIP3    H135530   3.819   2.872   5.324 -1.2178  1.0187  0.8493
 4705TIP3    H235531   3.845   2.883   5.176  0.5159 -0.5448  1.0047
 4706TIP3   OH235532   5.371   4.321  13.163 -0.4408  0.7980 -0.8445
 4706TIP3    H135533   5.362   4.332  13.258 -1.4644 -0.1699 -0.8049
 4706TIP3    H235534   5.440   4.255  13.153  0.1656  1.4121 -0.8139
 4707TIP3   OH235535   2.148   5.950  12.907 -0.3756  0.1550 -1.0323
 4707TIP3    H135536   2.078   5.913  12.960 -0.3414  1.4775  0.0102
 4707TIP3    H235537   2.187   6.018  12.963  0.8887  0.3329 -2.0709
 4708TIP3   OH235538   3.486   0.571   5.206  0.0240 -0.1249  0.0964
 4708TIP3    H135539   3.549   0.552   5.137  1.1900 -0.3360  1.1704
 4708TIP3    H235540   3.402   0.582   5.161  0.3892 -2.0693 -1.1531
 4709TIP3   OH235541   0.151   2.104  14.651 -0.2503 -0.1660 -0.3989
 4709TIP3    H135542   0.110   2.067  14.729 -0.2881  0.3431 -0.1727
 4709TIP3    H235543   0.245   2.100  14.668 -0.2838  1.4087  0.3807
 4710TIP3   OH235544   0.318   6.037  11.938 -0.5768 -0.3766 -0.1739
 4710TIP3    H135545   0.355   6.108  11.888 -0.4198 -0.0607  0.3796
 4710TIP3    H235546   0.226   6.033  11.911 -0.3955 -0.4713 -0.7692
 4711TIP3   OH235547   0.087   1.530   3.312 -0.2713 -0.3980  0.2456
 4711TIP3    H135548   0.067   1.515   3.220 -0.5345  3.0087 -0.3929
 4711TIP3    H235549   0.182   1.547   3.313 -0.4793  0.8835  0.3184
 4712TIP3   OH235550   5.396   1.576  12.435  0.0976  0.5742 -0.1084
 4712TIP3    H135551   5.434   1.663  12.422  0.3802  0.6037  0.8442
 4712TIP3    H235552   5.426   1.549  12.522  0.5516 -0.7670 -0.6549
 4713TIP3   OH235553   0.946   2.571   2.478  0.2039  0.5346 -0.6100
 4713TIP3    H135554   0.859   2.548   2.447 -0.0058  0.3686  0.0977
 4713TIP3    H235555   0.947   2.544   2.570  1.0159  0.4876 -0.6276
 4714TIP3   OH235556   4.689   4.086   2.415 -0.0673  0.0885 -0.3244
 4714TIP3    H135557   4.642   4.169   2.410 -0.6391 -0.1854  0.3006
 4714TIP3    H235558   4.780   4.110   2.432 -0.0486  0.6092 -1.0938
 4715TIP3   OH235559   1.329   5.962   4.988 -0.3929 -0.1968  0.5634
 4715TIP3    H135560   1.391   6.034   4.977  0.0227 -0.4870  0.9418
 4715TIP3    H235561   1.302   5.967   5.079  0.9540 -1.5291  1.0869
 4716TIP3   OH235562   0.047   6.488  15.709  0.1430 -0.2176 -0.0240
 4716TIP3    H135563  -0.014   6.497  15.782 -0.1456 -3.3854  0.2932
 4716TIP3    H235564   0.133   6.498  15.748 -0.0678  0.5484  0.2559
 4717TIP3   OH235565   6.108   6.079  12.057  0.3168 -0.2710 -0.9544
 4717TIP3    H135566   6.088   6.143  12.126 -0.3330  0.1130 -1.4924
 4717TIP3    H235567   6.204   6.077  12.054  0.3463  0.4477 -0.7154
 4718TIP3   OH235568   5.990   4.326  11.930 -0.2318 -0.0668 -0.1797
 4718TIP3    H135569   5.953   4.414  11.933  1.3027  0.5973 -0.3562
 4718TIP3    H235570   6.001   4.307  11.837  1.9688  0.6772 -0.1224
 4719TIP3   OH235571   0.519   4.147   4.864 -0.0394 -0.4129 -0.3440
 4719TIP3    H135572   0.511   4.077   4.799  0.0722 -0.0774 -0.7247
 4719TIP3    H235573   0.545   4.224   4.813  2.5904 -0.7043  0.4200
 4720TIP3   OH235574   0.503   0.293   2.244 -0.5980  0.3163 -0.0037
 4720TIP3    H135575   0.427   0.251   2.202 -1.4726  2.1463 -0.3201
 4720TIP3    H235576   0.510   0.378   2.202  1.6328  0.2291  0.0720
 4721TIP3   OH235577   2.811   3.010   5.188 -0.6919 -0.2475 -0.9540
 4721TIP3    H135578   2.827   3.086   5.245 -0.4482 -1.2804  0.4183
 4721TIP3    H235579   2.722   3.023   5.156 -1.8105 -0.8114  1.6708
 4722TIP3   OH235580   4.250   4.682  12.620  0.2239 -0.0059  0.0870
 4722TIP3    H135581   4.278   4.615  12.557 -0.4670 -1.2470  1.0492
 4722TIP3    H235582   4.322   4.745  12.621  0.8890 -0.7083 -0.8721
 4723TIP3   OH235583   6.593   2.768  16.223  0.0459 -0.8109  0.4201
 4723TIP3    H135584   6.659   2.703  16.200 -0.0747 -1.3264  1.4328
 4723TIP3    H235585   6.571   2.747  16.314 -0.6384  0.1040  0.4734
 4724TIP3   OH235586   3.740   1.070  15.350 -0.8625  0.3358 -0.0573
 4724TIP3    H135587   3.687   1.089  15.272  0.2703  0.8324 -0.7477
 4724TIP3    H235588   3.798   1.145  15.357  1.1259 -1.0638 -0.5534
 4725TIP3   OH235589   3.865   0.842  12.370  0.1213 -0.1485 -0.2786
 4725TIP3    H135590   3.874   0.930  12.334  0.0658 -0.3991 -0.9055
 4725TIP3    H235591   3.829   0.789  12.299 -1.5891 -0.2910  0.6151
 4726TIP3   OH235592   5.735   5.682  17.208  0.2846 -0.2769  0.5829
 4726TIP3    H135593   5.828   5.701  17.204  0.1870  0.5744  1.8063
 4726TIP3    H235594   5.711   5.659  17.118  1.3575  1.0023 -0.0593
 4727TIP3   OH235595   4.151   2.720   4.495  0.3445 -0.2384  0.1685
 4727TIP3    H135596   4.219   2.685   4.438  1.2462 -0.2867  1.2604
 4727TIP3    H235597   4.152   2.814   4.479  0.7000 -0.2343  0.2133
 4728TIP3   OH235598   5.592   0.082  14.552 -0.3658 -0.3404 -0.9312
 4728TIP3    H135599   5.609   0.165  14.597  1.3409 -1.3678  0.4511
 4728TIP3    H235600   5.521   0.042  14.602 -0.0735 -0.4246 -0.5763
 4729TIP3   OH235601   2.184   2.271   5.072  0.8252 -0.3971  0.1801
 4729TIP3    H135602   2.111   2.321   5.109  1.1130  1.3153 -1.4064
 4729TIP3    H235603   2.143   2.210   5.011  0.5918 -0.9459  0.8715
 4730TIP3   OH235604   0.400   2.187   5.423 -0.5664  0.0664  0.3322
 4730TIP3    H135605   0.383   2.196   5.329 -0.5749 -0.0987  0.3175
 4730TIP3    H235606   0.321   2.222   5.465 -1.0003 -0.8069  0.2631
 4731TIP3   OH235607   5.030   0.356  16.740 -0.7658  0.0674 -0.0961
 4731TIP3    H135608   5.065   0.285  16.794 -1.3188  0.2518  0.5217
 4731TIP3    H235609   4.953   0.318  16.698 -2.3226  0.8491  1.8640
 4732TIP3   OH235610   4.483   6.165   5.489 -0.0279 -0.5058 -0.0568
 4732TIP3    H135611   4.478   6.085   5.437  0.9981  0.1161 -1.1408
 4732TIP3    H235612   4.397   6.205   5.480 -1.2121 -2.3371  1.9891
 4733TIP3   OH235613   0.898   0.913  15.584 -0.2218 -0.3413  0.4696
 4733TIP3    H135614   0.807   0.908  15.555  0.0807 -1.0447 -0.4093
 4733TIP3    H235615   0.892   0.946  15.673 -1.2995  0.1870  0.2243
 4734TIP3   OH235616   0.974   6.542   2.927  0.1010  0.0006 -0.3044
 4734TIP3    H135617   0.922   6.520   3.004 -0.2459  0.1017 -0.5120
 4734TIP3    H235618   0.911   6.573   2.863  0.1521 -1.7101 -1.2494
 4735TIP3   OH235619   3.148   5.149   3.626  0.3139 -0.0075  0.0058
 4735TIP3    H135620   3.241   5.153   3.602  0.6886 -0.2338  1.3491
 4735TIP3    H235621   3.121   5.061   3.599  0.9527 -0.5725  1.1072
 4736TIP3   OH235622   4.952   5.323   5.991  0.4381 -0.1203  0.0236
 4736TIP3    H135623   4.992   5.398   6.036 -0.0641  0.1042  0.1064
 4736TIP3    H235624   5.026   5.276   5.952  0.8210  0.0471  0.5308
 4737TIP3   OH235625   0.056   0.761   1.321  0.4818  0.2913 -0.0850
 4737TIP3    H135626   0.115   0.694   1.355 -0.3914 -1.0269 -1.0540
 4737TIP3    H235627   0.109   0.811   1.259  0.5880 -0.9660 -1.0486
 4738TIP3   OH235628   1.981   3.093  15.828 -0.8250 -0.7904 -0.0193
 4738TIP3    H135629   2.047   3.068  15.892 -1.1669  1.3606  1.2644
 4738TIP3    H235630   2.028   3.098  15.745  0.1455 -1.3812  0.4773
 4739TIP3   OH235631   3.929   4.158  17.212 -0.2148 -0.3567  0.0305
 4739TIP3    H135632   3.919   4.224  17.144  0.2929 -2.0172 -1.7675
 4739TIP3    H235633   3.947   4.077  17.164  0.2194 -1.6114  2.1667
 4740TIP3   OH235634   6.401   0.559  13.937 -0.2069  0.0027 -0.1820
 4740TIP3    H135635   6.394   0.642  13.985  0.9530 -1.1830  2.2207
 4740TIP3    H235636   6.495   0.544  13.929 -0.4024 -0.7464 -1.2711
 4741TIP3   OH235637   4.471   6.698   5.816 -0.1794 -0.1975  0.1197
 4741TIP3    H135638   4.476   6.749   5.736  0.3472  0.8980  0.8292
 4741TIP3    H235639   4.548   6.724   5.866  0.5381 -2.2536  0.1915
 4742TIP3   OH235640   1.762   2.733   3.346 -0.3219 -0.2248  0.7906
 4742TIP3    H135641   1.685   2.687   3.313 -0.4116  0.7817 -0.4705
 4742TIP3    H235642   1.804   2.670   3.404 -1.3926 -1.2552  0.4814
 4743TIP3   OH235643   2.031   6.013  13.701  0.4836  0.2671 -0.7225
 4743TIP3    H135644   2.108   6.033  13.754 -0.6081 -0.0575  1.0866
 4743TIP3    H235645   2.057   5.938  13.648  1.1599 -0.3663  0.4647
 4744TIP3   OH235646   4.829   5.533  13.186 -0.1929  0.4292  0.0579
 4744TIP3    H135647   4.913   5.495  13.157 -0.1655 -0.5846  1.3255
 4744TIP3    H235648   4.764   5.468  13.160 -0.3509  0.3123  0.7277
 4745TIP3   OH235649   6.104   2.962   1.683 -0.3685  0.5722  0.1823
 4745TIP3    H135650   6.188   2.990   1.720 -1.1918  2.3030  0.8385
 4745TIP3    H235651   6.090   2.875   1.721  0.3731  0.9319  1.3370
 4746TIP3   OH235652   2.131   0.644   0.596  0.4496  0.1761  0.1793
 4746TIP3    H135653   2.157   0.554   0.613  1.1096  0.5101  1.0214
 4746TIP3    H235654   2.211   0.687   0.565  0.2423  0.5679  0.1741
 4747TIP3   OH235655   2.555   3.477  15.405  0.3357  0.2410  0.7568
 4747TIP3    H135656   2.618   3.408  15.385 -0.6062 -0.4354  0.0109
 4747TIP3    H235657   2.480   3.432  15.442 -0.0531  0.9399  0.8505
 4748TIP3   OH235658   0.651   3.764   3.124 -0.6742 -0.1492 -0.6220
 4748TIP3    H135659   0.574   3.717   3.093  0.5255 -1.1277 -2.2904
 4748TIP3    H235660   0.664   3.733   3.213 -1.0901 -1.4642 -0.9952
 4749TIP3   OH235661   0.403   1.754   3.438  0.0735  0.1129 -0.5440
 4749TIP3    H135662   0.397   1.704   3.357  0.3704 -0.6013 -0.1289
 4749TIP3    H235663   0.350   1.705   3.501 -1.2866  1.3719 -0.6429
 4750TIP3   OH235664   2.228   4.760   4.680  0.2140 -0.3242  0.0649
 4750TIP3    H135665   2.260   4.692   4.621  0.6359 -0.5136  0.5054
 4750TIP3    H235666   2.305   4.813   4.700 -0.4251  1.3739 -1.6687
 4751TIP3   OH235667   2.183   3.068   0.606 -0.1454  0.3747 -0.0420
 4751TIP3    H135668   2.190   2.987   0.555  0.7994  0.8539 -0.6933
 4751TIP3    H235669   2.178   3.138   0.541 -0.8654  0.8553  0.5152
 4752TIP3   OH235670   5.824   1.056  11.772  0.2705 -0.8389 -0.0446
 4752TIP3    H135671   5.759   0.989  11.792  0.3893 -0.6295  1.1061
 4752TIP3    H235672   5.827   1.111  11.850  0.0500  0.6224 -1.0287
 4753TIP3   OH235673   3.465   3.325  14.339  0.0637  0.3737  0.5697
 4753TIP3    H135674   3.475   3.374  14.258 -2.1256 -0.6228 -0.3907
 4753TIP3    H235675   3.465   3.233  14.311  0.7392 -0.0721  1.9140
 4754TIP3   OH235676   6.435   5.992  11.827  0.1680  0.2995  0.5375
 4754TIP3    H135677   6.400   6.048  11.897 -1.7664 -1.2862  0.9136
 4754TIP3    H235678   6.371   5.922  11.817  0.8713 -0.0675 -2.2018
 4755TIP3   OH235679   4.767   5.624   0.488  0.4289  0.2653 -0.8155
 4755TIP3    H135680   4.799   5.646   0.576  2.7250 -2.7511 -0.7506
 4755TIP3    H235681   4.823   5.673   0.428 -0.7712  1.8785 -0.6989
 4756TIP3   OH235682   4.945   6.063  16.011 -0.4562 -0.5523  0.6275
 4756TIP3    H135683   4.853   6.076  15.990 -0.4114 -0.8599  0.2348
 4756TIP3    H235684   4.988   6.056  15.926 -0.2866 -1.9245  0.8036
 4757TIP3   OH235685   2.778   1.672   4.929  0.1559  0.0470 -0.1756
 4757TIP3    H135686   2.848   1.651   4.867  0.1307 -0.1872 -0.1256
 4757TIP3    H235687   2.771   1.767   4.926 -0.5807 -0.0235 -1.3472
 4758TIP3   OH235688   6.130   0.080  10.820 -0.0899  0.0746 -0.2021
 4758TIP3    H135689   6.179   0.150  10.778 -0.0282 -0.2212 -0.6286
 4758TIP3    H235690   6.152   0.001  10.769 -0.3950 -0.1971  0.0825
 4759TIP3   OH235691   6.168   4.631   5.587  0.3032 -0.3279  0.1335
 4759TIP3    H135692   6.231   4.628   5.515  1.0478 -2.6157  0.7864
 4759TIP3    H235693   6.101   4.568   5.563 -0.7601  0.6847  0.3486
 4760TIP3   OH235694   2.108   2.133   4.542  0.4228 -0.5712  0.1027
 4760TIP3    H135695   2.016   2.109   4.558  0.3851 -0.3599  0.1987
 4760TIP3    H235696   2.112   2.226   4.561  0.4729 -0.4041 -0.7137
 4761TIP3   OH235697   5.552   6.419  15.100 -0.3702  0.0155  0.3597
 4761TIP3    H135698   5.597   6.471  15.034  1.2087  0.8624  2.0108
 4761TIP3    H235699   5.524   6.340  15.054 -1.1870  1.4676 -1.7767
 4762TIP3   OH235700   5.978   2.824  13.670  0.5432  0.1720  0.3010
 4762TIP3    H135701   5.919   2.751  13.688  1.6786 -0.9344 -0.2866
 4762TIP3    H235702   5.925   2.887  13.622 -0.3518 -0.4329  0.4614
 4763TIP3   OH235703   5.730   4.557   5.737 -0.1640 -0.1937  0.2710
 4763TIP3    H135704   5.806   4.539   5.792  0.4313 -0.4124 -0.6029
 4763TIP3    H235705   5.665   4.594   5.797  0.7717  0.3897  0.9545
 4764TIP3   OH235706   5.704   1.878   2.543  0.5684  0.4507  0.2177
 4764TIP3    H135707   5.790   1.876   2.584  0.4732 -0.2705  0.4013
 4764TIP3    H235708   5.648   1.923   2.606  1.1165  2.2891 -0.5466
 4765TIP3   OH235709   1.522   0.843   0.188 -0.4686  0.0909 -0.1950
 4765TIP3    H135710   1.537   0.929   0.227  1.0451 -1.2851  2.5182
 4765TIP3    H235711   1.607   0.816   0.154 -0.0599 -1.6392  1.9849
 4766TIP3   OH235712   5.455   4.296  12.826 -0.2931  0.0635  0.0163
 4766TIP3    H135713   5.531   4.269  12.877  0.7258  0.6680 -1.1318
 4766TIP3    H235714   5.420   4.214  12.790  0.4106 -0.1359 -0.2329
 4767TIP3   OH235715   0.959   0.259   3.992  0.6677  0.8160  0.2078
 4767TIP3    H135716   0.927   0.269   4.082  1.8790  0.4205  0.6968
 4767TIP3    H235717   0.880   0.242   3.941  0.1399 -0.9101  1.4989
 4768TIP3   OH235718   5.322   5.901   1.712  0.0078  0.1814 -0.5428
 4768TIP3    H135719   5.253   5.917   1.647  0.4654  0.5616 -0.9487
 4768TIP3    H235720   5.332   5.985   1.757 -0.2621 -0.0633 -0.0163
 4769TIP3   OH235721   1.837   1.419  10.528  0.4204 -0.2328 -0.0266
 4769TIP3    H135722   1.743   1.406  10.538  0.3343  0.0471 -0.4220
 4769TIP3    H235723   1.852   1.415  10.433  0.5155  1.5663 -0.1168
 4770TIP3   OH235724   4.082   6.377   6.599 -0.1681 -0.4513 -0.3737
 4770TIP3    H135725   4.103   6.305   6.658  0.6461 -0.3969 -0.5871
 4770TIP3    H235726   4.145   6.446   6.622 -1.9031  0.7972  0.8934
 4771TIP3   OH235727   6.435   3.165   6.135 -0.1215 -0.1401  0.2579
 4771TIP3    H135728   6.423   3.178   6.041 -0.6423 -0.4432  0.2754
 4771TIP3    H235729   6.412   3.073   6.149  1.7491 -0.6303  0.4067
 4772TIP3   OH235730   0.477   2.285   3.910  0.3414 -0.1318  0.0672
 4772TIP3    H135731   0.436   2.369   3.929 -1.0080 -0.6050 -0.5699
 4772TIP3    H235732   0.471   2.276   3.815 -0.3141 -1.3097  0.1977
 4773TIP3   OH235733   5.910   3.808  12.094  0.2265 -0.0045 -0.0569
 4773TIP3    H135734   5.925   3.778  12.005 -0.2696  1.5800 -0.7195
 4773TIP3    H235735   5.911   3.904  12.088 -2.4362  0.2153  1.1270
 4774TIP3   OH235736   1.493   2.628  13.957  0.2597  0.5578 -0.2116
 4774TIP3    H135737   1.585   2.609  13.978  0.4379 -0.6763 -1.7961
 4774TIP3    H235738   1.485   2.723  13.964  0.8994  0.4686  2.6391
 4775TIP3   OH235739   3.809   4.575  14.576  0.4801  0.5519  0.3420
 4775TIP3    H135740   3.875   4.641  14.598  0.1362  1.3863 -1.0016
 4775TIP3    H235741   3.857   4.510  14.525  0.6733  0.1055  1.0802
 4776TIP3   OH235742   5.984   6.017  12.549  0.2078 -1.2892  0.2619
 4776TIP3    H135743   6.052   6.084  12.547 -0.2042 -0.8134  1.3053
 4776TIP3    H235744   5.902   6.066  12.559 -0.0293 -1.9459  1.8655
 4777TIP3   OH235745   4.370   6.425   6.070  0.6958 -0.8003  0.0427
 4777TIP3    H135746   4.420   6.416   6.151 -0.8353  0.8042  1.2690
 4777TIP3    H235747   4.300   6.486   6.092 -0.8854 -1.7312 -2.0031
 4778TIP3   OH235748   0.179   6.547   1.053  0.2769  0.1006 -0.1850
 4778TIP3    H135749   0.091   6.583   1.065 -0.7346 -2.5151  0.8624
 4778TIP3    H235750   0.206   6.578   0.967 -1.0050  2.2222  0.1099
 4779TIP3   OH235751   5.784   0.934   3.367  0.1024 -0.0747  0.0797
 4779TIP3    H135752   5.869   0.919   3.408 -0.0537 -1.4536 -0.0430
 4779TIP3    H235753   5.722   0.935   3.440 -0.0192 -1.2540  0.0169
 4780TIP3   OH235754   3.838   6.179  17.106 -0.0373  0.5849  0.4072
 4780TIP3    H135755   3.768   6.169  17.170  0.2681  0.9807  0.8161
 4780TIP3    H235756   3.870   6.090  17.091 -0.5014  0.4244  0.3544
 4781TIP3   OH235757   1.020   4.937  15.759 -0.1249  0.0704  0.1054
 4781TIP3    H135758   0.957   4.976  15.699 -0.5532  0.2295  0.6471
 4781TIP3    H235759   1.102   4.983  15.742 -0.2997  0.2727 -0.1910
 4782TIP3   OH235760   2.498   0.358   3.814  0.2185  0.0932 -0.5148
 4782TIP3    H135761   2.485   0.442   3.769  1.1830  0.3074 -0.4211
 4782TIP3    H235762   2.552   0.307   3.753  2.0205  0.5890  0.5726
 4783TIP3   OH235763   2.081   0.903  15.591  0.2928  0.0187 -0.0634
 4783TIP3    H135764   1.989   0.887  15.615 -0.0484  0.7417 -0.8273
 4783TIP3    H235765   2.086   0.998  15.577  1.0411 -0.0764 -0.4795
 4784TIP3   OH235766   2.805   2.145   2.315  0.6423  0.5411 -0.8317
 4784TIP3    H135767   2.725   2.154   2.367  0.2208  1.9568 -1.6726
 4784TIP3    H235768   2.840   2.060   2.340  1.4923  1.8505  3.2080
 4785TIP3   OH235769   0.498   2.252  15.770 -0.2843 -0.0564  0.1704
 4785TIP3    H135770   0.445   2.214  15.700 -1.4177  2.0308 -0.1973
 4785TIP3    H235771   0.447   2.240  15.850  0.3096 -1.0717  0.4220
 4786TIP3   OH235772   0.820   0.702  13.977 -0.1214 -0.1020 -0.3974
 4786TIP3    H135773   0.806   0.607  13.978 -1.4058 -0.0123  2.6732
 4786TIP3    H235774   0.881   0.717  14.050 -0.7845  1.4904 -0.1276
 4787TIP3   OH235775   5.272   1.175  13.713  0.2722 -0.1324  0.0369
 4787TIP3    H135776   5.187   1.137  13.690  0.1156 -1.1732  2.0732
 4787TIP3    H235777   5.268   1.265  13.680 -1.3974 -0.3374 -0.4111
 4788TIP3   OH235778   5.041   5.003   5.340 -0.2479  0.0487  0.1417
 4788TIP3    H135779   5.113   4.952   5.302 -0.1303 -0.6642  1.2545
 4788TIP3    H235780   4.999   4.942   5.401 -1.7609  0.4816 -0.4318
 4789TIP3   OH235781   5.893   5.351   4.618  0.2062  0.1426 -0.1344
 4789TIP3    H135782   5.886   5.431   4.669  0.1965  1.0247 -1.4717
 4789TIP3    H235783   5.986   5.329   4.620  0.4253  0.9614 -0.8920
 4790TIP3   OH235784   0.981   6.387  16.053 -0.2025 -0.0563 -0.1006
 4790TIP3    H135785   1.068   6.358  16.081 -0.3599  0.9105  1.5171
 4790TIP3    H235786   0.997   6.468  16.006 -0.2493  0.4022  0.6545
 4791TIP3   OH235787   0.348   1.352  13.297  0.4764  0.3437 -0.7399
 4791TIP3    H135788   0.428   1.300  13.289  0.7244  0.7646 -1.0546
 4791TIP3    H235789   0.301   1.337  13.215  0.0441 -0.2027 -0.3981
 4792TIP3   OH235790   0.593   0.782   5.599 -0.0765 -0.2615 -0.0953
 4792TIP3    H135791   0.628   0.824   5.677  0.6038 -0.1077 -0.4750
 4792TIP3    H235792   0.639   0.823   5.526 -0.4259 -0.6692 -0.5598
 4793TIP3   OH235793   2.296   3.689   4.328 -0.6826  0.3450  0.5694
 4793TIP3    H135794   2.331   3.720   4.245 -1.2806  0.8348  0.4925
 4793TIP3    H235795   2.359   3.624   4.358 -1.0633 -0.7202 -0.8427
 4794TIP3   OH235796   0.103   1.146   0.573  0.3358 -0.1982 -0.3686
 4794TIP3    H135797   0.153   1.170   0.495  0.5774 -0.0362 -0.1673
 4794TIP3    H235798   0.170   1.113   0.634  0.3058  0.7349  0.1904
 4795TIP3   OH235799   5.509   2.171   0.958  0.0502 -0.0324  0.0351
 4795TIP3    H135800   5.503   2.158   0.863 -0.5635  0.4315  0.0046
 4795TIP3    H235801   5.538   2.087   0.992  2.4747  0.3914 -0.7673
 4796TIP3   OH235802   5.370   6.470  15.607  0.9002 -0.4826 -0.2057
 4796TIP3    H135803   5.314   6.440  15.535  1.0019 -1.7092  0.2042
 4796TIP3    H235804   5.337   6.557  15.629  0.2406 -0.4988 -1.0830
 4797TIP3   OH235805   5.926   5.508  14.543  0.1086 -0.6472 -0.0790
 4797TIP3    H135806   5.962   5.538  14.627  2.8858  1.4491 -1.8496
 4797TIP3    H235807   5.863   5.577  14.520 -1.3339 -1.6816  0.6146
 4798TIP3   OH235808   5.370   4.656   1.364  0.3073  0.1279 -0.3620
 4798TIP3    H135809   5.390   4.580   1.419  0.0704  0.7703  0.6443
 4798TIP3    H235810   5.429   4.724   1.396 -0.6423  0.8511 -0.1018
 4799TIP3   OH235811   6.377   2.662   1.798  0.1923  0.1638 -0.0115
 4799TIP3    H135812   6.379   2.757   1.788 -2.1338  0.7509  3.5298
 4799TIP3    H235813   6.308   2.633   1.738  1.6704  0.4818 -1.9430
 4800TIP3   OH235814   1.273   5.615   2.585 -0.1842  0.5208  0.1019
 4800TIP3    H135815   1.185   5.638   2.614 -0.1247  1.5421 -0.4764
 4800TIP3    H235816   1.326   5.693   2.603  1.3041 -1.0040  3.1154
 4801TIP3   OH235817   4.296   4.302   0.109  0.2170  0.5743  0.0317
 4801TIP3    H135818   4.295   4.242   0.034  1.4034  1.6616 -0.8992
 4801TIP3    H235819   4.204   4.309   0.135 -0.0960 -0.6147 -0.6664
 4802TIP3   OH235820   5.927   4.031   2.169  1.0979 -0.1209  0.1578
 4802TIP3    H135821   5.932   4.115   2.213 -1.8068 -0.7781  2.0234
 4802TIP3    H235822   5.838   4.028   2.132  0.8641 -2.5807  0.7471
 4803TIP3   OH235823   3.017   5.018  11.793  0.2953  0.0359 -0.4788
 4803TIP3    H135824   2.974   5.098  11.763 -0.1479  0.2390  0.6173
 4803TIP3    H235825   3.015   4.959  11.717 -0.8489  0.4856 -0.8226
 4804TIP3   OH235826   0.974   0.558  16.826 -0.1138  0.1875 -0.3962
 4804TIP3    H135827   0.984   0.463  16.823  0.6035  0.2328  0.3559
 4804TIP3    H235828   0.935   0.575  16.911  1.1612  0.6828  0.1024
 4805TIP3   OH235829   6.459   5.181  15.047 -0.1070 -0.4454 -0.7671
 4805TIP3    H135830   6.425   5.127  15.119 -2.2482 -1.1173 -2.1720
 4805TIP3    H235831   6.491   5.261  15.090  0.0443 -1.4258  1.0455
 4806TIP3   OH235832   6.176   0.397   4.010 -0.7102 -0.1218  0.0597
 4806TIP3    H135833   6.251   0.383   3.951 -1.0983  1.1407 -0.7744
 4806TIP3    H235834   6.155   0.310   4.042 -0.1220 -0.7856 -1.2475
 4807TIP3   OH235835   5.091   4.176   6.181  0.3130  0.1227  0.0943
 4807TIP3    H135836   5.060   4.239   6.115  2.3887 -0.8309 -1.8927
 4807TIP3    H235837   5.021   4.111   6.187 -1.4875  2.0376  1.5621
 4808TIP3   OH235838   3.586   4.729  12.087 -0.1098 -0.5187  0.4361
 4808TIP3    H135839   3.647   4.660  12.063  1.1918  0.8262 -0.3611
 4808TIP3    H235840   3.563   4.771  12.003  1.0058  1.4656  1.0454
 4809TIP3   OH235841   6.331   3.676  11.811 -0.0765 -0.3206 -0.3412
 4809TIP3    H135842   6.422   3.701  11.828  0.4465 -1.1279 -1.7679
 4809TIP3    H235843   6.308   3.621  11.885  0.7334 -0.4182 -0.1470
 4810TIP3   OH235844   0.942   5.242  14.453 -0.4261 -0.2533  0.0080
 4810TIP3    H135845   0.875   5.303  14.485 -0.5888 -1.4602  2.1994
 4810TIP3    H235846   0.902   5.156  14.465  1.4313 -0.9990  1.2581
 4811TIP3   OH235847   4.291   4.665   0.875  0.2927  0.0252  0.7001
 4811TIP3    H135848   4.289   4.581   0.830  1.4018 -0.2987  1.2421
 4811TIP3    H235849   4.233   4.653   0.950  0.0178 -0.0773  0.4730
 4812TIP3   OH235850   5.061   2.766  13.187  0.1536  0.4269  0.2646
 4812TIP3    H135851   5.050   2.847  13.238  0.8594  0.5654  0.2095
 4812TIP3    H235852   4.976   2.752  13.146 -0.2240  0.6867  0.9362
 4813TIP3   OH235853   5.189   0.784   4.047 -0.4719 -0.1057 -0.1918
 4813TIP3    H135854   5.230   0.781   4.134 -0.3316 -0.0269 -0.2550
 4813TIP3    H235855   5.130   0.860   4.052 -0.6982 -0.2849 -0.0651
 4814TIP3   OH235856   2.409   3.775   3.568 -0.4560 -0.2434  0.1314
 4814TIP3    H135857   2.360   3.855   3.586 -0.6087 -0.1605 -0.6095
 4814TIP3    H235858   2.390   3.755   3.476 -0.7182 -1.3282  0.3963
 4815TIP3   OH235859   4.216   1.903   2.501 -0.5263  0.2371 -0.5840
 4815TIP3    H135860   4.199   1.812   2.523 -0.2878  0.7220  1.9263
 4815TIP3    H235861   4.158   1.922   2.428 -2.0179 -1.3986  0.1194
 4816TIP3   OH235862   2.492   3.413  13.133 -0.5715 -0.2694 -0.2163
 4816TIP3    H135863   2.483   3.497  13.179  0.9658  1.0802 -2.2086
 4816TIP3    H235864   2.586   3.402  13.123 -0.7773 -2.0117 -0.4517
 4817TIP3   OH235865   6.394   6.708  10.493  0.2753 -0.2934  0.1451
 4817TIP3    H135866   6.377   6.665  10.409  2.2199 -0.1621 -0.3465
 4817TIP3    H235867   6.385   6.801  10.474 -0.3091 -0.3078  0.3397
 4818TIP3   OH235868   4.414   1.971   5.051 -0.4853  0.1397 -0.4215
 4818TIP3    H135869   4.499   1.932   5.031 -0.7034 -0.7020  0.2368
 4818TIP3    H235870   4.416   2.057   5.009  0.4265 -0.1474 -0.9768
 4819TIP3   OH235871   5.514   0.927   0.718 -0.5590  0.3837  0.1528
 4819TIP3    H135872   5.486   1.014   0.689  1.1115  0.7604 -0.4922
 4819TIP3    H235873   5.605   0.939   0.744 -0.9188 -0.7540  2.1380
 4820TIP3   OH235874   5.865   4.632  14.811  0.5657 -0.3062 -0.3833
 4820TIP3    H135875   5.918   4.644  14.732 -0.4484 -1.1101 -1.2131
 4820TIP3    H235876   5.782   4.674  14.790  0.6902  0.5551  0.7423
 4821TIP3   OH235877   5.901   2.659   4.100 -0.1386 -0.4303  0.4573
 4821TIP3    H135878   5.900   2.649   4.195  2.1967  1.0157  0.7117
 4821TIP3    H235879   5.977   2.608   4.072 -0.1773  0.0164 -0.5056
 4822TIP3   OH235880   6.158   4.978   4.644 -0.2064  0.1219 -0.2020
 4822TIP3    H135881   6.096   5.021   4.703  0.1644  1.5058 -0.7851
 4822TIP3    H235882   6.167   5.039   4.571  1.1681 -0.4682 -0.5495
 4823TIP3   OH235883   1.949   4.214  16.140  0.1913 -0.3769  0.3251
 4823TIP3    H135884   1.957   4.200  16.045 -1.0454  0.3825  0.0940
 4823TIP3    H235885   1.987   4.135  16.178  0.7099 -0.7003 -0.8022
 4824TIP3   OH235886   5.448   3.647  14.267  0.7254 -0.5237  0.2931
 4824TIP3    H135887   5.357   3.665  14.290  0.4057  1.7586 -2.2619
 4824TIP3    H235888   5.495   3.652  14.350 -1.0360  1.6272  1.2562
 4825TIP3   OH235889   5.286   2.161  15.000 -1.3739 -0.2889  0.2788
 4825TIP3    H135890   5.264   2.080  15.047 -0.0194 -0.2699  1.0033
 4825TIP3    H235891   5.213   2.220  15.019 -1.9867 -1.0646  0.4107
 4826TIP3   OH235892   4.909   1.614   5.595  0.7932 -0.0933  0.0324
 4826TIP3    H135893   4.844   1.548   5.620 -0.2767  0.8564 -0.1615
 4826TIP3    H235894   4.979   1.565   5.553  0.0962 -1.1222  0.0535
 4827TIP3   OH235895   1.480   2.809   3.177  0.3156  0.5937 -0.5747
 4827TIP3    H135896   1.479   2.730   3.231  0.3409  1.8238  1.3376
 4827TIP3    H235897   1.572   2.822   3.153  0.2825 -0.0406 -1.0724
 4828TIP3   OH235898   2.910   0.354  16.283 -0.0345 -0.5811  0.2984
 4828TIP3    H135899   2.846   0.290  16.252 -0.6409 -0.4387  1.2342
 4828TIP3    H235900   2.862   0.437  16.284  0.2728 -0.4065  0.6398
 4829TIP3   OH235901   1.322   5.455   5.011 -0.5598  0.3003 -0.3113
 4829TIP3    H135902   1.376   5.523   5.052 -1.0173  0.0789  0.6899
 4829TIP3    H235903   1.342   5.462   4.918  0.7714  0.5910 -0.0279
 4830TIP3   OH235904   4.591   5.197  12.380 -0.0966 -0.2906  0.0638
 4830TIP3    H135905   4.599   5.170  12.472 -0.0230  0.0058  0.1494
 4830TIP3    H235906   4.500   5.223  12.371  0.8595  4.8782  1.5969
 4831TIP3   OH235907   1.752   6.512  14.325  0.2026  0.2276 -0.2080
 4831TIP3    H135908   1.728   6.596  14.287 -0.1736  0.0539 -0.3655
 4831TIP3    H235909   1.844   6.521  14.349 -0.2308  1.2348  1.2390
 4832TIP3   OH235910   2.616   2.918   0.165 -0.0632 -0.1569  0.0444
 4832TIP3    H135911   2.704   2.894   0.134 -0.1985  1.4818 -1.7653
 4832TIP3    H235912   2.632   2.983   0.233  0.1707  1.3075 -1.3411
 4833TIP3   OH235913   3.475   3.120   3.307 -0.0516  0.4773 -0.3330
 4833TIP3    H135914   3.552   3.107   3.362 -0.5656  0.7251  0.4570
 4833TIP3    H235915   3.408   3.061   3.344 -1.0914  2.2286  0.7065
 4834TIP3   OH235916   3.514   5.792  13.748  0.1085 -0.9212 -0.3356
 4834TIP3    H135917   3.484   5.862  13.689 -0.7882  0.5674  1.7771
 4834TIP3    H235918   3.487   5.820  13.835  2.5724 -2.3468  1.0221
 4835TIP3   OH235919   5.205   2.180   4.632  0.2736  0.0229  0.1857
 4835TIP3    H135920   5.231   2.241   4.563 -1.0640  0.9046  0.4225
 4835TIP3    H235921   5.286   2.134   4.656  0.9423  0.3940 -1.2769
 4836TIP3   OH235922   5.785   3.285   2.220  0.2007 -0.2655 -0.1840
 4836TIP3    H135923   5.749   3.324   2.140 -0.3348  0.0346  0.2001
 4836TIP3    H235924   5.716   3.294   2.285  1.0217  0.4788  0.6217
 4837TIP3   OH235925   5.682   5.371   0.212  0.1990  0.2153 -0.3998
 4837TIP3    H135926   5.649   5.363   0.301  1.4573 -0.2747  0.0458
 4837TIP3    H235927   5.642   5.297   0.166  0.1759  0.0016 -0.0410
 4838TIP3   OH235928   4.475   6.670   6.254  0.3219  1.1079 -0.5036
 4838TIP3    H135929   4.457   6.667   6.348 -1.6331 -0.7028 -0.8532
 4838TIP3    H235930   4.401   6.719   6.217  0.0299  0.1515 -1.2463
 4839TIP3   OH235931   3.551   6.734   6.203 -0.4220  0.9754 -0.2605
 4839TIP3    H135932   3.637   6.735   6.245 -1.3427 -0.6742  1.8257
 4839TIP3    H235933   3.555   6.660   6.143 -0.5021  0.6611  0.1192
 4840TIP3   OH235934   4.022   3.525   2.069 -0.0065 -0.0384 -0.4343
 4840TIP3    H135935   4.070   3.476   2.001 -0.4538 -0.1824 -0.6458
 4840TIP3    H235936   4.074   3.605   2.081  0.5775 -0.4320 -0.2849
 4841TIP3   OH235937   3.140   0.850  11.956  0.1758 -0.0204 -0.3031
 4841TIP3    H135938   3.080   0.830  11.885 -0.7668 -1.4831  0.8408
 4841TIP3    H235939   3.213   0.790  11.944 -0.3422 -0.8047  0.3618
 4842TIP3   OH235940   3.716   4.549   0.319 -0.5692 -0.6221  0.5774
 4842TIP3    H135941   3.662   4.627   0.308  0.2139  0.0954  1.6453
 4842TIP3    H235942   3.801   4.582   0.349 -0.3234 -1.8896  1.3816
 4843TIP3   OH235943   3.250   3.314  11.426 -0.4598  0.3816 -0.1981
 4843TIP3    H135944   3.327   3.370  11.434 -0.1458  0.3586 -2.4031
 4843TIP3    H235945   3.259   3.273  11.340 -2.4536 -0.3787 -0.0971
 4844TIP3   OH235946   5.058   5.012   3.220 -0.4959  0.1448  0.7942
 4844TIP3    H135947   5.121   4.994   3.150 -1.8234 -1.8923  0.0215
 4844TIP3    H235948   5.029   5.102   3.205  0.3339  0.2390 -0.3621
 4845TIP3   OH235949   4.706   4.558  16.443 -0.0170 -0.3112  0.2156
 4845TIP3    H135950   4.755   4.539  16.363 -1.6007  1.4191 -1.2717
 4845TIP3    H235951   4.625   4.598  16.412  0.6557  3.5579  2.7422
 4846TIP3   OH235952   1.097   4.655  15.308 -0.6004 -0.4230  0.1265
 4846TIP3    H135953   1.042   4.718  15.354  1.0689  0.4837  0.9559
 4846TIP3    H235954   1.130   4.597  15.377  0.4214 -0.2082 -0.1596
 4847TIP3   OH235955   5.170   2.558  14.637  0.1381 -0.4577 -0.1483
 4847TIP3    H135956   5.148   2.560  14.544 -0.2203 -1.8117 -0.1191
 4847TIP3    H235957   5.265   2.554  14.639  0.1066 -2.4669 -0.5596
 4848TIP3   OH235958   1.670   5.842   1.706  0.3250 -0.1755 -0.8856
 4848TIP3    H135959   1.577   5.819   1.704  0.6092 -1.5260 -0.3291
 4848TIP3    H235960   1.687   5.865   1.798  0.5464  0.0511 -0.9812
 4849TIP3   OH235961   0.312   1.340  13.854 -0.4440  0.2636 -0.2188
 4849TIP3    H135962   0.377   1.394  13.899  0.3136 -0.9903  0.2527
 4849TIP3    H235963   0.276   1.397  13.786  0.3206  1.3460  0.2478
 4850TIP3   OH235964   1.342   2.618  13.078  0.1349 -0.2373  0.3871
 4850TIP3    H135965   1.355   2.708  13.109  1.5596  0.7795 -2.7080
 4850TIP3    H235966   1.271   2.625  13.014  0.6617 -1.1669 -0.3153
 4851TIP3   OH235967   1.537   0.133   0.982 -0.3996 -0.8397  0.1499
 4851TIP3    H135968   1.482   0.059   0.957  0.1813 -0.6820 -1.7032
 4851TIP3    H235969   1.625   0.107   0.955 -0.0498  0.1617  0.3129
 4852TIP3   OH235970   3.787   1.690  10.698 -0.1513 -0.0117 -0.3605
 4852TIP3    H135971   3.726   1.762  10.682 -1.1472 -0.6815  0.3692
 4852TIP3    H235972   3.754   1.617  10.646  1.6355  0.4190 -2.2034
 4853TIP3   OH235973   2.021   1.163   1.367  0.1340  0.2286  0.1185
 4853TIP3    H135974   2.067   1.128   1.443 -0.2483  0.5908  0.5166
 4853TIP3    H235975   2.076   1.234   1.336 -0.1362  0.6348  0.5695
 4854TIP3   OH235976   6.463   6.770  11.771  0.3891  0.2938 -0.6479
 4854TIP3    H135977   6.482   6.853  11.814 -0.2206  0.5252 -0.8199
 4854TIP3    H235978   6.466   6.791  11.677 -0.9188  0.3948 -0.6851
 4855TIP3   OH235979   4.889   2.312   5.297  0.6118  0.4689 -0.2450
 4855TIP3    H135980   4.838   2.253   5.352  1.2991  1.4045  1.4676
 4855TIP3    H235981   4.900   2.265   5.214 -1.1757 -0.6292  0.0903
 4856TIP3   OH235982   2.321   0.432  14.213  0.5390  0.0644  0.1044
 4856TIP3    H135983   2.309   0.493  14.285  1.9625 -0.0800  0.4921
 4856TIP3    H235984   2.352   0.351  14.254  1.2707 -0.0530 -0.6457
 4857TIP3   OH235985   1.665   2.179  16.820  0.1672 -0.1391 -0.3813
 4857TIP3    H135986   1.742   2.236  16.819 -0.4299  0.6778 -1.0116
 4857TIP3    H235987   1.643   2.167  16.728 -1.1008  0.5427 -0.1840
 4858TIP3   OH235988   0.612   1.928   1.151  0.5847 -0.0303  0.1975
 4858TIP3    H135989   0.519   1.947   1.160  0.3794 -1.7260  2.4621
 4858TIP3    H235990   0.639   1.898   1.238  3.3711  0.8368 -0.2795
 4859TIP3   OH235991   0.276   5.664  12.425 -0.6808  0.6935  0.2781
 4859TIP3    H135992   0.204   5.602  12.412  0.8005 -0.9038 -0.9147
 4859TIP3    H235993   0.340   5.615  12.477  1.1109  0.6470 -1.8134
 4860TIP3   OH235994   5.199   1.166   1.706 -0.2471 -0.5634  0.3247
 4860TIP3    H135995   5.222   1.259   1.700  0.6627 -0.6292  2.1025
 4860TIP3    H235996   5.125   1.155   1.646  0.2061  1.1017 -0.5924
 4861TIP3   OH235997   2.364   1.846  14.957 -0.1150 -0.4214 -0.0229
 4861TIP3    H135998   2.279   1.803  14.953 -0.1316 -0.5395  1.3087
 4861TIP3    H235999   2.426   1.775  14.972 -0.0481 -0.0964  1.3277
 4862TIP3   OH236000   2.939   5.225   2.860  0.0582 -0.7385  0.4889
 4862TIP3    H136001   2.972   5.217   2.771 -1.3653  1.1158 -0.2644
 4862TIP3    H236002   2.980   5.305   2.894  0.3667 -1.2686  1.4114
 4863TIP3   OH236003   1.992   6.657  15.119  0.0047 -0.4380  1.1516
 4863TIP3    H136004   1.971   6.687  15.207 -0.6916  0.5638  0.6560
 4863TIP3    H236005   2.007   6.737  15.069  0.0383 -0.9842  0.2648
 4864TIP3   OH236006   0.884   6.592   4.926  0.1049  0.0220  0.2033
 4864TIP3    H136007   0.839   6.674   4.903  0.1752  0.1512  0.5318
 4864TIP3    H236008   0.934   6.570   4.847 -2.6408 -1.5872 -1.2648
 4865TIP3   OH236009   0.417   1.987   3.315 -0.1319 -0.2374 -0.0013
 4865TIP3    H136010   0.409   1.903   3.359  0.8124  1.4591  3.7534
 4865TIP3    H236011   0.331   2.028   3.326 -0.2663 -0.2437 -0.9089
 4866TIP3   OH236012   5.812   4.581   3.042  0.4271  0.4065 -0.3169
 4866TIP3    H136013   5.842   4.631   2.966  2.4779 -0.0461  0.1209
 4866TIP3    H236014   5.851   4.626   3.117 -1.8503  1.0515  0.5525
 4867TIP3   OH236015   1.476   4.581   5.936  0.2806 -0.4292 -0.2773
 4867TIP3    H136016   1.385   4.607   5.953  0.0434 -1.7173  0.5215
 4867TIP3    H236017   1.528   4.657   5.961 -0.5639  0.2816 -0.6383
 4868TIP3   OH236018   1.969   5.219   2.885 -0.2094 -0.4657 -0.4479
 4868TIP3    H136019   1.900   5.284   2.900 -0.3404 -0.7282  0.0940
 4868TIP3    H236020   1.946   5.146   2.941  0.5235 -0.5479 -0.2462
 4869TIP3   OH236021   4.770   1.652   0.793  0.1503  0.3374  0.9056
 4869TIP3    H136022   4.800   1.563   0.776  0.2225  0.5350 -0.0269
 4869TIP3    H236023   4.683   1.641   0.832 -0.7622 -0.1144 -1.1241
 4870TIP3   OH236024   4.229   1.578   5.705  0.1290 -0.2278 -0.4105
 4870TIP3    H136025   4.249   1.488   5.677 -0.6058 -0.4222 -0.3536
 4870TIP3    H236026   4.137   1.574   5.732  0.9883 -0.2758  2.9791
 4871TIP3   OH236027   3.447   6.279  11.244  0.2204  0.3793 -0.5981
 4871TIP3    H136028   3.510   6.208  11.234  1.2039  1.3297 -1.4433
 4871TIP3    H236029   3.457   6.307  11.335  1.1037  0.5607 -0.7356
 4872TIP3   OH236030   3.349   5.531   1.074  0.0856 -0.0696  0.5561
 4872TIP3    H136031   3.267   5.497   1.110 -0.3196 -1.1080 -1.1857
 4872TIP3    H236032   3.350   5.623   1.098 -1.2722 -0.2015  1.1963
 4873TIP3   OH236033   5.313   2.630  15.014  0.0951  0.1427  0.5604
 4873TIP3    H136034   5.246   2.648  14.948 -0.8120 -1.6195  0.9369
 4873TIP3    H236035   5.348   2.544  14.991  0.5321 -0.0204  1.7394
 4874TIP3   OH236036   3.247   5.892   2.796  0.3039  0.4563 -0.0272
 4874TIP3    H136037   3.203   5.956   2.852  0.3163 -0.7413  1.4189
 4874TIP3    H236038   3.190   5.816   2.797  1.3282 -0.3318  0.0641
 4875TIP3   OH236039   0.764   0.252  14.546  0.1678 -0.3221  0.3880
 4875TIP3    H136040   0.821   0.298  14.484 -0.0185 -1.0273 -0.3214
 4875TIP3    H236041   0.749   0.316  14.616  1.1745  0.1529  0.1958
 4876TIP3   OH236042   0.406   3.311  15.620  0.1177  0.0813  0.4240
 4876TIP3    H136043   0.317   3.316  15.655 -0.9392  1.4387 -2.1482
 4876TIP3    H236044   0.403   3.240  15.556  0.2454  1.3192 -1.0438
 4877TIP3   OH236045   1.983   4.605   5.393  0.3979  0.0307 -0.1706
 4877TIP3    H136046   1.907   4.566   5.349 -0.5619  0.8380  0.6981
 4877TIP3    H236047   2.029   4.652   5.324  0.7350 -1.3654 -0.9297
 4878TIP3   OH236048   5.492   2.179   6.482 -0.0940  0.0358  0.3396
 4878TIP3    H136049   5.585   2.197   6.468 -0.0990 -1.1105 -1.3797
 4878TIP3    H236050   5.473   2.104   6.426 -2.2958  0.8737 -0.1302
 4879TIP3   OH236051   2.222   3.729   3.361 -0.1388  0.3364 -0.0777
 4879TIP3    H136052   2.234   3.658   3.298 -2.0235 -0.9700  0.9392
 4879TIP3    H236053   2.191   3.803   3.308 -0.4933 -0.3544 -0.8619
 4880TIP3   OH236054   3.992   3.171  16.432  0.0423  0.1782  0.0935
 4880TIP3    H136055   3.995   3.254  16.385 -1.4638  0.1417 -0.1115
 4880TIP3    H236056   4.058   3.117  16.389  0.3592  0.9450 -0.4000
 4881TIP3   OH236057   6.560   4.920  14.917  0.4275  0.5308  0.0730
 4881TIP3    H136058   6.568   4.961  14.830  0.8620  0.8226  0.2467
 4881TIP3    H236059   6.559   4.993  14.978 -0.4238  0.3467  0.2881
 4882TIP3   OH236060   3.144   2.445   1.671 -0.3557 -0.3427  0.4267
 4882TIP3    H136061   3.131   2.539   1.687 -1.6422 -0.2273 -1.0779
 4882TIP3    H236062   3.219   2.422   1.726  0.2001  1.6309  0.5806
 4883TIP3   OH236063   4.768   0.837   4.767  0.8377  0.3094 -0.0702
 4883TIP3    H136064   4.681   0.862   4.798  0.0493 -1.5353 -0.6624
 4883TIP3    H236065   4.824   0.848   4.844  0.0429  1.2644  0.3972
 4884TIP3   OH236066   0.192   3.474  12.535 -0.0571  0.9209  0.1507
 4884TIP3    H136067   0.167   3.470  12.442  0.4803 -1.0541  0.0547
 4884TIP3    H236068   0.288   3.476  12.534 -0.0572  1.3524  0.6606
 4885TIP3   OH236069   4.418   5.090  14.974 -0.4011  0.0530 -0.4048
 4885TIP3    H136070   4.476   5.073  15.048 -1.1874  2.7631  0.9723
 4885TIP3    H236071   4.409   5.005  14.931  2.8823 -0.9230  0.4946
 4886TIP3   OH236072   1.155   5.427   3.381  0.6127  0.1810  0.0499
 4886TIP3    H136073   1.201   5.491   3.325  0.6561 -0.2030 -0.3622
 4886TIP3    H236074   1.211   5.419   3.458  0.1312  1.3476  0.5471
 4887TIP3   OH236075   1.087   6.556   0.072  0.1575 -0.8554  0.1979
 4887TIP3    H136076   1.172   6.532   0.109 -0.2971 -1.3443  0.9688
 4887TIP3    H236077   1.047   6.472   0.049 -0.4277 -0.6819  0.5669
 4888TIP3   OH236078   5.485   0.223   5.173 -0.3091  0.2736 -0.7500
 4888TIP3    H136079   5.391   0.226   5.193 -0.3723 -1.0166 -0.7626
 4888TIP3    H236080   5.525   0.276   5.242 -0.9927  0.3364 -0.3886
 4889TIP3   OH236081   4.332   5.586  14.236  0.0700  0.0043 -0.9605
 4889TIP3    H136082   4.379   5.535  14.302  0.3723  2.2396  0.6680
 4889TIP3    H236083   4.397   5.604  14.168  0.6166  0.2431 -0.3772
 4890TIP3   OH236084   6.180   6.248  12.555  0.4175  0.0009  0.2935
 4890TIP3    H136085   6.245   6.212  12.495 -1.2735 -3.7920  0.4641
 4890TIP3    H236086   6.202   6.211  12.640 -0.7216  0.3793  0.7700
 4891TIP3   OH236087   5.567   2.907  11.737  0.4251 -0.2352 -0.3910
 4891TIP3    H136088   5.661   2.913  11.718  0.5579  0.8234  0.4847
 4891TIP3    H236089   5.562   2.912  11.833 -0.6316  2.0411 -0.4980
 4892TIP3   OH236090   0.309   6.530  17.293 -0.3487  0.6292 -0.0301
 4892TIP3    H136091   0.396   6.564  17.311  0.0805  0.2482 -1.3091
 4892TIP3    H236092   0.254   6.608  17.281 -0.2131  0.8679  0.7905
 4893TIP3   OH236093   2.476   4.572   7.009  0.5892 -0.1424  0.1496
 4893TIP3    H136094   2.535   4.555   6.936  2.1364 -1.3978  1.6144
 4893TIP3    H236095   2.414   4.637   6.975  1.7978 -0.0006 -1.9618
 4894TIP3   OH236096   2.012   5.932   2.909 -0.3672 -0.2515  0.3908
 4894TIP3    H136097   2.090   5.885   2.878 -1.1995 -0.9865 -0.6695
 4894TIP3    H236098   1.939   5.874   2.888 -1.2793  0.7660  0.6531
 4895TIP3   OH236099   2.666   5.316  11.859  0.1766  0.4128  0.0375
 4895TIP3    H136100   2.607   5.247  11.891 -0.4148  0.4223 -0.9903
 4895TIP3    H236101   2.609   5.392  11.845  0.5278  0.5915 -0.4576
 4896TIP3   OH236102   1.968   3.185  15.282  0.2959 -0.4529 -0.0943
 4896TIP3    H136103   1.937   3.116  15.225 -0.6966  0.1791 -0.3364
 4896TIP3    H236104   2.017   3.244  15.224 -0.8610  0.2830 -0.3617
 4897TIP3   OH236105   1.725   2.719   0.497 -0.1536 -0.1558  0.1842
 4897TIP3    H136106   1.726   2.815   0.496 -2.0219 -0.0810 -1.7490
 4897TIP3    H236107   1.639   2.696   0.461  1.0202 -2.5642 -1.2988
 4898TIP3   OH236108   2.400   4.503  15.104  0.3747  0.4046  0.6860
 4898TIP3    H136109   2.326   4.443  15.117 -1.2810  2.2707  0.2879
 4898TIP3    H236110   2.476   4.455  15.139 -1.2831 -0.9157  2.6844
 4899TIP3   OH236111   0.990   1.531   5.730  0.1339 -0.3741 -0.3164
 4899TIP3    H136112   1.044   1.582   5.790 -1.4315  0.5537  0.3726
 4899TIP3    H236113   1.050   1.501   5.662  1.9581 -1.3625  1.6325
 4900TIP3   OH236114   5.141   4.131  11.841 -0.1781 -0.0729  0.2411
 4900TIP3    H136115   5.125   4.177  11.924 -1.9950 -0.5709  0.2152
 4900TIP3    H236116   5.056   4.131  11.797  0.6477 -0.1985 -1.4506
 4901TIP3   OH236117   1.946   2.382   5.102  0.0961  0.0378  0.3162
 4901TIP3    H136118   1.858   2.350   5.119  0.4169 -0.1224  1.9086
 4901TIP3    H236119   1.959   2.452   5.167  1.7588 -1.1653  1.3761
 4902TIP3   OH236120   0.045   0.164   1.066 -0.0297 -0.1388 -0.4835
 4902TIP3    H136121   0.069   0.154   1.158  0.0386 -0.8549 -0.5781
 4902TIP3    H236122  -0.049   0.143   1.064  0.0281 -0.3825 -0.6211
 4903TIP3   OH236123   4.626   6.124  16.215  0.2494 -0.4999 -0.3613
 4903TIP3    H136124   4.573   6.052  16.248 -0.9866  0.4465 -0.1651
 4903TIP3    H236125   4.714   6.107  16.247 -0.9152  0.7349  4.3156
 4904TIP3   OH236126   2.834   1.879  11.395 -0.5790  0.0459  0.2678
 4904TIP3    H136127   2.860   1.799  11.350  1.6326 -0.4707  2.2751
 4904TIP3    H236128   2.875   1.949  11.344 -0.8776 -0.2418 -0.3806
 4905TIP3   OH236129   6.347   5.173   0.504 -0.0148 -0.1031  0.3883
 4905TIP3    H136130   6.427   5.149   0.551 -0.0620  1.2849  1.2270
 4905TIP3    H236131   6.377   5.194   0.416  0.3166 -1.0664  0.2549
 4906TIP3   OH236132   2.875   3.716  11.693 -0.0733  0.0739  0.1651
 4906TIP3    H136133   2.967   3.690  11.686 -0.0690 -0.1571  0.9998
 4906TIP3    H236134   2.828   3.635  11.711 -0.2851  0.3630  0.9384
 4907TIP3   OH236135   6.155   0.188  15.918  0.2121 -0.2817 -0.6738
 4907TIP3    H136136   6.128   0.253  15.983  0.3372 -1.1377  0.2725
 4907TIP3    H236137   6.079   0.179  15.861 -0.1580  0.0082 -0.2407
 4908TIP3   OH236138   2.814   0.456   1.196 -0.2714 -0.4380  0.2589
 4908TIP3    H136139   2.754   0.402   1.143  0.3426  0.0713 -0.9972
 4908TIP3    H236140   2.762   0.532   1.221 -0.0362  0.2682 -1.2828
 4909TIP3   OH236141   5.832   6.633  11.303  0.4072  0.0913 -0.0344
 4909TIP3    H136142   5.775   6.693  11.256  0.0898  0.7543  1.1381
 4909TIP3    H236143   5.773   6.581  11.358  0.8362  0.0110  0.3576
 4910TIP3   OH236144   3.249   0.492   1.412  0.0727 -0.1201 -0.3091
 4910TIP3    H136145   3.168   0.455   1.377 -0.1971  1.0048 -0.9122
 4910TIP3    H236146   3.226   0.521   1.500 -0.2016  0.2485 -0.4998
 4911TIP3   OH236147   6.358   5.631  15.649  0.3727 -0.0428  0.6435
 4911TIP3    H136148   6.306   5.552  15.636  0.7548  0.0045 -1.4456
 4911TIP3    H236149   6.320   5.672  15.727 -0.5696 -1.6779  1.0878
 4912TIP3   OH236150   4.920   3.728  10.999 -0.0819  0.0500 -0.0124
 4912TIP3    H136151   4.883   3.640  10.985  0.8564 -0.0623 -2.2418
 4912TIP3    H236152   4.844   3.786  10.996 -0.6678 -0.6265  1.0187
 4913TIP3   OH236153   1.962   2.388  13.382 -0.0602  0.2046 -0.0535
 4913TIP3    H136154   1.902   2.399  13.307  0.9371  1.5426 -0.7034
 4913TIP3    H236155   2.046   2.419  13.349  0.6760 -0.3358  1.2770
 4914TIP3   OH236156   6.241   0.596  12.595  0.5086 -0.1514 -0.1989
 4914TIP3    H136157   6.312   0.541  12.628 -0.0907 -0.6692  0.2416
 4914TIP3    H236158   6.161   0.549  12.618  0.0324  0.1917 -1.1214
 4915TIP3   OH236159   6.621   4.062  11.026 -0.3485 -0.1171  0.2999
 4915TIP3    H136160   6.570   4.127  10.978 -2.8233 -0.6930  1.9457
 4915TIP3    H236161   6.625   3.986  10.969 -2.9267 -0.6663  0.7533
 4916TIP3   OH236162   6.296   4.785   4.805  0.0760  0.1861 -0.2599
 4916TIP3    H136163   6.293   4.694   4.775  1.6404  0.1904 -0.5079
 4916TIP3    H236164   6.228   4.829   4.753 -0.5215 -0.7760 -0.3231
 4917TIP3   OH236165   0.463   1.169   0.532  0.5718  0.2647  0.0536
 4917TIP3    H136166   0.387   1.207   0.487 -0.1294 -3.2450 -2.1322
 4917TIP3    H236167   0.537   1.188   0.473  0.6080  0.1359  0.0569
 4918TIP3   OH236168   4.437   3.951   6.048 -0.4478 -0.2800 -0.1602
 4918TIP3    H136169   4.347   3.961   6.078 -0.3150  0.4642 -0.0045
 4918TIP3    H236170   4.468   3.871   6.091 -0.8689 -0.2667  0.1722
 4919TIP3   OH236171   3.845   4.488   1.141  0.1428 -0.1560 -0.1790
 4919TIP3    H136172   3.831   4.582   1.134  1.2318 -0.0860 -4.0345
 4919TIP3    H236173   3.935   4.480   1.174  0.0341  0.1566  0.1938
 4920TIP3   OH236174   4.029   2.086  17.296 -0.1677  0.3668 -0.1084
 4920TIP3    H136175   3.995   2.074  17.384 -1.3083 -1.3931 -0.7279
 4920TIP3    H236176   4.035   1.997  17.260  1.5818  0.9291 -1.3488
 4921TIP3   OH236177   1.437   1.678   1.248 -1.0389  0.2198 -0.0810
 4921TIP3    H136178   1.464   1.647   1.161  0.0117 -2.1285  0.9971
 4921TIP3    H236179   1.480   1.618   1.309 -0.2110  2.9314  2.1881
 4922TIP3   OH236180   2.290   2.127   0.056 -0.4229 -0.7546  0.5548
 4922TIP3    H136181   2.309   2.047   0.106 -0.0136 -1.8017 -1.1767
 4922TIP3    H236182   2.319   2.107  -0.033  0.2196  1.5596  0.1774
 4923TIP3   OH236183   3.355   1.108  12.487 -0.3237 -0.1962 -0.3401
 4923TIP3    H136184   3.308   1.025  12.486  0.4649 -0.6848  0.8178
 4923TIP3    H236185   3.443   1.086  12.457 -0.0499  0.1818  0.1841
 4924TIP3   OH236186   2.285   0.448  12.752  0.4728 -0.3349 -0.1984
 4924TIP3    H136187   2.244   0.481  12.832  1.7553  0.0558  0.3272
 4924TIP3    H236188   2.213   0.434  12.692 -0.4377  0.1934  0.7407
 4925TIP3   OH236189   0.376   4.019  11.302 -0.1809  0.4245 -0.3583
 4925TIP3    H136190   0.428   4.098  11.315 -1.6791  1.3848 -0.0146
 4925TIP3    H236191   0.361   3.985  11.390  1.8966 -1.2685 -0.5736
 4926TIP3   OH236192   0.287   0.217  16.051 -0.3802 -0.2613  0.6363
 4926TIP3    H136193   0.199   0.198  16.082 -0.3412 -2.5160 -0.4310
 4926TIP3    H236194   0.339   0.228  16.131 -1.6240  1.2708  1.2712
 4927TIP3   OH236195   2.969   2.925   5.743 -0.7228 -0.0542 -0.2783
 4927TIP3    H136196   2.926   2.898   5.662 -1.2219 -0.0933 -0.0081
 4927TIP3    H236197   2.897   2.932   5.806 -0.3055 -0.2628  0.2224
 4928TIP3   OH236198   3.498   2.438   1.245 -0.0326  0.0283 -0.5408
 4928TIP3    H136199   3.515   2.526   1.211 -3.5529  1.5948  1.1932
 4928TIP3    H236200   3.464   2.389   1.169 -1.4682  1.3827 -0.8341
 4929TIP3   OH236201   2.795   4.144  11.458  0.3761  0.2626 -0.4864
 4929TIP3    H136202   2.788   4.112  11.548  2.5201  1.3051  0.1240
 4929TIP3    H236203   2.756   4.075  11.405 -2.4539  0.3225  1.2858
 4930TIP3   OH236204   4.878   4.167  11.741  0.2376 -0.3683 -0.0303
 4930TIP3    H136205   4.884   4.072  11.742  2.9884 -0.5133 -4.1036
 4930TIP3    H236206   4.816   4.186  11.670 -0.1389  0.9022  0.6064
 4931TIP3   OH236207   6.098   6.278   4.408  0.4543 -0.5524 -0.3214
 4931TIP3    H136208   6.114   6.238   4.322  0.1714 -1.4237  0.0182
 4931TIP3    H236209   6.002   6.275   4.418  0.2964  1.4035 -0.8338
 4932TIP3   OH236210   1.843   0.938  11.404 -0.3251 -0.4904  0.1400
 4932TIP3    H136211   1.811   1.028  11.400  1.3384  0.0805 -1.4108
 4932TIP3    H236212   1.812   0.898  11.323  0.1567 -0.8750  0.1447
 4933TIP3   OH236213   0.609   3.124   2.770 -0.2416  0.5359 -0.3394
 4933TIP3    H136214   0.628   3.162   2.684  1.8673  0.4163  0.0332
 4933TIP3    H236215   0.596   3.199   2.827 -0.6672  0.6213 -0.5400
 4934TIP3   OH236216   4.866   2.914  15.912  0.0493 -0.3295 -0.3398
 4934TIP3    H136217   4.885   2.820  15.921 -2.0846 -0.6977  1.1700
 4934TIP3    H236218   4.873   2.948  16.002 -0.8530  0.5888 -0.5980
 4935TIP3   OH236219   0.138   2.250  10.984  0.3394  0.5445 -0.0079
 4935TIP3    H136220   0.191   2.178  10.949 -0.8340 -0.2895 -0.1096
 4935TIP3    H236221   0.137   2.314  10.913  1.9579  0.9995  0.3290
 4936TIP3   OH236222   0.967   3.722   0.151  0.0562  0.2978  0.2241
 4936TIP3    H136223   0.941   3.692   0.064 -0.0777 -0.0036  0.3669
 4936TIP3    H236224   0.968   3.817   0.144  3.2730  0.2986 -1.0688
 4937TIP3   OH236225   0.337   6.139   0.450 -0.4062  0.1153  0.3776
 4937TIP3    H136226   0.394   6.204   0.493  0.8587 -0.8199  0.1887
 4937TIP3    H236227   0.268   6.121   0.513  0.1714  0.4187  1.1034
 4938TIP3   OH236228   1.389   3.635   1.224  0.0576 -0.2866  0.4400
 4938TIP3    H136229   1.387   3.579   1.146  1.5484 -0.0384  0.1955
 4938TIP3    H236230   1.387   3.573   1.297 -0.3637 -0.5674  0.1938
 4939TIP3   OH236231   4.996   4.795   3.750 -0.2676  0.5362  0.4951
 4939TIP3    H136232   4.950   4.874   3.779  1.0133  1.5255 -0.0348
 4939TIP3    H236233   5.076   4.829   3.709 -0.0501 -1.0133 -0.4173
 4940TIP3   OH236234   0.698   0.316   5.046  0.4210 -0.0521 -0.0786
 4940TIP3    H136235   0.674   0.360   4.964  0.8633 -0.9025 -0.6845
 4940TIP3    H236236   0.654   0.367   5.114  0.4542  0.9770 -0.7944
 4941TIP3   OH236237   6.507   6.638   5.758 -0.0991 -0.4162 -0.0770
 4941TIP3    H136238   6.498   6.543   5.769  2.1402 -0.6589  0.0590
 4941TIP3    H236239   6.547   6.649   5.672  0.8738  0.3176  0.4528
 4942TIP3   OH236240   0.287   3.355  16.054 -0.2504  0.3585 -0.2070
 4942TIP3    H136241   0.377   3.323  16.066 -0.3530  0.0543 -0.2409
 4942TIP3    H236242   0.297   3.432  15.997  0.2450  1.8796  1.8297
 4943TIP3   OH236243   5.026   1.527   3.997  0.3695 -0.3315 -0.5799
 4943TIP3    H136244   5.037   1.450   4.053  0.8505  1.6116  2.2002
 4943TIP3    H236245   5.115   1.552   3.972  0.3486  0.2714 -0.0681
 4944TIP3   OH236246   2.871   1.862   2.302  0.3176  0.0559 -0.0131
 4944TIP3    H136247   2.909   1.799   2.241  1.1899 -1.1166  1.6669
 4944TIP3    H236248   2.779   1.839   2.307  0.7915 -1.7661  1.2798
 4945TIP3   OH236249   6.227   0.551   0.630 -0.1016  0.1897  0.4058
 4945TIP3    H136250   6.222   0.632   0.682 -1.1232  0.1578  0.3776
 4945TIP3    H236251   6.295   0.569   0.566  3.4613 -0.8356  3.5454
 4946TIP3   OH236252   6.072   3.429   2.984  0.5144  0.0906  0.0210
 4946TIP3    H136253   6.114   3.514   2.976 -0.4994  0.7547  1.2611
 4946TIP3    H236254   6.140   3.371   3.018  0.5655  1.0813  1.7717
 4947TIP3   OH236255   4.945   1.084   0.065  0.2683 -0.3069  0.3765
 4947TIP3    H136256   4.999   1.159   0.039 -0.1229  0.5576  1.9572
 4947TIP3    H236257   4.972   1.013   0.006  2.9226  0.1706  0.9268
 4948TIP3   OH236258   1.110   5.110   1.570  0.5621 -0.2385  0.1799
 4948TIP3    H136259   1.140   5.072   1.487 -1.3915  2.3544 -1.8909
 4948TIP3    H236260   1.191   5.121   1.621  2.0933 -0.5494 -2.0154
 4949TIP3   OH236261   0.569   6.375  17.251  0.1138 -0.0787 -0.5507
 4949TIP3    H136262   0.509   6.301  17.239 -1.2263  0.6979  0.8793
 4949TIP3    H236263   0.581   6.380  17.345 -0.0810  1.7029 -0.5963
 4950TIP3   OH236264   4.873   4.911  16.373  0.6816  0.4727 -0.3513
 4950TIP3    H136265   4.786   4.904  16.412  1.2508  0.1452  0.9111
 4950TIP3    H236266   4.861   4.968  16.298 -0.5799  0.6284 -0.0552
 4951TIP3   OH236267   3.146   3.898   6.888 -0.0368 -0.3546  0.1680
 4951TIP3    H136268   3.189   3.815   6.909  0.6981 -0.0808 -0.2422
 4951TIP3    H236269   3.095   3.879   6.809  0.2328 -0.3789  0.0008
 4952TIP3   OH236270   2.690   6.616   6.076  0.1253  0.0152  0.3935
 4952TIP3    H136271   2.706   6.522   6.065 -0.0216  0.1587 -1.2421
 4952TIP3    H236272   2.621   6.636   6.013  0.9559  1.4366 -0.1135
 4953TIP3   OH236273   5.675   3.227  16.103 -0.2563 -0.5668  0.7137
 4953TIP3    H136274   5.641   3.151  16.056  0.5539 -0.6882  0.3063
 4953TIP3    H236275   5.726   3.190  16.175 -0.6300 -0.3918  1.0748
 4954TIP3   OH236276   1.853   1.016   1.085 -0.3463  0.5682 -0.5179
 4954TIP3    H136277   1.905   1.024   1.165  0.5822 -0.1430 -1.0341
 4954TIP3    H236278   1.777   1.072   1.100 -2.3575 -2.5608  2.5577
 4955TIP3   OH236279   2.001   0.575   1.903 -0.1286  0.0710 -0.5193
 4955TIP3    H136280   2.001   0.668   1.882  1.8632 -0.1655 -1.8607
 4955TIP3    H236281   1.970   0.570   1.993 -2.0777  1.8353 -1.0305
 4956TIP3   OH236282   0.789   5.274  13.788  0.6312 -0.0160 -0.2909
 4956TIP3    H136283   0.746   5.213  13.848 -0.1786 -0.4847 -1.3185
 4956TIP3    H236284   0.782   5.359  13.832  1.1795 -0.5349  0.8502
 4957TIP3   OH236285   1.733   3.987   3.907 -0.0405 -0.3824  0.0174
 4957TIP3    H136286   1.659   3.975   3.848  0.6522 -4.3449 -0.3749
 4957TIP3    H236287   1.808   3.949   3.859  1.6076  0.7768  1.5438
 4958TIP3   OH236288   5.679   2.947  16.943 -0.2535  0.0893  0.0969
 4958TIP3    H136289   5.738   2.966  17.016  0.3045  2.3371 -0.8581
 4958TIP3    H236290   5.703   2.859  16.915  0.6636 -0.1531  1.5382
 4959TIP3   OH236291   3.166   4.878   5.655 -0.1015  0.2461  0.1733
 4959TIP3    H136292   3.071   4.891   5.652 -0.5106 -2.4426 -0.9909
 4959TIP3    H236293   3.178   4.786   5.675  2.2151  0.0504 -1.6058
 4960TIP3   OH236294   4.055   3.363  11.313  0.1590  0.0297 -0.1218
 4960TIP3    H136295   4.114   3.382  11.240  1.2081  0.5902  0.8401
 4960TIP3    H236296   4.061   3.268  11.324 -1.6868 -0.3912 -2.1095
 4961TIP3   OH236297   5.078   5.263  14.161  0.0766 -0.7363  0.3441
 4961TIP3    H136298   5.105   5.345  14.201  1.1687 -0.0011 -1.7322
 4961TIP3    H236299   4.990   5.247  14.193 -0.0344  1.0776  1.0187
 4962TIP3   OH236300   1.682   5.943   0.164 -0.5024  0.1767  0.3220
 4962TIP3    H136301   1.626   5.980   0.232  0.3616  2.0014  0.1041
 4962TIP3    H236302   1.770   5.975   0.185  0.3215 -1.8612  0.1305
 4963TIP3   OH236303   2.865   5.907  15.085 -0.3021  0.2057  0.0801
 4963TIP3    H136304   2.797   5.915  15.151 -0.7897 -0.5658 -0.3204
 4963TIP3    H236305   2.937   5.861  15.129 -0.4656  0.0538  0.1865
 4964TIP3   OH236306   2.395   5.984   5.179 -0.5347 -0.3884  0.1299
 4964TIP3    H136307   2.443   6.065   5.160  0.8916 -1.4776 -1.1221
 4964TIP3    H236308   2.402   5.974   5.274 -0.1492  0.5974  0.2238
 4965TIP3   OH236309   4.020   3.082   3.500 -0.0525  0.7078  0.2473
 4965TIP3    H136310   4.104   3.128   3.492  1.1858 -1.0018  2.2991
 4965TIP3    H236311   4.043   2.998   3.540 -2.5260 -0.6493 -0.9858
 4966TIP3   OH236312   5.072   3.463   5.484 -0.1805 -0.1551  0.4639
 4966TIP3    H136313   5.012   3.472   5.558 -2.6114  1.2238 -1.5152
 4966TIP3    H236314   5.094   3.553   5.460  0.2385 -0.5639 -0.7311
 4967TIP3   OH236315   6.193   5.042  11.329 -0.8887 -0.5399  0.7254
 4967TIP3    H136316   6.276   5.079  11.299 -0.4996  0.7684  3.1733
 4967TIP3    H236317   6.217   4.979  11.397 -1.8738  0.8519  2.4610
 4968TIP3   OH236318   1.820   4.293  17.140 -0.0638  0.1580  0.9477
 4968TIP3    H136319   1.811   4.203  17.172 -1.1317  0.0835  0.4665
 4968TIP3    H236320   1.732   4.319  17.114  0.5864  0.5479 -1.0759
 4969TIP3   OH236321   1.195   3.947  12.027 -0.2414  0.1236  0.2381
 4969TIP3    H136322   1.268   3.886  12.014  0.7404  1.5455 -1.4706
 4969TIP3    H236323   1.234   4.021  12.072 -1.1424  0.0414  1.1864
 4970TIP3   OH236324   1.731   3.463  17.131  0.0129  0.3541  0.3301
 4970TIP3    H136325   1.676   3.423  17.198 -1.2468  1.6782  0.1369
 4970TIP3    H236326   1.669   3.491  17.063  1.2909 -1.5248 -1.7378
 4971TIP3   OH236327   5.247   0.398   0.398  0.4336 -0.8929 -0.4763
 4971TIP3    H136328   5.302   0.365   0.327  0.5830 -0.3273 -0.6278
 4971TIP3    H236329   5.302   0.393   0.476 -0.3489 -3.3203 -0.0086
 4972TIP3   OH236330   5.271   2.539   4.066 -0.2962  0.2309 -0.0865
 4972TIP3    H136331   5.301   2.480   4.134  0.1469  0.4036 -0.1293
 4972TIP3    H236332   5.226   2.483   4.003 -0.9822  0.1064  0.4912
 4973TIP3   OH236333   4.291   6.230   0.861 -0.1339  0.0975  0.5768
 4973TIP3    H136334   4.206   6.263   0.832  0.0901  1.4246  1.3394
 4973TIP3    H236335   4.270   6.161   0.924 -0.6449  0.4187  0.7573
 4974TIP3   OH236336   0.121   1.249  15.325  0.0270 -0.6741 -0.5307
 4974TIP3    H136337   0.149   1.177  15.381 -2.0414  0.5650  2.3406
 4974TIP3    H236338   0.026   1.235  15.315 -0.4415  1.6825  0.2082
 4975TIP3   OH236339   2.348   1.075  12.537 -0.4747 -0.2130 -0.0056
 4975TIP3    H136340   2.399   0.997  12.558 -0.1537  0.0294  0.1220
 4975TIP3    H236341   2.340   1.122  12.620  2.6127  1.8339 -0.6907
 4976TIP3   OH236342   0.979   3.671   0.426 -0.2383 -0.2427  0.8964
 4976TIP3    H136343   0.986   3.657   0.332 -1.1165  1.0475  0.6197
 4976TIP3    H236344   0.941   3.758   0.435 -1.1591 -0.7573  2.4276
 4977TIP3   OH236345   5.557   2.183  14.999 -0.0461  0.2843 -0.2422
 4977TIP3    H136346   5.555   2.092  14.970 -1.0082  0.4321 -0.7020
 4977TIP3    H236347   5.464   2.208  15.005  0.1474  0.6413  1.8274
 4978TIP3   OH236348   3.180   0.026  14.906 -0.3254  0.5788  0.6329
 4978TIP3    H136349   3.246  -0.001  14.842  0.5682  2.4354  0.6776
 4978TIP3    H236350   3.139  -0.055  14.935  0.7710 -0.4882 -0.6634
 4979TIP3   OH236351   3.178   0.033  13.281 -0.3306 -0.0912 -0.2311
 4979TIP3    H136352   3.228  -0.040  13.320 -2.6055 -0.9277  1.3519
 4979TIP3    H236353   3.142   0.080  13.356 -2.0919  0.3089 -1.2667
 4980TIP3   OH236354   6.351   4.561   0.973  0.2064  0.7197 -0.3391
 4980TIP3    H136355   6.437   4.594   0.946  0.2563  0.7597 -0.1318
 4980TIP3    H236356   6.290   4.627   0.941  0.0564 -0.2357 -2.2152
 4981TIP3   OH236357   2.361   0.629  11.728  0.1924 -0.0287  0.0965
 4981TIP3    H136358   2.438   0.577  11.749  0.9228  1.2472  0.6940
 4981TIP3    H236359   2.384   0.718  11.754 -2.3228  0.0485  2.5675
 4982TIP3   OH236360   5.759   3.357  16.577  0.5152  0.3124  0.4334
 4982TIP3    H136361   5.796   3.274  16.545  2.0289  1.2247 -0.2896
 4982TIP3    H236362   5.679   3.368  16.526  0.8054 -0.2352 -0.1650
 4983TIP3   OH236363   1.899   5.882   3.637  0.0937  0.0956  0.2732
 4983TIP3    H136364   1.934   5.794   3.629 -0.0651  0.1754 -1.8480
 4983TIP3    H236365   1.967   5.939   3.601 -0.8484  0.5478 -0.8775
 4984TIP3   OH236366   1.348   6.198   4.591  0.1791 -0.2486  0.4656
 4984TIP3    H136367   1.392   6.136   4.650  0.6180 -0.1944  0.2045
 4984TIP3    H236368   1.414   6.217   4.524 -0.3158 -0.3267 -0.0531
 4985TIP3   OH236369   2.352   4.297   0.212  0.0051 -0.3406 -0.2377
 4985TIP3    H136370   2.425   4.318   0.270  0.1723  1.8211 -1.1503
 4985TIP3    H236371   2.274   4.314   0.265  0.1655  0.5947 -0.2845
 4986TIP3   OH236372   4.729   3.194   3.678 -0.2802 -0.2168  1.2137
 4986TIP3    H136373   4.638   3.220   3.668 -0.2159 -0.3566  0.1431
 4986TIP3    H236374   4.773   3.228   3.600  0.2298 -1.6542  0.8482
 4987TIP3   OH236375   1.414   2.949   5.555  0.2088 -0.1092  0.4689
 4987TIP3    H136376   1.336   2.963   5.609  0.3787  1.1722  0.4082
 4987TIP3    H236377   1.426   3.032   5.509  0.6442 -0.8476 -0.7873
 4988TIP3   OH236378   1.054   4.154  15.082 -0.4559 -0.2906 -0.2310
 4988TIP3    H136379   1.011   4.116  15.158  2.8557  1.0203  2.6021
 4988TIP3    H236380   1.129   4.097  15.066 -0.8584 -0.3101 -2.3616
 4989TIP3   OH236381   5.867   6.190  11.777 -0.0872 -0.0691  0.3724
 4989TIP3    H136382   5.793   6.217  11.723 -0.4057 -0.7856  0.4377
 4989TIP3    H236383   5.879   6.262  11.839 -1.4322 -0.3850  1.0625
 4990TIP3   OH236384   3.504   1.783  15.414  0.3087 -0.9333 -0.0734
 4990TIP3    H136385   3.599   1.794  15.428  0.7330 -2.8649 -1.0366
 4990TIP3    H236386   3.481   1.709  15.471 -0.6503 -0.4323  0.1997
 4991TIP3   OH236387   5.213   0.870  14.413 -0.3132 -0.1842 -0.4088
 4991TIP3    H136388   5.152   0.848  14.483  0.7394  1.3254  1.0589
 4991TIP3    H236389   5.163   0.927  14.354 -0.6596  0.0672  0.1257
 4992TIP3   OH236390   2.521   3.199   4.586  0.2276 -1.1760 -0.0501
 4992TIP3    H136391   2.516   3.193   4.491  0.0142  0.4729 -0.1875
 4992TIP3    H236392   2.594   3.258   4.603 -0.2530 -0.7882  0.7621
 4993TIP3   OH236393   5.160   2.141  11.904  0.0018 -0.0221 -0.1912
 4993TIP3    H136394   5.112   2.059  11.915 -1.9439  1.2373  1.2284
 4993TIP3    H236395   5.227   2.138  11.972  1.0518 -1.1145 -1.2142
 4994TIP3   OH236396   0.126   6.246   1.309 -0.1772 -0.0204  0.3826
 4994TIP3    H136397   0.143   6.195   1.389  0.9078 -0.6223 -0.2026
 4994TIP3    H236398   0.212   6.283   1.286 -0.8716  1.8008  0.5836
 4995TIP3   OH236399   5.385   2.183   5.924  0.3531 -0.1674  0.3720
 4995TIP3    H136400   5.460   2.235   5.896 -0.5796  1.0428  0.0532
 4995TIP3    H236401   5.347   2.151   5.842 -0.6759  0.9624  0.3791
 4996TIP3   OH236402   3.103   0.914   2.192  0.4145 -0.4195 -0.0577
 4996TIP3    H136403   3.056   0.831   2.191 -1.8270  0.7459 -1.0994
 4996TIP3    H236404   3.036   0.979   2.216  2.0092  1.1219  0.4716
 4997TIP3   OH236405   5.288   6.445   4.108 -0.2454  0.2879 -0.1941
 4997TIP3    H136406   5.359   6.479   4.162 -0.3859  0.1894  0.0529
 4997TIP3    H236407   5.230   6.520   4.094  0.7231  0.7992 -1.7506
 4998TIP3   OH236408   2.244   6.553  16.828 -0.3370 -0.3509 -0.1822
 4998TIP3    H136409   2.331   6.518  16.849 -0.5302 -0.0456  1.2733
 4998TIP3    H236410   2.189   6.524  16.901 -1.2387  0.2625 -0.6062
 4999TIP3   OH236411   4.783   5.392   0.977 -0.3624 -0.0520  0.6488
 4999TIP3    H136412   4.836   5.383   1.056  1.2976 -0.6156 -0.4792
 4999TIP3    H236413   4.729   5.313   0.974  1.3609 -1.2472 -0.0307
 5000TIP3   OH236414   0.820   1.425   2.775  0.4928  0.3853  0.0356
 5000TIP3    H136415   0.794   1.517   2.769 -0.8262 -0.0042 -0.5065
 5000TIP3    H236416   0.760   1.388   2.840  0.9950 -0.1070  0.2236
 5001TIP3   OH236417   4.602   4.334   3.624  0.1806  0.0359  0.0902
 5001TIP3    H136418   4.577   4.250   3.663 -1.0731 -0.6510 -2.0036
 5001TIP3    H236419   4.689   4.318   3.587 -0.2203 -0.4961 -0.6523
 5002TIP3   OH236420   4.492   1.401   5.472  0.1459 -0.1732 -0.1299
 5002TIP3    H136421   4.534   1.434   5.552 -1.5417  1.7635  0.0371
 5002TIP3    H236422   4.415   1.457   5.461  0.6643  0.0510 -3.4690
 5003TIP3   OH236423   4.799   3.175   2.517  0.1276  0.5307  0.1136
 5003TIP3    H136424   4.703   3.168   2.519  0.2141 -0.8811  0.8810
 5003TIP3    H236425   4.818   3.217   2.433 -1.0618 -1.4457 -1.2326
 5004TIP3   OH236426   3.431   1.680   4.712  0.1184  0.5284  0.5418
 5004TIP3    H136427   3.366   1.729   4.763  0.1506  1.4895 -0.3032
 5004TIP3    H236428   3.379   1.632   4.647  0.1327 -0.0816  0.9781
 5005TIP3   OH236429   3.726   3.133   2.505  0.0992  0.2376 -0.3426
 5005TIP3    H136430   3.775   3.214   2.517 -1.7309  1.4223 -0.5894
 5005TIP3    H236431   3.788   3.064   2.531  2.9660  1.3491 -3.4887
 5006TIP3   OH236432   2.655   4.317   3.974  0.0658 -0.2405  0.0356
 5006TIP3    H136433   2.637   4.306   4.067  0.0855  3.7036  0.6787
 5006TIP3    H236434   2.569   4.324   3.933  0.0706 -1.0121 -0.1248
 5007TIP3   OH236435   6.396   6.549  17.153  0.1177 -0.2745 -0.2389
 5007TIP3    H136436   6.364   6.488  17.219 -1.4099 -0.3002 -0.9711
 5007TIP3    H236437   6.437   6.619  17.204  1.2471 -1.5090  0.6321
 5008TIP3   OH236438   0.487   3.182  14.754 -0.0750 -1.4025  0.7464
 5008TIP3    H136439   0.439   3.127  14.693  2.5435 -1.1955 -1.7040
 5008TIP3    H236440   0.526   3.121  14.817 -0.9713 -1.8310  0.9021
 5009TIP3   OH236441   3.407   6.158   2.037 -0.2279 -0.4223  0.6064
 5009TIP3    H136442   3.375   6.215   2.107 -0.2490  1.1876 -0.6528
 5009TIP3    H236443   3.428   6.217   1.965  2.9591 -1.6509  0.3427
 5010TIP3   OH236444   5.061   1.176   5.504 -0.3283 -0.0437 -0.0709
 5010TIP3    H136445   5.011   1.191   5.584 -0.3032 -1.0654  0.1591
 5010TIP3    H236446   5.151   1.165   5.534 -0.0376  1.2021 -0.4236
 5011TIP3   OH236447   1.847   3.150   6.082  0.5699  0.1837  0.3986
 5011TIP3    H136448   1.873   3.206   6.154  1.3043 -0.0807  0.3578
 5011TIP3    H236449   1.899   3.181   6.007  0.9243 -0.4757  0.3541
 5012TIP3   OH236450   4.032   2.750   3.381 -0.1342  0.4163  0.7216
 5012TIP3    H136451   3.943   2.728   3.407 -0.1451 -0.4779 -0.0202
 5012TIP3    H236452   4.028   2.760   3.285  0.9229 -1.6245  0.4095
 5013TIP3   OH236453   0.483   0.432  11.569  0.1326 -0.5364 -0.4215
 5013TIP3    H136454   0.511   0.346  11.598 -1.6604 -1.7784 -2.0981
 5013TIP3    H236455   0.387   0.429  11.575  0.0394  1.8885  0.8340
 5014TIP3   OH236456   2.183   3.967  10.942  0.2216  0.3507  0.4173
 5014TIP3    H136457   2.158   4.056  10.966 -0.1682  0.8253 -1.5562
 5014TIP3    H236458   2.128   3.946  10.866  1.4570 -0.9332 -0.1757
 5015TIP3   OH236459   6.352   4.801  11.471  0.3136 -0.2141 -0.3526
 5015TIP3    H136460   6.297   4.740  11.421  0.3616 -1.5080  1.0816
 5015TIP3    H236461   6.414   4.836  11.407 -0.2168 -1.0836 -1.3777
 5016TIP3   OH236462   1.176   2.594  11.305 -0.0701  0.4031 -0.2410
 5016TIP3    H136463   1.150   2.655  11.374 -2.8983 -0.0576 -0.7666
 5016TIP3    H236464   1.101   2.535  11.295  2.6698 -3.7250  0.6994
 5017TIP3   OH236465   1.351   1.111   1.138 -0.0551 -0.2473  0.1073
 5017TIP3    H136466   1.298   1.080   1.211  0.8310  0.8411  1.2430
 5017TIP3    H236467   1.441   1.097   1.165  0.3021  0.9577 -0.4039
 5018TIP3   OH236468   5.911   1.920   2.932  1.0947  0.3040 -0.2503
 5018TIP3    H136469   5.975   1.989   2.915  0.6699  0.7182 -0.1676
 5018TIP3    H236470   5.962   1.839   2.927  1.6538  0.6362 -0.0533
 5019TIP3   OH236471   1.551   5.397  15.680 -0.6603 -0.5910 -0.0229
 5019TIP3    H136472   1.516   5.477  15.640  2.7867  1.4975  0.7105
 5019TIP3    H236473   1.593   5.350  15.607  0.6135  0.2808  0.1175
 5020TIP3   OH236474   3.628   3.486   4.169 -0.1975 -0.0689 -0.4734
 5020TIP3    H136475   3.582   3.522   4.244 -0.5450  0.5045 -0.9479
 5020TIP3    H236476   3.559   3.466   4.106  0.1910  1.1135 -1.3256
 5021TIP3   OH236477   5.927   3.228  15.304  0.3924 -0.2085 -0.0870
 5021TIP3    H136478   5.837   3.194  15.310 -0.5026  1.6568 -1.9801
 5021TIP3    H236479   5.959   3.198  15.219  2.1526 -2.0223  1.1255
 5022TIP3   OH236480   1.088   2.410  15.922 -0.2376  0.3334 -0.1995
 5022TIP3    H136481   1.101   2.345  15.853  1.0033 -0.9839  1.2269
 5022TIP3    H236482   0.998   2.396  15.951 -0.0496 -0.6305 -0.0437
 5023TIP3   OH236483   3.389   5.308  15.775  0.0910  0.0716  0.2380
 5023TIP3    H136484   3.387   5.314  15.679  1.0135 -0.0243  0.2009
 5023TIP3    H236485   3.297   5.297  15.800 -0.2645  1.0736 -0.5604
 5024TIP3   OH236486   4.308   1.399   2.041 -0.3811  0.3170  0.4373
 5024TIP3    H136487   4.261   1.480   2.024  0.1907  0.7623  0.9644
 5024TIP3    H236488   4.242   1.330   2.033 -0.9435  0.8674  0.3616
 5025TIP3   OH236489   6.204   3.083  14.445  0.2322 -0.4630 -0.2966
 5025TIP3    H136490   6.201   3.035  14.528  2.7002 -2.4219 -1.2131
 5025TIP3    H236491   6.295   3.110  14.436 -0.6253  2.5555 -0.9383
 5026TIP3   OH236492   3.257   4.101   3.288  0.1296 -0.7858  0.7781
 5026TIP3    H136493   3.279   4.046   3.213  1.3179 -0.2705  0.7293
 5026TIP3    H236494   3.269   4.191   3.256 -1.6806 -0.4774  0.8812
 5027TIP3   OH236495   3.477   1.865   3.748  0.0022 -0.0862 -0.4787
 5027TIP3    H136496   3.483   1.785   3.800 -1.1340 -0.5897 -1.0848
 5027TIP3    H236497   3.568   1.888   3.729  0.3405 -1.5024 -0.6906
 5028TIP3   OH236498   4.763   0.689  15.817 -0.1816  0.3210  0.2339
 5028TIP3    H136499   4.685   0.699  15.870 -0.2286 -1.0194  0.4619
 5028TIP3    H236500   4.809   0.773  15.824 -1.0637  0.7556  0.9474
 5029TIP3   OH236501   1.032   5.445  12.307  0.2517  0.5285  0.4826
 5029TIP3    H136502   0.974   5.496  12.250 -0.1552  0.9795  1.2948
 5029TIP3    H236503   1.007   5.354  12.291  1.7822  0.4192 -1.8703
 5030TIP3   OH236504   0.132   6.563  10.678  0.3141  0.2222  0.0642
 5030TIP3    H136505   0.162   6.497  10.616  2.1237  1.0170  0.0551
 5030TIP3    H236506   0.050   6.595  10.641 -0.2055 -1.4508 -0.3172
 5031TIP3   OH236507   3.166   2.473  14.867 -0.2493  0.5385  0.1166
 5031TIP3    H136508   3.108   2.458  14.941 -1.3310  1.3541 -0.5193
 5031TIP3    H236509   3.193   2.565  14.876  1.9521 -0.1340  1.0533
 5032TIP3   OH236510   6.298   3.516  12.016 -0.2135 -0.0182 -1.1598
 5032TIP3    H136511   6.316   3.569  12.094 -0.9381 -3.0438  1.2512
 5032TIP3    H236512   6.206   3.492  12.024 -0.2217 -0.6648 -2.7963
 5033TIP3   OH236513   3.623   2.574  14.535  0.5846 -0.1284  0.4706
 5033TIP3    H136514   3.653   2.525  14.459 -0.9447 -0.6054  0.1567
 5033TIP3    H236515   3.635   2.515  14.609  0.6247 -0.2301  0.3816
 5034TIP3   OH236516   5.302   2.705   3.539 -0.1685 -0.2317  0.5469
 5034TIP3    H136517   5.269   2.634   3.594  1.1372  0.6430  2.6276
 5034TIP3    H236518   5.389   2.676   3.512 -0.0114  0.1679  0.6131
 5035TIP3   OH236519   5.392   4.977   5.404  0.2180  0.2043  0.5447
 5035TIP3    H136520   5.455   5.031   5.452  0.2858  0.2604  0.3908
 5035TIP3    H236521   5.445   4.910   5.362  0.4448  1.5179 -1.3756
 5036TIP3   OH236522   3.359   0.390  16.463  0.3878 -0.7456 -0.0808
 5036TIP3    H136523   3.391   0.406  16.374 -1.4150 -0.4828 -0.7145
 5036TIP3    H236524   3.435   0.406  16.518  1.5991 -1.0721 -1.5694
 5037TIP3   OH236525   3.380   5.730   1.385 -0.3623 -0.3826 -0.0443
 5037TIP3    H136526   3.456   5.776   1.422 -0.6943  0.9257 -0.8989
 5037TIP3    H236527   3.415   5.648   1.351  0.6796  0.2096 -0.4431
 5038TIP3   OH236528   1.164   2.264   4.966 -0.2152  0.8027 -0.0090
 5038TIP3    H136529   1.135   2.343   4.920 -0.0960  1.3089  0.7648
 5038TIP3    H236530   1.259   2.266   4.960 -0.2546 -0.1694 -1.4151
 5039TIP3   OH236531   1.799   5.441  13.129 -0.0870 -0.1021  0.2076
 5039TIP3    H136532   1.884   5.484  13.119 -0.9766  1.4224 -1.4117
 5039TIP3    H236533   1.782   5.444  13.223  2.4633 -2.2269  0.8711
 5040TIP3   OH236534   0.751   5.318  12.919  0.0882  0.6286  0.5327
 5040TIP3    H136535   0.819   5.338  12.854 -0.4339  0.2949 -0.1201
 5040TIP3    H236536   0.688   5.389  12.910 -0.9269 -0.4028 -0.6269
 5041TIP3   OH236537   0.091   4.355   4.634 -0.1058  0.2868  0.4770
 5041TIP3    H136538   0.007   4.355   4.588 -0.0105  0.4523  0.3007
 5041TIP3    H236539   0.071   4.390   4.720 -0.4429 -0.8115  0.8571
 5042TIP3   OH236540   5.256   0.768   4.315  0.2185  0.6344 -0.0019
 5042TIP3    H136541   5.191   0.702   4.334 -0.3258  1.2252  0.2165
 5042TIP3    H236542   5.281   0.804   4.401  1.4622 -0.1622  0.0032
 5043TIP3   OH236543   5.400   4.139  10.890  0.3379  0.1837  0.6850
 5043TIP3    H136544   5.399   4.070  10.825  2.6834  2.1115 -1.6427
 5043TIP3    H236545   5.320   4.190  10.873 -1.0540 -1.4513  1.9828
 5044TIP3   OH236546   2.308   2.601  14.095 -0.0841 -0.2407  0.0746
 5044TIP3    H136547   2.352   2.534  14.146 -1.8132 -1.2762  0.2998
 5044TIP3    H236548   2.219   2.604  14.130 -0.5131  1.0320 -1.0060
 5045TIP3   OH236549   0.733   0.864  11.530 -0.2724  0.1435 -0.1562
 5045TIP3    H136550   0.736   0.863  11.626  0.6792  0.1025 -0.1785
 5045TIP3    H236551   0.824   0.876  11.503 -0.4278 -0.6441 -1.0716
 5046TIP3   OH236552   1.297   3.243  14.897 -0.4141  0.1066  0.0539
 5046TIP3    H136553   1.297   3.147  14.907 -0.2156 -0.0624 -1.4205
 5046TIP3    H236554   1.320   3.275  14.984  0.0543 -1.2093  0.4484
 5047TIP3   OH236555   1.071   3.381   5.065 -0.6119  0.3360  0.3668
 5047TIP3    H136556   1.049   3.308   5.123 -1.8432  0.0976 -0.3421
 5047TIP3    H236557   1.003   3.378   4.997  0.3253  1.0746 -0.6505
 5048TIP3   OH236558   4.294   2.620   4.252 -0.0664  0.6784 -0.4979
 5048TIP3    H136559   4.251   2.700   4.220 -0.6509  0.0230 -1.3936
 5048TIP3    H236560   4.303   2.565   4.174  0.3266 -0.1397  0.1134
 5049TIP3   OH236561   0.788   1.144   6.414 -0.1952  0.1595 -0.2274
 5049TIP3    H136562   0.772   1.224   6.465  1.1373  0.9271 -0.9513
 5049TIP3    H236563   0.705   1.097   6.417 -0.7687  1.1773  0.9043
 5050TIP3   OH236564   1.175   5.864   2.776 -0.0111  0.1537 -0.0869
 5050TIP3    H136565   1.133   5.835   2.857 -1.4997 -2.7677 -1.7243
 5050TIP3    H236566   1.263   5.827   2.780  0.0440  0.3287  0.3557
 5051TIP3   OH236567   2.678   4.843   1.198  0.1858 -0.0902  0.1778
 5051TIP3    H136568   2.599   4.822   1.148 -0.0980 -1.2758  1.0570
 5051TIP3    H236569   2.686   4.938   1.193 -1.4574  0.0833  0.2850
 5052TIP3   OH236570   5.976   4.474  17.086  0.7596 -0.0090  0.1748
 5052TIP3    H136571   5.999   4.446  17.174 -1.4064  1.1957  1.2114
 5052TIP3    H236572   5.894   4.428  17.066 -0.3256  1.8481  0.0310
 5053TIP3   OH236573   1.418   6.414  16.391  0.8540  0.0369 -0.2492
 5053TIP3    H136574   1.355   6.352  16.429  1.3440  0.8386  2.0308
 5053TIP3    H236575   1.492   6.359  16.365  0.8953 -0.4796  0.8882
 5054TIP3   OH236576   2.074   0.723   1.341 -0.3090  0.5661  0.4284
 5054TIP3    H136577   2.119   0.717   1.425  2.8508 -1.6074 -1.2008
 5054TIP3    H236578   2.009   0.653   1.343  2.8502 -2.7065 -0.3677
 5055TIP3   OH236579   4.966   3.406   6.191  0.2317 -0.1529 -0.2243
 5055TIP3    H136580   4.985   3.493   6.155  1.6128 -0.1572  0.4255
 5055TIP3    H236581   5.031   3.394   6.260 -0.2794 -1.4957  0.0544
 5056TIP3   OH236582   5.523   5.558  13.219  0.0256  0.4284 -0.0767
 5056TIP3    H136583   5.565   5.526  13.299 -2.4717 -0.6612  0.8987
 5056TIP3    H236584   5.540   5.652  13.219  0.4754  0.3796  1.4991
 5057TIP3   OH236585   4.935   1.137  11.692  0.4021  0.3909  0.6357
 5057TIP3    H136586   4.840   1.141  11.678  0.3985 -2.6081 -1.0984
 5057TIP3    H236587   4.962   1.228  11.702 -2.8570  1.2814  3.1343
 5058TIP3   OH236588   0.429   2.039  12.074  0.1667  0.3728 -0.1909
 5058TIP3    H136589   0.362   2.019  12.009 -0.0676 -0.2341  0.2267
 5058TIP3    H236590   0.379   2.068  12.151  0.4787  3.5073 -1.0120
 5059TIP3   OH236591   6.309   3.299  14.111 -0.5721  0.3129  0.2446
 5059TIP3    H136592   6.217   3.279  14.130 -0.1555 -1.5544  0.4700
 5059TIP3    H236593   6.330   3.243  14.036 -0.3524  2.7727 -1.6882
 5060TIP3   OH236594   0.187   3.989   3.675  0.2219  0.5976  0.4563
 5060TIP3    H136595   0.250   3.918   3.673  0.0384  0.4424 -0.0592
 5060TIP3    H236596   0.104   3.948   3.648  0.3974  1.2658 -1.2370
 5061TIP3   OH236597   2.482   6.549  12.447 -0.0185  0.3141 -0.2693
 5061TIP3    H136598   2.525   6.480  12.497  1.7245  2.1568  0.9313
 5061TIP3    H236599   2.415   6.583  12.507 -1.2779 -0.6435 -1.0729
 5062TIP3   OH236600   1.611   6.380  15.629 -0.7600  0.5753 -0.3469
 5062TIP3    H136601   1.664   6.300  15.629 -2.9119 -0.9646 -1.0649
 5062TIP3    H236602   1.613   6.410  15.720  0.9552  0.3516 -0.2728
 5063TIP3   OH236603   4.728   1.114  12.100 -0.0451 -0.3390 -0.4793
 5063TIP3    H136604   4.716   1.119  12.195 -2.7512 -1.1470 -0.7238
 5063TIP3    H236605   4.791   1.043  12.087 -0.6717 -1.1342  0.6739
 5064TIP3   OH236606   2.123   1.644  12.561  0.1917  0.5418  0.0463
 5064TIP3    H136607   2.030   1.635  12.581 -0.0358  0.5410 -0.9369
 5064TIP3    H236608   2.167   1.587  12.625 -0.6328 -0.9734 -0.6767
 5065TIP3   OH236609   5.100   5.081   0.584  0.3107 -0.2821 -0.0409
 5065TIP3    H136610   5.043   5.098   0.659  0.8395  0.7566  0.1455
 5065TIP3    H236611   5.181   5.048   0.622  1.4475  2.4053  0.1043
 5066TIP3   OH236612   2.583   5.741  15.669 -0.3339  0.2017  0.2752
 5066TIP3    H136613   2.581   5.790  15.751  0.9605  0.9196 -0.0865
 5066TIP3    H236614   2.553   5.803  15.603  0.2233  0.1672 -0.0199
 5067TIP3   OH236615   4.165   0.912  16.351 -0.0271 -0.6281 -0.3221
 5067TIP3    H136616   4.082   0.955  16.373  0.5788  1.0508 -1.1640
 5067TIP3    H236617   4.139   0.825  16.321 -1.6607  0.3953 -2.1116
 5068TIP3   OH236618   4.351   5.209  14.550 -0.1372  0.0305  0.0883
 5068TIP3    H136619   4.405   5.133  14.530  0.8254  0.6361  0.3145
 5068TIP3    H236620   4.379   5.236  14.637 -2.5350 -1.0838  1.2990
 5069TIP3   OH236621   5.645   0.067  11.734  0.1471 -0.0707  0.7359
 5069TIP3    H136622   5.577   0.018  11.687  1.0658 -1.6233  0.9632
 5069TIP3    H236623   5.620   0.061  11.826 -0.9887  1.9376  0.6230
 5070TIP3   OH236624   4.339   5.713  14.619  0.0997  0.4570  0.4939
 5070TIP3    H136625   4.264   5.654  14.613  0.8978 -0.5721  0.2501
 5070TIP3    H236626   4.333   5.768  14.541  0.5311 -0.8091 -0.4918
 5071TIP3   OH236627   1.428   5.777  11.453  0.1292  0.1780  0.1455
 5071TIP3    H136628   1.450   5.867  11.428 -2.5267  0.6734 -0.8073
 5071TIP3    H236629   1.453   5.770  11.545 -1.1258  2.5088  0.7433
 5072TIP3   OH236630   1.372   4.446   3.078 -0.6144  0.3342  0.4240
 5072TIP3    H136631   1.308   4.429   3.146 -0.5837  0.0784  0.3897
 5072TIP3    H236632   1.396   4.538   3.090 -1.6764  0.7070 -0.1566
 5073TIP3   OH236633   0.957   0.142   2.241  0.4240 -0.1050 -0.1802
 5073TIP3    H136634   1.025   0.194   2.282 -0.6447  0.6483  0.7051
 5073TIP3    H236635   0.918   0.200   2.175  1.0601 -0.7559 -1.1491
 5074TIP3   OH236636   3.639   4.460  12.187  0.3860 -0.0998 -0.2969
 5074TIP3    H136637   3.591   4.501  12.258  1.0533 -0.6112  0.4714
 5074TIP3    H236638   3.577   4.399  12.147 -0.4984  1.3637 -1.2225
 5075TIP3   OH236639   3.592   5.353   1.742  0.7223  0.2643  0.4770
 5075TIP3    H136640   3.623   5.305   1.819  0.1421 -0.8438  0.0460
 5075TIP3    H236641   3.516   5.401   1.773  0.8546  0.3053  0.7400
 5076TIP3   OH236642   4.629   5.717   2.658  0.2926 -0.0501 -0.0958
 5076TIP3    H136643   4.664   5.802   2.629  2.9310 -1.0220  0.0489
 5076TIP3    H236644   4.611   5.729   2.751 -0.7343  0.7466 -0.3764
 5077TIP3   OH236645   0.849   2.041  12.468 -0.0182 -0.0687 -0.5184
 5077TIP3    H136646   0.782   2.081  12.413  0.0430 -1.0766 -1.3614
 5077TIP3    H236647   0.847   1.948  12.444 -0.8114 -0.8082  2.0214
 5078TIP3   OH236648   3.034   3.386  11.069  0.1344  0.1372  0.2641
 5078TIP3    H136649   2.991   3.468  11.045 -0.4742 -0.3078 -0.1832
 5078TIP3    H236650   3.128   3.404  11.056  0.1577  1.2308  1.6032
 5079TIP3   OH236651   1.059   2.199  13.130  0.2599  0.0538 -0.2606
 5079TIP3    H136652   1.031   2.273  13.075  0.2648  0.7540  0.6560
 5079TIP3    H236653   1.138   2.231  13.174  0.7681 -0.8204 -0.5070
 5080TIP3   OH236654   1.528   3.521  11.812 -0.0677  0.0360 -0.0102
 5080TIP3    H136655   1.606   3.574  11.797 -0.7733  0.6913 -1.5282
 5080TIP3    H236656   1.463   3.583  11.846 -0.5682 -0.0518 -0.7817
 5081TIP3   OH236657   1.815   5.430   4.828  0.1536 -0.1030 -0.0158
 5081TIP3    H136658   1.910   5.433   4.834  0.0712  0.5094  1.8668
 5081TIP3    H236659   1.787   5.519   4.850 -0.8778 -0.5140  0.4190
 5082TIP3   OH236660   5.908   0.394  17.176 -0.3011 -0.3431  0.2868
 5082TIP3    H136661   5.978   0.338  17.210 -0.2981 -1.3130 -1.1984
 5082TIP3    H236662   5.843   0.332  17.143  0.0213  0.4826 -2.0565
 5083TIP3   OH236663   3.960   5.323   0.952  0.3507  0.1505  0.6978
 5083TIP3    H136664   4.027   5.341   1.018  0.1125 -0.5888  1.1522
 5083TIP3    H236665   3.996   5.249   0.902  1.1612  1.5628 -0.9112
 5084TIP3   OH236666   1.213   3.015  16.612 -0.3207 -0.3484  0.5023
 5084TIP3    H136667   1.212   2.955  16.687 -1.1357  0.9843  1.5887
 5084TIP3    H236668   1.125   3.050  16.608 -0.3958 -0.6604 -1.3417
 5085TIP3   OH236669   3.851   0.762   6.454  0.0988  0.3177  0.1715
 5085TIP3    H136670   3.916   0.753   6.524 -0.8740  0.2223  1.0956
 5085TIP3    H236671   3.861   0.852   6.424 -2.0040  1.7164  3.1217
 5086TIP3   OH236672   2.551   2.620  11.236  0.0579 -0.8713  0.7121
 5086TIP3    H136673   2.646   2.608  11.238  0.5862  2.3989  0.9523
 5086TIP3    H236674   2.535   2.694  11.294 -2.0651  1.4059 -2.4094
 5087TIP3   OH236675   5.825   4.371   6.099 -0.0349  0.1667  0.5709
 5087TIP3    H136676   5.754   4.348   6.039 -0.2902 -0.9195  1.2634
 5087TIP3    H236677   5.780   4.405   6.176  0.3032  1.9370  0.0359
 5088TIP3   OH236678   5.848   4.993  14.155  0.4940  0.0546 -0.1983
 5088TIP3    H136679   5.878   4.903  14.173  1.0059  0.4162  0.8666
 5088TIP3    H236680   5.925   5.047  14.174 -0.3179  0.8684  0.9514
 5089TIP3   OH236681   3.955   1.328   3.761  0.0095  0.1286 -0.0747
 5089TIP3    H136682   4.035   1.344   3.811 -0.6374  1.2624  0.6186
 5089TIP3    H236683   3.963   1.237   3.732  1.5744  0.2352 -0.0708
 5090TIP3   OH236684   4.021   5.635   1.202 -0.0898  0.1589  0.0137
 5090TIP3    H136685   4.031   5.557   1.256  0.5239  0.0372 -0.2618
 5090TIP3    H236686   3.987   5.702   1.262  0.7976  0.0926  0.6168
 5091TIP3   OH236687   0.344   2.237  11.188  0.0593 -0.4954  0.1651
 5091TIP3    H136688   0.271   2.259  11.130  0.8307 -0.7043 -0.9164
 5091TIP3    H236689   0.421   2.270  11.143  0.7059 -0.8373  0.9959
 5092TIP3   OH236690   1.424   5.474   3.293 -0.4254 -0.5973 -0.3580
 5092TIP3    H136691   1.427   5.398   3.235  0.8639 -1.2212  0.4679
 5092TIP3    H236692   1.418   5.549   3.235  1.8487 -1.1329 -1.3904
 5093TIP3   OH236693   0.849   0.555   3.275 -0.7186  0.0302  0.2252
 5093TIP3    H136694   0.926   0.541   3.330 -1.7264  1.7672  2.1971
 5093TIP3    H236695   0.775   0.532   3.331 -1.7518  0.9618 -0.7026
 5094TIP3   OH236696   6.022   3.524   4.391  0.1502 -0.1288  0.6376
 5094TIP3    H136697   6.058   3.460   4.329 -1.4320 -2.1531  1.6667
 5094TIP3    H236698   6.037   3.609   4.349  4.3824 -0.8584  0.2261
 5095TIP3   OH236699   2.896   4.211  16.747  0.6762 -0.3717 -0.3011
 5095TIP3    H136700   2.872   4.159  16.824 -4.0537 -0.8435 -1.8005
 5095TIP3    H236701   2.890   4.302  16.777 -0.6792 -0.5601  0.0775
 5096TIP3   OH236702   0.504   1.623  13.482  0.0199  0.4806 -0.5251
 5096TIP3    H136703   0.544   1.552  13.532 -1.2787  0.7645  0.9531
 5096TIP3    H236704   0.565   1.696  13.491  1.3656 -0.3930 -2.0564
 5097TIP3   OH236705   1.746   2.082  14.332  0.1519 -0.3637  0.2317
 5097TIP3    H136706   1.740   2.152  14.397  1.6626  0.9610 -0.9664
 5097TIP3    H236707   1.804   2.017  14.371  2.6950  1.3454 -0.4838
 5098TIP3   OH236708   3.560   0.050   3.864 -0.5256  0.7462 -0.1761
 5098TIP3    H136709   3.488   0.045   3.927 -0.6636  0.6469 -0.3421
 5098TIP3    H236710   3.538   0.124   3.807 -1.2423 -0.1790 -1.1460
 5099TIP3   OH236711   3.572   2.773   5.080 -0.1306  0.0911 -0.0546
 5099TIP3    H136712   3.569   2.840   5.148 -0.4719 -0.1271  0.1443
 5099TIP3    H236713   3.595   2.692   5.126 -0.6521 -0.1155 -0.1524
 5100TIP3   OH236714   2.075   6.391  16.652  0.4025  0.4105  0.1088
 5100TIP3    H136715   2.129   6.445  16.710  0.4725 -1.0299  1.4433
 5100TIP3    H236716   2.138   6.330  16.611  0.0067 -0.3116  0.5553
 5101TIP3   OH236717   6.507   1.557  16.986 -0.7447  0.7753  0.2838
 5101TIP3    H136718   6.567   1.516  16.924 -2.3156  0.5639 -1.1471
 5101TIP3    H236719   6.428   1.503  16.984 -2.0423  2.5939  0.0111
 5102TIP3   OH236720   0.735   4.064  16.439  0.3758  0.1071  0.0265
 5102TIP3    H136721   0.796   4.078  16.366  0.9212 -3.6382 -0.4336
 5102TIP3    H236722   0.790   4.035  16.511 -0.4697  1.1451  1.1411
 5103TIP3   OH236723   2.446   1.631  14.278 -0.3263 -0.4168  0.0619
 5103TIP3    H136724   2.526   1.682  14.267  0.0056 -0.9631 -0.0916
 5103TIP3    H236725   2.405   1.631  14.192 -0.1668 -0.6790 -0.0121
 5104TIP3   OH236726   6.670   2.043  17.062  0.0485  1.0348  0.2462
 5104TIP3    H136727   6.696   1.953  17.076 -0.3716  0.6557 -1.2663
 5104TIP3    H236728   6.694   2.088  17.144 -0.1315 -0.5107  1.1910
 5105TIP3   OH236729   0.400   6.559  10.973  0.3845 -0.0747 -0.4811
 5105TIP3    H136730   0.326   6.578  10.916  1.6400  0.2263 -2.0805
 5105TIP3    H236731   0.391   6.466  10.994 -0.3793 -0.0641 -0.7295
 5106TIP3   OH236732   4.346   4.910   1.704  0.0888  0.0430  0.2432
 5106TIP3    H136733   4.275   4.930   1.766 -0.1595 -2.9256  1.0388
 5106TIP3    H236734   4.341   4.981   1.639 -1.3555  1.8094  2.1293
 5107TIP3   OH236735   0.225   0.191   5.072  0.1907 -0.3905 -0.6144
 5107TIP3    H136736   0.245   0.278   5.037 -0.4131 -0.2846 -0.7064
 5107TIP3    H236737   0.248   0.197   5.165 -0.7695  0.1799 -0.4015
 5108TIP3   OH236738   0.910   1.104   4.195 -0.2567 -0.1613  0.4193
 5108TIP3    H136739   0.986   1.146   4.154 -0.1986 -0.4483  0.2313
 5108TIP3    H236740   0.911   1.135   4.285 -0.3200  0.3897  0.2358
 5109TIP3   OH236741   4.805   4.833  14.681 -0.2651  0.0505  0.2278
 5109TIP3    H136742   4.888   4.881  14.689  0.1000 -0.3536 -1.0533
 5109TIP3    H236743   4.743   4.899  14.650  0.0901 -0.1283 -0.9116
 5110TIP3   OH236744   1.518   4.883   6.112 -0.4412  0.3301  0.1472
 5110TIP3    H136745   1.474   4.800   6.130  1.5546 -0.1975  3.3526
 5110TIP3    H236746   1.503   4.935   6.191  1.7453  1.3925 -0.0760
 5111TIP3   OH236747   1.049   3.570  15.744 -0.2442  0.0887  0.4875
 5111TIP3    H136748   1.139   3.565  15.776 -0.1136 -3.4941 -0.0273
 5111TIP3    H236749   1.056   3.601  15.654  0.1254  2.3699  1.2296
 5112TIP3   OH236750   0.437   3.539  15.789 -0.4465 -0.4706  0.0012
 5112TIP3    H136751   0.443   3.487  15.709  0.2100 -0.7619  0.2350
 5112TIP3    H236752   0.525   3.573  15.803 -0.9651  1.1122 -0.4047
 5113TIP3   OH236753   2.977   1.766  16.806  0.0282  0.1795  0.0776
 5113TIP3    H136754   2.894   1.737  16.843  1.2593 -0.7783  2.3267
 5113TIP3    H236755   2.954   1.806  16.722 -2.5697 -0.8439  0.2138
 5114TIP3   OH236756   2.027   2.172  14.521 -0.0042 -1.0662  0.1354
 5114TIP3    H136757   1.963   2.107  14.491  0.4583 -1.1388 -0.7438
 5114TIP3    H236758   1.981   2.223  14.587 -0.5537 -1.9438  0.4450
 5115TIP3   OH236759   4.509   3.772  15.207 -0.1185  0.4296  0.6934
 5115TIP3    H136760   4.538   3.685  15.235  0.9411  0.5921  0.1498
 5115TIP3    H236761   4.583   3.807  15.157 -1.3630  0.7363 -1.0267
 5116TIP3   OH236762   0.295   3.832  16.643  0.0370  0.2847  0.5849
 5116TIP3    H136763   0.370   3.887  16.661  0.6201 -0.6613  1.1305
 5116TIP3    H236764   0.232   3.854  16.712 -0.4377  1.4773 -0.1966
 5117TIP3   OH236765   1.976   5.146  15.589 -0.3787  0.5446  0.1844
 5117TIP3    H136766   2.063   5.157  15.626 -1.0310  0.2207  1.8962
 5117TIP3    H236767   1.991   5.131  15.496  1.3838  0.4101  0.4647
 5118TIP3   OH236768   3.052   1.490  13.312 -0.3805 -0.1272  0.1335
 5118TIP3    H136769   3.146   1.478  13.325  0.2250  1.8907 -1.8647
 5118TIP3    H236770   3.028   1.424  13.247 -0.3261 -0.4860  0.4698
 5119TIP3   OH236771   2.772   1.456   5.083  0.5009 -0.2507 -0.2958
 5119TIP3    H136772   2.855   1.440   5.128  0.9374 -0.8676 -1.2916
 5119TIP3    H236773   2.780   1.543   5.046  0.2273  0.1705  0.6070
 5120TIP3   OH236774   0.945   5.020  11.374  0.2117 -0.0617  0.0982
 5120TIP3    H136775   0.975   5.090  11.432  1.1943  0.8153 -1.3895
 5120TIP3    H236776   0.857   5.046  11.347  0.4909  0.5082 -0.2760
 5121TIP3   OH236777   3.486   6.382   5.367  0.4006  0.4417  0.0744
 5121TIP3    H136778   3.451   6.447   5.306 -0.2476 -0.6542 -0.7564
 5121TIP3    H236779   3.578   6.407   5.378  0.1011  1.6344 -0.0365
 5122TIP3   OH236780   1.871   1.595   0.778 -0.4312 -0.0529 -0.2958
 5122TIP3    H136781   1.929   1.668   0.803 -1.4862  0.5691  0.4115
 5122TIP3    H236782   1.839   1.619   0.691 -1.5317  0.8537  0.3224
 5123TIP3   OH236783   3.139   3.525  14.744  0.1482  0.6065 -0.0233
 5123TIP3    H136784   3.202   3.553  14.678  0.1448  2.1299  0.5762
 5123TIP3    H236785   3.054   3.550  14.708  0.0095  0.0542 -0.0954
 5124TIP3   OH236786   3.070   4.648  13.357  0.4356  0.1848 -0.3004
 5124TIP3    H136787   3.009   4.583  13.322  2.0257 -0.6198 -1.6658
 5124TIP3    H236788   3.080   4.712  13.287  1.3201  0.1994 -0.1722
 5125TIP3   OH236789   1.996   2.463   5.396  0.2616  0.3832 -0.0495
 5125TIP3    H136790   2.002   2.448   5.491 -1.0405  1.9735  0.3343
 5125TIP3    H236791   1.938   2.394   5.365  0.4937 -0.0021  0.3582
 5126TIP3   OH236792   0.540   3.011   4.721 -0.2742  0.0445  0.2852
 5126TIP3    H136793   0.514   3.101   4.701 -0.8626 -0.5675 -1.9206
 5126TIP3    H236794   0.630   3.003   4.688  0.3144  0.1809  1.7500
 5127TIP3   OH236795   0.487   5.376   5.910 -0.9786  0.2016 -0.4170
 5127TIP3    H136796   0.466   5.396   6.001 -1.4326  2.1671 -0.9163
 5127TIP3    H236797   0.583   5.372   5.909 -0.9926 -0.7339  0.2952
 5128TIP3   OH236798   1.069   1.322   5.080 -0.1884 -0.5793  0.4639
 5128TIP3    H136799   1.077   1.346   4.987  2.6186  0.0396  0.8052
 5128TIP3    H236800   1.129   1.248   5.091  0.8604  0.4670  2.1290
 5129TIP3   OH236801   2.007   5.101  12.616 -0.2312 -0.4431 -0.6368
 5129TIP3    H136802   1.922   5.060  12.634 -0.4818  0.0852 -0.5786
 5129TIP3    H236803   2.039   5.129  12.702 -0.5096  0.3237 -0.7718
 5130TIP3   OH236804   3.463   0.439   5.432 -0.1375  0.3116 -0.5459
 5130TIP3    H136805   3.468   0.477   5.345 -0.7730  1.5933 -0.0499
 5130TIP3    H236806   3.372   0.409   5.439  0.3392 -1.3236 -0.9148
 5131TIP3   OH236807   6.666   5.228  15.534 -0.5710  0.3766  0.3538
 5131TIP3    H136808   6.661   5.265  15.623  0.7568  2.2502 -0.2710
 5131TIP3    H236809   6.598   5.275  15.485  0.5619  1.4629 -0.2451
 5132TIP3   OH236810   4.971   2.527  17.170 -0.5517  0.9689  0.0676
 5132TIP3    H136811   4.965   2.449  17.114 -1.6859  1.7019 -0.8470
 5132TIP3    H236812   4.881   2.557  17.181  0.0197  3.6760 -1.7768
 5133TIP3   OH236813   0.808   0.841  16.175 -0.6600 -0.0899 -0.1433
 5133TIP3    H136814   0.842   0.761  16.135 -0.5606  0.3042 -0.8632
 5133TIP3    H236815   0.772   0.813  16.259  0.6728 -0.6664  0.2661
 5134TIP3   OH236816   5.395   4.983  16.657 -0.1580 -0.0306  0.7475
 5134TIP3    H136817   5.330   5.001  16.725 -0.1919  0.2501  0.6429
 5134TIP3    H236818   5.469   5.039  16.680 -0.6567  1.0271 -0.1544
 5135TIP3   OH236819   5.596   4.149   0.687  0.4145  0.1663 -0.3417
 5135TIP3    H136820   5.612   4.174   0.778 -2.4232 -0.5378  0.4653
 5135TIP3    H236821   5.535   4.076   0.694  1.3629 -0.9485 -2.8212
 5136TIP3   OH236822   4.230   3.121   1.293  0.1659  0.2217  0.7082
 5136TIP3    H136823   4.260   3.063   1.362 -1.5909 -0.1497  1.2032
 5136TIP3    H236824   4.261   3.080   1.212  0.3448 -0.5081  1.1389
 5137TIP3   OH236825   4.708   0.806  17.303 -0.0593  0.6907 -0.2466
 5137TIP3    H136826   4.750   0.859  17.236  1.4590 -0.2161 -0.0488
 5137TIP3    H236827   4.779   0.756  17.343 -1.2333 -0.3893  0.5803
 5138TIP3   OH236828   3.212   4.448   0.370 -0.2343  0.0596 -0.1913
 5138TIP3    H136829   3.163   4.471   0.449  0.3828 -0.0711  0.2347
 5138TIP3    H236830   3.303   4.466   0.392  0.1281 -1.5123 -0.3088
 5139TIP3   OH236831   2.660   0.612   1.973 -0.1107 -0.5525  0.5795
 5139TIP3    H136832   2.676   0.694   1.927  1.6339 -1.1691  0.0228
 5139TIP3    H236833   2.647   0.638   2.064  0.2775  0.3476  0.3903
 5140TIP3   OH236834   5.196   2.802  12.851  0.4155 -0.0532 -0.0896
 5140TIP3    H136835   5.139   2.844  12.915  0.1812 -0.1897 -0.2064
 5140TIP3    H236836   5.138   2.745  12.801  0.6917 -0.3537 -0.0714
 5141TIP3   OH236837   4.147   0.820  13.289 -0.3389 -0.4926  0.1584
 5141TIP3    H136838   4.206   0.826  13.214 -2.8416  0.7889 -1.8903
 5141TIP3    H236839   4.074   0.766  13.258 -0.6388 -1.4443  2.3394
 5142TIP3   OH236840   5.888   2.619  11.910  0.3952  1.0206  0.5400
 5142TIP3    H136841   5.951   2.675  11.865 -2.0507  1.3882 -2.7908
 5142TIP3    H236842   5.815   2.677  11.933 -0.6237 -0.1205  0.3327
 5143TIP3   OH236843   3.817   6.682   4.590  0.0535  0.0600  0.3194
 5143TIP3    H136844   3.818   6.753   4.526  1.1588 -0.2753 -0.0517
 5143TIP3    H236845   3.747   6.706   4.651  2.5071  3.3265  2.2221
 5144TIP3   OH236846   6.545   3.898  12.204 -0.1688 -0.5887  0.3710
 5144TIP3    H136847   6.639   3.894  12.184 -0.1030 -0.8420  0.7020
 5144TIP3    H236848   6.503   3.851  12.132  0.0141 -0.9884  0.5167
 5145TIP3   OH236849   4.533   0.713   4.073  0.2848 -0.0797  0.0045
 5145TIP3    H136850   4.553   0.796   4.031  1.1976 -0.6380 -0.7127
 5145TIP3    H236851   4.498   0.658   4.003  2.0603 -1.1010 -0.1359
 5146TIP3   OH236852   2.530   1.961   2.237 -1.1667 -0.2461 -0.3818
 5146TIP3    H136853   2.505   2.015   2.162 -0.6297  1.5537  0.6751
 5146TIP3    H236854   2.575   1.885   2.198  0.4600  1.3752 -1.8493
 5147TIP3   OH236855   4.592   4.013   2.010 -0.0999 -0.1061 -0.1221
 5147TIP3    H136856   4.640   4.053   2.082 -1.4359  0.6588  0.3712
 5147TIP3    H236857   4.528   4.079   1.984 -0.5506 -0.9024 -1.0869
 5148TIP3   OH236858   2.160   2.767  15.856 -0.4464  0.1939 -0.0571
 5148TIP3    H136859   2.230   2.754  15.791 -0.2439 -2.1612  0.5444
 5148TIP3    H236860   2.084   2.722  15.819 -1.0612  0.9362  0.2604
 5149TIP3   OH236861   4.418   3.287  11.833 -0.2159 -0.7375  0.4174
 5149TIP3    H136862   4.469   3.223  11.883 -1.3913 -2.3860 -0.3986
 5149TIP3    H236863   4.445   3.273  11.742  1.4017  1.7583  0.4181
 5150TIP3   OH236864   6.592   0.474   5.454  0.4354  0.0535 -0.3623
 5150TIP3    H136865   6.572   0.471   5.360 -0.5049 -0.8771 -0.1569
 5150TIP3    H236866   6.636   0.558   5.467 -0.0394  0.4998 -1.5228
 5151TIP3   OH236867   5.392   4.437   2.214 -0.1484  0.3834  0.1632
 5151TIP3    H136868   5.332   4.436   2.139 -1.5726 -1.4054  1.2281
 5151TIP3    H236869   5.360   4.510   2.268  0.9194  1.7159 -0.9337
 5152TIP3   OH236870   1.632   3.327   0.041  0.3349  0.0680  0.0539
 5152TIP3    H136871   1.578   3.277  -0.020 -0.1873  0.0208  0.5417
 5152TIP3    H236872   1.581   3.329   0.122  0.6604  0.7977  0.2533
 5153TIP3   OH236873   3.206   5.854  12.371  0.2702  0.0117 -0.0023
 5153TIP3    H136874   3.132   5.812  12.327 -1.9369  3.7794 -0.3302
 5153TIP3    H236875   3.282   5.828  12.319 -1.0210 -2.4557 -0.8487
 5154TIP3   OH236876   0.912   6.319   0.832 -0.4049 -0.4882  0.9110
 5154TIP3    H136877   0.956   6.235   0.845  0.4864 -0.3278 -0.7180
 5154TIP3    H236878   0.827   6.309   0.874 -0.6853 -2.5520 -0.0076
 5155TIP3   OH236879   0.397   1.369  16.136 -0.2666  0.0962 -0.1242
 5155TIP3    H136880   0.321   1.421  16.109  0.4241  0.5917 -1.2179
 5155TIP3    H236881   0.462   1.434  16.161 -0.1413 -0.3202  0.6495
 5156TIP3   OH236882   6.067   3.383  14.201  0.2967 -0.6483  0.6598
 5156TIP3    H136883   6.000   3.325  14.165  1.2903 -1.7525  0.5244
 5156TIP3    H236884   6.018   3.455  14.241 -0.8792  0.0101 -1.8094
 5157TIP3   OH236885   2.766   0.720   3.601  0.2253  0.4112  0.5295
 5157TIP3    H136886   2.726   0.696   3.518 -0.4979 -0.4416  1.1046
 5157TIP3    H236887   2.750   0.814   3.608  1.5759  0.7807 -0.9499
 5158TIP3   OH236888   2.238   1.740  15.443  0.4220  0.2362  0.0085
 5158TIP3    H136889   2.162   1.694  15.480  1.7780 -1.5343  0.7458
 5158TIP3    H236890   2.205   1.828  15.423 -2.0609 -0.7361 -0.6130
 5159TIP3   OH236891   0.940   6.263   3.046  0.2311 -0.5048  0.0895
 5159TIP3    H136892   0.887   6.245   2.969 -0.2163 -2.7658  0.8395
 5159TIP3    H236893   0.955   6.177   3.085  0.8988  0.5073  2.2275
 5160TIP3   OH236894   2.250   1.542  12.833 -0.6639  0.5255  0.0758
 5160TIP3    H136895   2.322   1.497  12.878  1.8530  1.2631 -2.8484
 5160TIP3    H236896   2.277   1.634  12.832 -1.3690  0.7451 -1.5409
 5161TIP3   OH236897   2.004   3.000   4.052  0.6403 -0.1162  0.6905
 5161TIP3    H136898   2.060   3.052   4.111 -0.0990  0.5243  0.8557
 5161TIP3    H236899   2.055   2.922   4.032  2.1299  1.0308 -0.1935
 5162TIP3   OH236900   1.072   0.287  12.488 -0.2130  0.0871  0.1162
 5162TIP3    H136901   1.140   0.313  12.550  1.2731  1.0455 -1.8263
 5162TIP3    H236902   0.990   0.313  12.531  0.8673  2.8016  0.7531
 5163TIP3   OH236903   1.327   2.403  16.074  0.0093  0.0332  0.1278
 5163TIP3    H136904   1.239   2.416  16.037 -0.8420  1.7062  2.4656
 5163TIP3    H236905   1.386   2.415  16.000 -1.7035 -0.3604 -1.3626
 5164TIP3   OH236906   6.695   5.098   4.945 -0.0891  0.0101  0.7698
 5164TIP3    H136907   6.762   5.079   4.880 -3.2502 -2.1458 -2.2481
 5164TIP3    H236908   6.677   5.013   4.986 -0.2930  0.7442  2.2420
 5165TIP3   OH236909   2.883   1.391  16.297  0.4885 -0.3964  0.2630
 5165TIP3    H136910   2.811   1.331  16.315  1.1337 -0.5512  2.7506
 5165TIP3    H236911   2.959   1.334  16.283  0.5001 -0.2093 -0.4429
 5166TIP3   OH236912   2.764   1.884  11.113  0.9391  0.7695 -0.3738
 5166TIP3    H136913   2.732   1.923  11.032  1.4321  1.7973 -0.0998
 5166TIP3    H236914   2.822   1.813  11.085 -0.8016 -0.5175 -0.8754
 5167TIP3   OH236915   0.363   2.250  11.477 -0.2335 -0.4466  0.2386
 5167TIP3    H136916   0.350   2.244  11.383  0.9510  0.3414  0.0134
 5167TIP3    H236917   0.277   2.274  11.512 -0.8774 -1.5368 -0.5348
 5168TIP3   OH236918   0.617   1.616   5.374  0.5777 -0.3724  0.4970
 5168TIP3    H136919   0.677   1.673   5.422  1.4388 -1.4422  0.7270
 5168TIP3    H236920   0.657   1.529   5.380 -0.4865 -0.9252 -0.2095
 5169TIP3   OH236921   2.987   1.413   4.574  0.5071  0.4433 -0.5084
 5169TIP3    H136922   2.985   1.325   4.611  2.0100  0.2579 -0.8103
 5169TIP3    H236923   2.999   1.400   4.480  0.3372  0.9586 -0.6056
 5170TIP3   OH236924   6.048   1.576   3.803 -0.0292 -0.0473  0.5131
 5170TIP3    H136925   6.018   1.540   3.887 -3.1018  3.6135  1.2740
 5170TIP3    H236926   5.969   1.587   3.751  1.3622  0.9115 -1.5454
 5171TIP3   OH236927   2.290   4.377  16.792  0.0971  0.1245  0.2605
 5171TIP3    H136928   2.238   4.331  16.858  0.8082 -0.0338  0.7107
 5171TIP3    H236929   2.225   4.406  16.728 -0.6145  0.3958  1.0872
 5172TIP3   OH236930   0.138   4.742   6.663 -0.7978  0.3015 -0.0559
 5172TIP3    H136931   0.047   4.766   6.644 -1.1768 -0.1224  1.1431
 5172TIP3    H236932   0.190   4.810   6.619 -1.6488  0.1779 -1.3116
 5173TIP3   OH236933   0.642   2.941  15.377  0.4181 -0.0457  0.0671
 5173TIP3    H136934   0.655   2.868  15.317  0.1279  1.0521 -1.3777
 5173TIP3    H236935   0.564   2.917  15.427  0.6052 -0.9341 -0.0558
 5174TIP3   OH236936   0.588   2.828  13.648 -0.0804 -0.0254  0.0047
 5174TIP3    H136937   0.545   2.886  13.711  0.7799  0.4565  0.1698
 5174TIP3    H236938   0.681   2.834  13.670  0.4209  1.2383 -2.1611
 5175TIP3   OH236939   0.846   3.494   3.086  0.0068  0.1368 -0.0593
 5175TIP3    H136940   0.782   3.510   3.156  1.2856  0.0564  1.1674
 5175TIP3    H236941   0.930   3.517   3.124  0.8665 -0.9029 -1.2311
 5176TIP3   OH236942   0.734   0.824  14.559 -0.2984  0.0119  0.0518
 5176TIP3    H136943   0.645   0.832  14.526  0.4000 -0.3558 -2.0389
 5176TIP3    H236944   0.735   0.877  14.639 -2.3938 -0.0812  0.1882
 5177TIP3   OH236945   2.033   0.693  12.516  0.0200  0.1578  0.2644
 5177TIP3    H136946   2.074   0.775  12.545  1.8458 -0.0250 -1.5385
 5177TIP3    H236947   2.034   0.698  12.421  0.3442 -2.0066  0.0980
 5178TIP3   OH236948   5.820   6.164  16.048  0.3173  0.2032  0.2160
 5178TIP3    H136949   5.830   6.094  15.983  0.4196  0.9726 -0.6103
 5178TIP3    H236950   5.736   6.204  16.027 -0.7838 -1.0171  2.0393
 5179TIP3   OH236951   3.493   2.044  11.370 -0.0830  0.1015  0.0870
 5179TIP3    H136952   3.530   2.128  11.344  0.8747  0.2702  1.8435
 5179TIP3    H236953   3.402   2.063  11.389 -0.2336  0.4266 -0.8854
 5180TIP3   OH236954   4.063   1.945  10.534  0.3964 -0.4390 -0.0197
 5180TIP3    H136955   4.033   1.869  10.483 -1.2395 -0.0333  0.3009
 5180TIP3    H236956   4.106   2.001  10.470 -3.2372  0.9693 -1.5056
 5181TIP3   OH236957   3.538   3.944   5.301  0.6180  0.3659  0.0564
 5181TIP3    H136958   3.622   3.898   5.298  0.7393  0.4719  1.3172
 5181TIP3    H236959   3.478   3.888   5.250  0.9509 -0.7927  0.8991
 5182TIP3   OH236960   2.543   0.446  11.840  0.4578 -0.1820  0.2369
 5182TIP3    H136961   2.529   0.355  11.865 -0.0409 -0.3080 -0.4662
 5182TIP3    H236962   2.587   0.441  11.755 -1.3699  0.1995 -0.7916
 5183TIP3   OH236963   0.005   1.416  15.984 -0.4329  0.4216 -0.1283
 5183TIP3    H136964  -0.082   1.456  15.974 -0.8762 -0.4287  0.2710
 5183TIP3    H236965   0.016   1.362  15.906 -1.1549 -1.1007  0.7877
 5184TIP3   OH236966   5.291   3.548   4.259 -0.5367 -0.2220 -0.1661
 5184TIP3    H136967   5.247   3.607   4.199 -1.3362 -0.9753 -0.3309
 5184TIP3    H236968   5.381   3.542   4.225 -0.5899  0.4720 -0.4464
 5185TIP3   OH236969   0.890   3.171  14.263 -0.0303 -0.3342  0.4891
 5185TIP3    H136970   0.952   3.099  14.272 -0.4336 -0.5914  1.3162
 5185TIP3    H236971   0.811   3.140  14.307 -0.7544 -0.0135 -0.5583
 5186TIP3   OH236972   2.674   3.212  15.006  0.0605  0.3918 -0.0740
 5186TIP3    H136973   2.754   3.175  14.968 -0.8465 -1.1783 -0.5533
 5186TIP3    H236974   2.673   3.180  15.096 -0.5412 -0.5098 -0.3835
 5187TIP3   OH236975   4.096   2.946  13.531 -0.4171 -0.4154 -0.3733
 5187TIP3    H136976   4.137   2.860  13.528  1.0561  0.2875 -1.0848
 5187TIP3    H236977   4.065   2.955  13.622  1.4612 -0.7876  0.3527
 5188TIP3   OH236978   5.042   6.517  11.840  0.1289  0.2996  0.0861
 5188TIP3    H136979   4.960   6.483  11.876  0.6754 -0.0449  1.0330
 5188TIP3    H236980   5.058   6.463  11.763 -0.5247  0.3655 -0.1045
 5189TIP3   OH236981   5.822   0.016  14.075  0.3692  0.1355 -0.3166
 5189TIP3    H136982   5.894   0.059  14.120 -0.8886  2.0869 -0.0176
 5189TIP3    H236983   5.745   0.038  14.128 -0.5548 -1.2730 -1.0144
 5190TIP3   OH236984   2.334   4.046   6.868 -0.2962  0.0432 -0.1159
 5190TIP3    H136985   2.357   3.985   6.939  0.3644  0.0363 -0.3218
 5190TIP3    H236986   2.294   3.991   6.801  0.6640 -0.2468 -0.4703
 5191TIP3   OH236987   6.139   5.192  13.708 -0.4252  0.2545 -0.0189
 5191TIP3    H136988   6.098   5.269  13.669 -0.6490 -1.5451 -3.8410
 5191TIP3    H236989   6.233   5.206  13.697 -0.4952 -0.4057 -1.7946
 5192TIP3   OH236990   2.511   1.435  12.455  0.0494  0.2047 -0.4378
 5192TIP3    H136991   2.463   1.352  12.454 -0.2882  0.4004 -0.7647
 5192TIP3    H236992   2.572   1.426  12.528 -0.0070 -0.3185 -0.4454
 5193TIP3   OH236993   0.819   2.070  16.452 -0.1389 -0.2893 -0.1893
 5193TIP3    H136994   0.885   2.015  16.494 -1.1873 -1.3228  0.1767
 5193TIP3    H236995   0.866   2.149  16.426  0.7686 -0.0249  2.0458
 5194TIP3   OH236996   4.649   5.971  14.542 -0.1265  0.7635 -0.7408
 5194TIP3    H136997   4.705   6.046  14.520  2.6633 -0.6845  0.8691
 5194TIP3    H236998   4.680   5.943  14.628 -0.2578 -2.9216 -1.7532
 5195TIP3   OH236999   5.254   3.607  11.813  0.2971  0.2931 -0.7050
 5195TIP3    H137000   5.287   3.687  11.775 -0.6103  0.6785 -0.7126
 5195TIP3    H237001   5.172   3.632  11.855  0.9414 -0.2449  0.9463
 5196TIP3   OH237002   1.072   3.166  12.817  0.7410  0.2589 -0.0957
 5196TIP3    H137003   1.041   3.255  12.834  1.2702  0.6139 -0.9503
 5196TIP3    H237004   0.997   3.111  12.839  0.4647  0.8911  0.6188
 5197TIP3   OH237005   1.617   4.579   2.720 -0.4750  0.0484  0.2086
 5197TIP3    H137006   1.601   4.637   2.645 -2.1502 -2.2020 -1.3260
 5197TIP3    H237007   1.532   4.539   2.738  0.2633 -0.7219  2.2640
 5198TIP3   OH237008   5.070   1.578   0.250 -0.0224 -0.0470  0.3440
 5198TIP3    H137009   5.141   1.532   0.204 -0.5686  0.3121 -0.8899
 5198TIP3    H237010   5.080   1.551   0.341  0.3038 -1.7959 -0.1775
 5199TIP3   OH237011   1.304   5.971  14.687  0.0633 -0.1310 -0.1889
 5199TIP3    H137012   1.375   6.032  14.704  0.2571 -0.3412 -0.2471
 5199TIP3    H237013   1.280   5.938  14.774 -0.0470  0.0340 -0.1568
 5200TIP3   OH237014   2.184   1.427   2.136 -0.7175  0.7048  0.6322
 5200TIP3    H137015   2.255   1.464   2.188 -0.4891  0.5332  0.4407
 5200TIP3    H237016   2.179   1.483   2.058  0.6835 -0.5727 -0.4470
 5201TIP3   OH237017   1.382   0.534  16.993 -0.0312  0.2345 -0.2747
 5201TIP3    H137018   1.449   0.598  16.970 -1.2548  1.4846 -0.5114
 5201TIP3    H237019   1.359   0.555  17.084  0.8333 -1.0639  0.2635
 5202TIP3   OH237020   0.695   3.381   5.149 -0.2566  0.3620 -0.3255
 5202TIP3    H137021   0.755   3.454   5.129 -0.0681  0.7086  1.3678
 5202TIP3    H237022   0.753   3.308   5.170 -0.4503 -0.1732 -1.5521
 5203TIP3   OH237023   0.593   2.421   4.452 -0.4109 -0.0646 -0.1822
 5203TIP3    H137024   0.575   2.363   4.377 -3.0830 -0.0400  0.3542
 5203TIP3    H237025   0.629   2.363   4.519  0.4822 -0.3840 -0.9214
 5204TIP3   OH237026   5.892   4.318  14.684  0.2759 -0.6688  0.3749
 5204TIP3    H137027   5.848   4.350  14.763 -0.9924 -0.4211 -0.4081
 5204TIP3    H237028   5.963   4.381  14.670 -1.9218  1.7459 -0.9093
 5205TIP3   OH237029   4.774   4.375  14.445  0.8702  0.0662 -0.1638
 5205TIP3    H137030   4.806   4.447  14.499 -0.9400  0.8936 -0.1093
 5205TIP3    H237031   4.682   4.367  14.469  0.5357 -0.9042 -1.6726
 5206TIP3   OH237032   3.721   5.514  11.759 -0.0116  0.1828 -0.4016
 5206TIP3    H137033   3.787   5.449  11.735 -0.4682 -1.3502  2.1307
 5206TIP3    H237034   3.641   5.483  11.718  0.0062 -0.2490 -0.1146
 5207TIP3   OH237035   2.453   0.513  12.517  0.8585 -0.1913 -0.0093
 5207TIP3    H137036   2.371   0.508  12.567  1.5833  1.5518  1.5036
 5207TIP3    H237037   2.520   0.483  12.578  1.6603  1.1117 -0.2024
 5208TIP3   OH237038   4.403   0.872   6.495  0.3672 -0.0685 -0.4573
 5208TIP3    H137039   4.420   0.808   6.565  1.5105  0.2937 -0.3860
 5208TIP3    H237040   4.324   0.918   6.524  0.7761  0.0146  0.5562
 5209TIP3   OH237041   0.563   0.119   1.563 -0.2976 -0.0830 -0.2667
 5209TIP3    H137042   0.505   0.059   1.610  1.3366 -1.8208 -0.3538
 5209TIP3    H237043   0.602   0.066   1.494  0.5602  1.3256 -0.9119
 5210TIP3   OH237044   4.939   2.144  17.222 -0.1071  0.0295 -0.2907
 5210TIP3    H137045   5.013   2.138  17.283  0.3883 -1.2065 -0.9837
 5210TIP3    H237046   4.887   2.217  17.256 -0.5770 -1.4159  2.4354
 5211TIP3   OH237047   2.748   3.087  13.962 -0.6496 -0.1384 -0.3776
 5211TIP3    H137048   2.707   3.154  14.016 -1.3504 -1.0930  0.3108
 5211TIP3    H237049   2.723   3.108  13.872 -0.5524  0.7173 -0.2094
 5212TIP3   OH237050   2.672   0.633   2.925 -0.3435 -0.1924  0.3163
 5212TIP3    H137051   2.745   0.691   2.947  0.9445 -1.0197 -1.5809
 5212TIP3    H237052   2.703   0.581   2.851 -1.8747 -2.5036  1.1798
 5213TIP3   OH237053   2.573   2.233  16.395 -0.0102 -0.4541 -0.7798
 5213TIP3    H137054   2.622   2.313  16.416 -1.4790  0.1985  0.3061
 5213TIP3    H237055   2.519   2.217  16.472 -0.2943 -2.0946 -1.2901
 5214TIP3   OH237056   0.348   2.379  12.066 -0.0861  0.0073  0.5130
 5214TIP3    H137057   0.402   2.409  12.138  2.0437  0.4567 -1.1598
 5214TIP3    H237058   0.385   2.295  12.041  0.4883  0.7230 -1.2193
 5215TIP3   OH237059   3.222   6.329  11.937  0.4161 -0.0300  0.4451
 5215TIP3    H137060   3.161   6.269  11.893  2.0213 -1.6612  0.3103
 5215TIP3    H237061   3.245   6.283  12.018  1.0101  0.8178  0.7662
 5216TIP3   OH237062   1.793   0.403  10.887  1.1268 -0.5810 -0.2349
 5216TIP3    H137063   1.856   0.351  10.837  0.4772  0.6981 -2.5569
 5216TIP3    H237064   1.810   0.493  10.860 -0.1229  0.0423  0.9299
 5217TIP3   OH237065   0.940   5.742   1.884  0.0890 -0.0904 -0.5004
 5217TIP3    H137066   0.993   5.688   1.943  1.3934 -0.8730 -2.2585
 5217TIP3    H237067   0.850   5.730   1.914  0.5100 -1.9849  0.1541
 5218TIP3   OH237068   1.673   0.830   5.612  0.1995  0.0819 -0.6241
 5218TIP3    H137069   1.652   0.846   5.704 -0.5226 -1.0036 -0.5909
 5218TIP3    H237070   1.726   0.750   5.612 -1.3655 -0.9973 -1.2887
 5219TIP3   OH237071   3.785   3.849   0.439 -0.0577  0.9704  0.0105
 5219TIP3    H137072   3.861   3.794   0.420 -1.9286 -2.4553  1.4504
 5219TIP3    H237073   3.790   3.864   0.534 -2.1717 -1.2297  0.5729
 5220TIP3   OH237074   1.363   1.468   2.177 -0.1707 -0.2504  0.4616
 5220TIP3    H137075   1.360   1.480   2.082  0.3079  1.6620  0.6450
 5220TIP3    H237076   1.293   1.524   2.210  0.2666 -0.1766  1.2789
 5221TIP3   OH237077   2.453   2.966  13.912 -0.3763 -0.1094 -0.3639
 5221TIP3    H137078   2.363   2.982  13.940  0.4869  2.0967  1.4964
 5221TIP3    H237079   2.454   2.992  13.819 -1.2704  1.8784  0.1214
 5222TIP3   OH237080   3.463   1.656  12.356  0.3687 -0.0629  0.2557
 5222TIP3    H137081   3.555   1.640  12.377  0.0990 -1.6454  0.3267
 5222TIP3    H237082   3.449   1.614  12.271 -0.0021  1.2696 -0.3862
 5223TIP3   OH237083   6.514   5.567   0.914 -0.3017  0.3745 -0.2456
 5223TIP3    H137084   6.583   5.628   0.939  0.9392 -0.5949 -1.1902
 5223TIP3    H237085   6.459   5.616   0.853 -0.7653  1.3078  0.8762
 5224TIP3   OH237086   4.300   5.827   2.600 -0.1576 -0.1735 -0.0980
 5224TIP3    H137087   4.384   5.815   2.557 -0.2522 -0.7407 -0.1370
 5224TIP3    H237088   4.282   5.921   2.593  0.5976 -0.0046  0.1574
 5225TIP3   OH237089   0.654   6.026  17.022  0.1433 -0.3576  0.1524
 5225TIP3    H137090   0.614   6.106  16.988 -0.4666 -0.7881 -0.1636
 5225TIP3    H237091   0.618   6.017  17.110 -1.0625 -1.1219 -0.3786
 5226TIP3   OH237092   6.479   6.351   4.492  0.3663 -0.2833  0.2541
 5226TIP3    H137093   6.422   6.405   4.437  1.8761 -0.6962 -1.8580
 5226TIP3    H237094   6.421   6.284   4.529 -1.3078  1.9505  1.9429
 5227TIP3   OH237095   1.101   2.208   3.471  0.1995  0.4338  0.0814
 5227TIP3    H137096   1.154   2.263   3.529  1.3226  1.7185 -2.0254
 5227TIP3    H237097   1.029   2.264   3.443  1.2102  0.8639 -1.8833
 5228TIP3   OH237098   2.385   2.368  11.310  0.1140  0.0595  0.1717
 5228TIP3    H137099   2.296   2.383  11.277  0.3032  1.9477  0.4029
 5228TIP3    H237100   2.438   2.436  11.267  1.1915 -0.1848  1.0646
 5229TIP3   OH237101   4.540   4.666   4.806  0.0906 -0.1904 -0.2394
 5229TIP3    H137102   4.494   4.737   4.760  0.8869  1.2151  1.0304
 5229TIP3    H237103   4.617   4.649   4.752  1.2654  1.7713  0.7058
 5230TIP3   OH237104   5.144   3.052  17.293  0.1684 -0.1468  0.3298
 5230TIP3    H137105   5.092   3.132  17.283  0.2527 -0.0540  0.6202
 5230TIP3    H237106   5.171   3.029  17.204 -0.3885 -0.2090  0.1739
 5231TIP3   OH237107   0.527   1.287  11.358 -0.4004  0.1474  0.5228
 5231TIP3    H137108   0.439   1.293  11.320  0.2106  0.2585 -0.9433
 5231TIP3    H237109   0.553   1.196  11.341 -0.2439  0.1050  0.9893
 5232TIP3   OH237110   5.781   0.521   5.921  0.2085  0.4468 -0.3647
 5232TIP3    H137111   5.699   0.499   5.964 -0.1612  1.7198 -0.3796
 5232TIP3    H237112   5.823   0.436   5.904 -0.8564 -0.1909  0.1013
 5233TIP3   OH237113   1.816   3.659   2.147  0.3655 -0.2940  0.5100
 5233TIP3    H137114   1.729   3.698   2.159 -0.4662 -1.8408 -0.2739
 5233TIP3    H237115   1.815   3.623   2.058  1.6343 -0.7953  0.6673
 5234TIP3   OH237116   0.359   0.067   0.244 -0.5929 -0.1281  0.3014
 5234TIP3    H137117   0.332   0.128   0.313 -2.1747  0.2011 -0.5501
 5234TIP3    H237118   0.345  -0.020   0.282 -0.5332  0.0469  0.7296
 5235TIP3   OH237119   1.435   6.322   2.798 -0.0216 -0.3101  0.2359
 5235TIP3    H137120   1.369   6.388   2.817  0.2020  0.6272 -1.8936
 5235TIP3    H237121   1.516   6.356   2.837 -0.2901 -0.2459  0.7377
 5236TIP3   OH237122   2.595   4.767   4.962  0.0300 -0.4623  0.3790
 5236TIP3    H137123   2.687   4.762   4.938 -0.1201 -0.6376 -0.1750
 5236TIP3    H237124   2.587   4.849   5.011  0.1937  0.2850 -0.8306
 5237TIP3   OH237125   0.932   2.405  11.310  0.3458 -0.0269  0.8025
 5237TIP3    H137126   0.881   2.414  11.230  2.4102  1.5628 -0.4452
 5237TIP3    H237127   0.942   2.310  11.322 -0.5151 -0.3026 -0.4744
 5238TIP3   OH237128   2.708   3.248  15.359 -0.7636 -0.3786 -0.5524
 5238TIP3    H137129   2.761   3.171  15.336 -0.2352  0.0721 -0.8868
 5238TIP3    H237130   2.670   3.227  15.444  0.5473 -0.4318  0.0488
 5239TIP3   OH237131   1.711   4.358  14.994  0.4880  0.3979 -0.2620
 5239TIP3    H137132   1.788   4.413  14.982  0.3053  0.3109 -2.1808
 5239TIP3    H237133   1.746   4.271  15.014  0.8954  0.4720 -0.6346
 5240TIP3   OH237134   0.483   5.402  16.068 -1.1896 -0.3444 -0.3404
 5240TIP3    H137135   0.557   5.376  16.013 -0.1986  0.6226  0.4868
 5240TIP3    H237136   0.428   5.324  16.074 -0.1144 -1.1519 -0.7704
 5241TIP3   OH237137   3.082   1.659   5.596 -0.1158  0.2920 -0.1369
 5241TIP3    H137138   3.117   1.575   5.567  1.4387  0.4164  1.2685
 5241TIP3    H237139   3.000   1.637   5.641  0.8302 -0.6383  1.2054
 5242TIP3   OH237140   6.157   1.499  10.989  0.3995  0.6765  0.0660
 5242TIP3    H137141   6.185   1.468  11.076 -0.3730  0.2998  0.1944
 5242TIP3    H237142   6.224   1.466  10.929  0.3764  0.0125  0.3931
 5243TIP3   OH237143   5.159   0.412   1.196 -0.1282  0.5521  0.6623
 5243TIP3    H137144   5.208   0.342   1.154 -1.0538 -0.3907  1.0913
 5243TIP3    H237145   5.098   0.367   1.254  0.1891  1.7718  1.9952
 5244TIP3   OH237146   4.227   4.523   6.514 -0.6129  0.1020 -0.1261
 5244TIP3    H137147   4.271   4.608   6.521 -1.5166  0.5165  0.8503
 5244TIP3    H237148   4.291   4.460   6.548 -0.3515  0.5416  0.2070
 5245TIP3   OH237149   5.153   0.031   2.673  0.7143  0.3125 -0.3920
 5245TIP3    H137150   5.214   0.082   2.726 -0.7725  2.0343 -0.2591
 5245TIP3    H237151   5.153   0.075   2.588  0.9998 -0.7601 -0.9577
 5246TIP3   OH237152   0.862   3.188   0.708  0.3173  0.6415 -0.6716
 5246TIP3    H137153   0.838   3.104   0.670 -0.3398  1.1088 -1.3349
 5246TIP3    H237154   0.937   3.218   0.656  0.7335  0.3386 -0.2492
 5247TIP3   OH237155   4.398   3.457  15.126  0.3024 -0.3500  0.7868
 5247TIP3    H137156   4.423   3.539  15.085  1.0671 -0.1213  1.6857
 5247TIP3    H237157   4.475   3.430  15.176 -0.4576 -0.8226  1.7357
 5248TIP3   OH237158   3.240   1.312  12.352 -0.0964  0.2591  0.2498
 5248TIP3    H137159   3.281   1.234  12.389 -0.6196 -0.3506 -0.4141
 5248TIP3    H237160   3.264   1.310  12.259 -0.8653  0.3848  0.0438
 5249TIP3   OH237161   2.355   1.670  12.414  0.5008 -0.3437  0.0722
 5249TIP3    H137162   2.407   1.602  12.457 -1.3866 -2.8739 -1.4187
 5249TIP3    H237163   2.272   1.670  12.461  0.2715  0.5410 -0.3173
 5250TIP3   OH237164   2.255   0.237   6.240 -0.0325 -0.6755  0.2758
 5250TIP3    H137165   2.168   0.241   6.279  0.1836 -0.2844  0.7296
 5250TIP3    H237166   2.315   0.247   6.314  0.4180 -1.7898  0.0763
 5251TIP3   OH237167   0.127   1.597   0.091 -0.0889 -0.0044 -0.4440
 5251TIP3    H137168   0.090   1.626   0.008 -0.5190 -1.5951 -0.8594
 5251TIP3    H237169   0.221   1.590   0.074 -0.3035 -1.5621 -1.2633
 5252TIP3   OH237170   1.735   3.693  11.789  0.3978 -0.0957 -0.0770
 5252TIP3    H137171   1.686   3.758  11.738  1.3115  0.3872 -0.3552
 5252TIP3    H237172   1.827   3.714  11.773  0.7190 -1.5079 -0.2367
 5253TIP3   OH237173   6.665   6.028   1.027 -0.3676  0.1239 -0.2424
 5253TIP3    H137174   6.605   6.102   1.037 -2.0299 -0.5947 -3.4209
 5253TIP3    H237175   6.609   5.951   1.038  0.9315 -0.6919  1.0497
 5254TIP3   OH237176   5.427   3.364   1.728  0.0715 -0.1618 -0.1920
 5254TIP3    H137177   5.516   3.329   1.719  0.4594 -0.2020  2.7734
 5254TIP3    H237178   5.440   3.456   1.749 -0.5853 -0.1334  0.1103
 5255TIP3   OH237179   1.204   2.542   5.243  0.2893  0.5236  0.8022
 5255TIP3    H137180   1.237   2.597   5.173 -0.0672 -2.5912 -2.1017
 5255TIP3    H237181   1.276   2.481   5.262  0.6231  1.6643  3.7532
 5256TIP3   OH237182   3.066   2.859  12.283 -0.4061 -0.1669 -0.3588
 5256TIP3    H137183   3.129   2.928  12.304 -0.3242 -0.9568  2.3992
 5256TIP3    H237184   3.108   2.779  12.315 -2.4332 -0.8343  0.8007
 5257TIP3   OH237185   3.041   6.522   0.827 -0.4323 -0.2518 -0.4062
 5257TIP3    H137186   3.077   6.458   0.889 -0.3127 -1.5223 -1.7320
 5257TIP3    H237187   2.990   6.582   0.882  0.1839 -0.9460  0.9895
 5258TIP3   OH237188   0.722   0.672  11.326  0.4128 -0.0805 -0.0497
 5258TIP3    H137189   0.734   0.737  11.395 -3.5651  0.5698  0.2431
 5258TIP3    H237190   0.631   0.644  11.334  0.3484 -1.5431 -3.7265
 5259TIP3   OH237191   2.344   3.248  13.341  0.2088 -0.2006 -0.0291
 5259TIP3    H137192   2.395   3.322  13.309  1.1313 -0.9618 -0.3436
 5259TIP3    H237193   2.393   3.216  13.417 -0.0381 -0.6573 -0.0579
 5260TIP3   OH237194   1.268   1.709  16.600  0.2947  0.0454  0.3282
 5260TIP3    H137195   1.314   1.792  16.610 -1.5014  1.1116  0.2330
 5260TIP3    H237196   1.192   1.731  16.545  0.1069 -1.7890 -0.1930
 5261TIP3   OH237197   3.955   1.028   4.157  0.4852 -0.3872 -0.7169
 5261TIP3    H137198   3.926   0.967   4.089  0.7566 -1.1324 -0.1710
 5261TIP3    H237199   3.898   1.104   4.145 -1.1653 -1.4792 -0.2164
 5262TIP3   OH237200   2.233   0.277  13.651  0.4467 -0.2669  0.0136
 5262TIP3    H137201   2.234   0.334  13.729 -0.2966  0.7484 -0.6995
 5262TIP3    H237202   2.161   0.310  13.598  1.2246 -0.6452 -1.3263
 5263TIP3   OH237203   4.259   5.773   4.092  0.3115  0.0449  0.0926
 5263TIP3    H137204   4.300   5.731   4.016  1.5807  0.3714  0.5836
 5263TIP3    H237205   4.199   5.837   4.054  0.0271 -0.6310 -0.6355
 5264TIP3   OH237206   2.594   3.520  12.245 -0.1648  0.5083  0.1087
 5264TIP3    H137207   2.558   3.448  12.194 -1.3833  0.5311  0.8981
 5264TIP3    H237208   2.674   3.486  12.284 -1.2337 -0.7541  1.2696
 5265TIP3   OH237209   4.892   1.791   0.289  0.2020  0.6134  0.4533
 5265TIP3    H137210   4.953   1.717   0.286  0.1575  0.6125 -0.8334
 5265TIP3    H237211   4.945   1.867   0.264 -0.0758  0.7918  0.4042
 5266TIP3   OH237212   1.757   1.805   4.052 -0.1225  0.3417  0.6975
 5266TIP3    H137213   1.822   1.734   4.047  0.2605  0.7086  0.3853
 5266TIP3    H237214   1.803   1.882   4.019 -1.2485  0.2502 -1.2276
 5267TIP3   OH237215   2.332   1.729   5.441  0.2787 -0.2006  0.6872
 5267TIP3    H137216   2.307   1.637   5.433  0.0748 -0.0863  0.0024
 5267TIP3    H237217   2.376   1.749   5.359  0.7532  0.1845  1.0298
 5268TIP3   OH237218   1.516   1.745  16.187  0.3410 -0.3733  0.3033
 5268TIP3    H137219   1.546   1.824  16.233 -0.1760 -0.4756  0.8356
 5268TIP3    H237220   1.595   1.693  16.175  0.4767 -0.3941  1.1946
 5269TIP3   OH237221   0.661   5.075   1.875 -0.1590  0.1876 -0.1306
 5269TIP3    H137222   0.611   5.118   1.944  2.0320 -0.1555  1.8214
 5269TIP3    H237223   0.620   5.104   1.794 -3.2144  0.1861  1.2634
 5270TIP3   OH237224   0.827   4.008  13.080  0.2899 -0.2763  0.1087
 5270TIP3    H137225   0.907   4.051  13.107  0.9956 -1.7205  0.4121
 5270TIP3    H237226   0.817   4.033  12.988  0.8670  0.2284  0.1748
 5271TIP3   OH237227   5.616   3.049   4.741 -0.1995  0.3526 -0.3666
 5271TIP3    H137228   5.602   2.968   4.791 -1.4504 -0.6793 -2.2349
 5271TIP3    H237229   5.651   3.111   4.804  0.3097 -1.4920  1.2711
 5272TIP3   OH237230   6.628   2.381  11.162 -0.1630 -0.2752 -0.2141
 5272TIP3    H137231   6.588   2.454  11.209  1.4375  0.7339 -0.3289
 5272TIP3    H237232   6.564   2.359  11.094 -1.1771  0.2466  0.5358
 5273TIP3   OH237233   1.614   4.417  12.593  0.0789 -0.5746 -0.3966
 5273TIP3    H137234   1.682   4.355  12.568 -0.6804 -1.4387 -0.3918
 5273TIP3    H237235   1.599   4.469  12.515  1.3793  0.2509 -0.1216
 5274TIP3   OH237236   1.659   4.890   5.804 -0.2616  0.3677  0.7039
 5274TIP3    H137237   1.683   4.823   5.867 -1.6364 -0.5001  0.3527
 5274TIP3    H237238   1.582   4.933   5.842 -1.5141 -0.6033 -0.6295
 5275TIP3   OH237239   2.474   1.544   3.135  0.4691 -0.1168  0.2184
 5275TIP3    H137240   2.536   1.611   3.105 -0.9537  0.7122 -1.0320
 5275TIP3    H237241   2.480   1.546   3.230  0.2774  1.9876  0.2245
 5276TIP3   OH237242   0.784   0.703   5.994  0.0351 -0.7672 -0.3055
 5276TIP3    H137243   0.760   0.616   6.027  0.1857 -0.2822  1.1528
 5276TIP3    H237244   0.879   0.698   5.984  0.0113 -0.8583 -0.4872
 5277TIP3   OH237245   3.468   2.225  12.361 -0.1994  0.6310 -0.2885
 5277TIP3    H137246   3.388   2.275  12.347  0.7990  1.7210 -2.5747
 5277TIP3    H237247   3.443   2.134  12.346 -1.2369  0.8260  0.1908
 5278TIP3   OH237248   5.383   2.565   6.440  0.0469 -0.2241  0.0806
 5278TIP3    H137249   5.443   2.564   6.365 -1.0486 -0.8742 -0.8360
 5278TIP3    H237250   5.396   2.480   6.482 -0.9846 -0.8440 -0.7883
 5279TIP3   OH237251   1.037   3.572  11.342 -0.0046 -0.0496 -0.4250
 5279TIP3    H137252   1.063   3.661  11.369 -3.3233  0.7999  0.4745
 5279TIP3    H237253   1.029   3.578  11.247 -1.2127  0.9783 -0.2873
 5280TIP3   OH237254   2.241   4.208   1.697 -0.3828 -1.0786  0.0404
 5280TIP3    H137255   2.163   4.161   1.666 -0.3011 -1.3964  0.3160
 5280TIP3    H237256   2.207   4.274   1.757 -0.5395 -0.4901 -0.6764
 5281TIP3   OH237257   4.975   1.179  16.835  0.3613 -0.2331  0.3485
 5281TIP3    H137258   5.028   1.243  16.788 -0.3240 -0.9771 -1.5325
 5281TIP3    H237259   4.954   1.222  16.918  1.5555  1.1621 -0.0236
 5282TIP3   OH237260   2.964   3.985  14.864 -0.5328 -0.1905  0.0748
 5282TIP3    H137261   2.878   3.990  14.907 -0.7150 -0.6514 -0.2287
 5282TIP3    H237262   2.944   3.977  14.771 -0.1383  0.5369 -0.0797
 5283TIP3   OH237263   2.357   3.294  11.096  0.4401 -0.2294  0.0493
 5283TIP3    H137264   2.317   3.316  11.012  1.6898  0.9730 -0.2747
 5283TIP3    H237265   2.388   3.204  11.085 -0.3735 -0.4636 -0.3839
 5284TIP3   OH237266   3.128   2.864   4.349 -0.0036 -0.6054  0.3458
 5284TIP3    H137267   3.147   2.785   4.299  1.2020 -0.1185 -0.0083
 5284TIP3    H237268   3.179   2.855   4.429  0.1275 -0.2112  0.3123
 5285TIP3   OH237269   2.638   4.934   2.886 -0.1989  0.0381  0.1450
 5285TIP3    H137270   2.573   4.880   2.930 -0.2103 -0.7583 -0.8500
 5285TIP3    H237271   2.587   5.005   2.846 -0.3808 -0.2541 -0.1366
 5286TIP3   OH237272   6.357   1.892   2.838  0.4636  0.1619 -0.1927
 5286TIP3    H137273   6.315   1.807   2.853  0.4815  0.1847 -0.0071
 5286TIP3    H237274   6.358   1.902   2.743  0.2102  0.0804 -0.2033
 5287TIP3   OH237275   6.239   0.810   3.473 -0.2359 -0.3197  0.2499
 5287TIP3    H137276   6.298   0.801   3.548  0.5516 -0.9309 -0.4251
 5287TIP3    H237277   6.238   0.903   3.454 -0.8969 -0.0744  1.3661
 5288TIP3   OH237278   3.263   1.200   1.781 -0.5809 -0.0618 -0.1815
 5288TIP3    H137279   3.224   1.198   1.868 -2.3221  0.8568 -0.8812
 5288TIP3    H237280   3.238   1.116   1.742 -2.0402  0.5575 -0.6574
 5289TIP3   OH237281   6.461   2.539  14.640 -0.2496 -0.5431  0.3489
 5289TIP3    H137282   6.379   2.540  14.590 -0.7413  0.6187  1.1349
 5289TIP3    H237283   6.516   2.603  14.596  0.3226 -1.4425 -0.2773
 5290TIP3   OH237284   4.695   2.139   2.551  0.0135  0.1460 -0.1186
 5290TIP3    H137285   4.705   2.062   2.608  2.2795  1.1024  0.9040
 5290TIP3    H237286   4.717   2.107   2.463  1.9591 -0.2045  0.4566
 5291TIP3   OH237287   6.443   6.649   3.290  0.2375 -0.0684  0.0447
 5291TIP3    H137288   6.453   6.596   3.211  0.3358 -2.0301  1.2966
 5291TIP3    H237289   6.522   6.633   3.341 -0.0773  0.6954  0.8159
 5292TIP3   OH237290   1.435   2.007   5.386  0.1284  0.1864 -0.5659
 5292TIP3    H137291   1.520   1.965   5.374  0.1043 -0.5633  1.4279
 5292TIP3    H237292   1.376   1.957   5.329  0.6764 -0.5289 -0.5221
 5293TIP3   OH237293   4.743   1.776  13.209 -0.1460  0.6258 -0.3922
 5293TIP3    H137294   4.820   1.827  13.236  0.7179 -0.5505 -0.5739
 5293TIP3    H237295   4.737   1.705  13.272  0.2497 -0.5676 -1.6507
 5294TIP3   OH237296   3.999   2.322  12.471  0.3871  0.0399  0.4332
 5294TIP3    H137297   3.913   2.307  12.511 -0.3930  0.6711 -0.9498
 5294TIP3    H237298   4.040   2.388  12.526 -0.8395  1.2017 -0.0142
 5295TIP3   OH237299   3.027   5.669  15.082 -0.0507 -0.2222 -0.0061
 5295TIP3    H137300   3.063   5.585  15.110  0.6249 -0.1201 -0.5615
 5295TIP3    H237301   3.103   5.725  15.071 -0.4181  0.1394 -0.7337
 5296TIP3   OH237302   3.850   3.631  12.600 -0.5175 -0.2908  1.0311
 5296TIP3    H137303   3.833   3.695  12.531  0.3663 -0.6313  0.4775
 5296TIP3    H237304   3.794   3.556  12.579 -1.2097  0.1060  1.4228
 5297TIP3   OH237305   1.522   0.502  15.705 -0.0100 -0.7820 -0.2960
 5297TIP3    H137306   1.600   0.529  15.753  0.3210 -2.0920 -0.0430
 5297TIP3    H237307   1.556   0.468  15.622 -0.5208  0.8202 -1.1875
 5298TIP3   OH237308   0.747   3.163   3.913  0.3100 -0.1923  0.0801
 5298TIP3    H137309   0.837   3.180   3.942  1.1409 -1.6021 -1.5252
 5298TIP3    H237310   0.693   3.210   3.976  2.1747  1.1136  0.8068
 5299TIP3   OH237311   1.899   1.134  15.256  0.3928  0.0235  0.2168
 5299TIP3    H137312   1.939   1.076  15.191  1.7354  1.7422 -0.5799
 5299TIP3    H237313   1.949   1.116  15.336 -0.0306 -0.7835  0.3092
 5300TIP3   OH237314   3.102   5.413   5.672  0.0488  0.4575  0.3393
 5300TIP3    H137315   3.190   5.408   5.709 -0.5325  1.2059  1.9552
 5300TIP3    H237316   3.080   5.323   5.649  1.3374  0.3079 -0.3599
 5301TIP3   OH237317   2.852   6.066   0.117 -0.2857 -0.0960  0.0959
 5301TIP3    H137318   2.807   6.126   0.056 -0.5162 -2.7877 -2.6170
 5301TIP3    H237319   2.795   6.063   0.194 -1.9860  0.6459 -1.0586
 5302TIP3   OH237320   3.032   1.656   0.482 -0.1073 -0.1736 -0.6029
 5302TIP3    H137321   3.125   1.675   0.467 -0.2635  1.0083 -0.1682
 5302TIP3    H237322   2.986   1.728   0.441 -0.8445 -0.7123 -0.7408
 5303TIP3   OH237323   3.308   4.550  12.207 -0.6394 -0.2881 -0.4905
 5303TIP3    H137324   3.318   4.643  12.187  0.2380 -0.2888 -0.0828
 5303TIP3    H237325   3.373   4.532  12.275 -1.1895 -1.0751 -0.1564
 5304TIP3   OH237326   2.871   6.660  12.870  0.5295 -0.2929 -0.2767
 5304TIP3    H137327   2.804   6.703  12.922  1.6914  1.2596  0.0028
 5304TIP3    H237328   2.902   6.588  12.925 -0.2184 -0.4105 -0.0077
 5305TIP3   OH237329   5.779   4.997  14.426 -0.3005  0.4340 -0.3571
 5305TIP3    H137330   5.686   5.013  14.438 -0.1660  0.4229  0.9039
 5305TIP3    H237331   5.791   4.991  14.332 -1.0784  3.5286 -0.7778
 5306TIP3   OH237332   2.293   5.011  12.058  0.3966  0.4115  0.3118
 5306TIP3    H137333   2.337   5.050  12.134 -0.1310 -1.2705  1.5624
 5306TIP3    H237334   2.226   5.075  12.034 -1.2008 -0.0872  2.9918
 5307TIP3   OH237335   1.280   2.254  17.297  0.0430 -0.8687  0.0447
 5307TIP3    H137336   1.231   2.173  17.305  0.4212 -1.0379  0.7092
 5307TIP3    H237337   1.214   2.319  17.272 -0.4565 -1.1670  0.5516
 5308TIP3   OH237338   5.350   5.221   4.114  0.4767  0.8120 -0.7926
 5308TIP3    H137339   5.285   5.158   4.145 -0.2003  1.3638 -1.0675
 5308TIP3    H237340   5.435   5.180   4.133  0.0843  0.6992  0.8511
 5309TIP3   OH237341   1.462   3.629  13.976 -0.2669  0.8787 -0.4342
 5309TIP3    H137342   1.548   3.660  13.949  0.2876  0.1455  0.4213
 5309TIP3    H237343   1.450   3.667  14.063  1.1159 -2.3470  1.3653
 5310TIP3   OH237344   0.637   0.709   4.510 -0.4435  0.2473 -0.2538
 5310TIP3    H137345   0.678   0.793   4.527  1.4881 -1.0065  1.8228
 5310TIP3    H237346   0.676   0.680   4.427 -0.0434  0.7942 -0.2613
 5311TIP3   OH237347   5.967   4.563   5.883 -0.0260  0.1226  0.5713
 5311TIP3    H137348   6.007   4.481   5.856  0.2901  0.7759 -1.0506
 5311TIP3    H237349   6.016   4.589   5.961  1.1294 -0.2757  0.0022
 5312TIP3   OH237350   1.290   4.572   1.725  0.5247  0.0261  0.0164
 5312TIP3    H137351   1.252   4.660   1.721  0.7340  0.0606 -2.7796
 5312TIP3    H237352   1.333   4.569   1.811 -0.4084  2.2302  0.6441
 5313TIP3   OH237353   2.763   3.824   4.325  0.5151  0.0675 -0.3995
 5313TIP3    H137354   2.742   3.782   4.408 -0.2694 -0.1551 -0.6998
 5313TIP3    H237355   2.720   3.910   4.330 -0.8064 -0.5230 -1.1553
 5314TIP3   OH237356   0.472   4.803  12.296 -0.1391 -0.2217  0.8443
 5314TIP3    H137357   0.416   4.831  12.368 -0.8752  1.2215 -0.2509
 5314TIP3    H237358   0.449   4.711  12.283 -1.9532  0.2211  0.7043
 5315TIP3   OH237359   4.609   1.219   4.235 -0.0852  0.4970  0.6476
 5315TIP3    H137360   4.584   1.136   4.193 -0.8491  0.8823  0.3143
 5315TIP3    H237361   4.562   1.218   4.318 -1.0406  1.1034  0.1369
 5316TIP3   OH237362   3.262   6.142   0.727  0.0206 -0.0070 -0.3168
 5316TIP3    H137363   3.286   6.157   0.819 -0.4606 -0.4265 -0.1194
 5316TIP3    H237364   3.315   6.067   0.700 -1.1796 -1.0643  0.1801
 5317TIP3   OH237365   2.659   4.714  16.598  0.1458 -0.7954 -0.0520
 5317TIP3    H137366   2.604   4.750  16.530 -0.6408 -2.4797 -0.3524
 5317TIP3    H237367   2.609   4.641  16.634  1.4600 -1.3069  0.8361
 5318TIP3   OH237368   0.158   0.779  16.423  0.3237  0.0978  0.7229
 5318TIP3    H137369   0.083   0.731  16.459  0.6008 -1.2062 -0.3753
 5318TIP3    H237370   0.228   0.764  16.487  0.6263 -1.6558  0.0363
 5319TIP3   OH237371   6.574   4.942   5.662  0.7142 -0.1880 -0.1523
 5319TIP3    H137372   6.574   4.860   5.710 -0.5863  0.7143  1.4947
 5319TIP3    H237373   6.666   4.961   5.645  1.1064 -1.2646  0.7074
 5320TIP3   OH237374   4.811   4.987   2.760  0.6611 -0.0455 -0.3666
 5320TIP3    H137375   4.795   4.978   2.666  0.5114  0.7569 -0.4183
 5320TIP3    H237376   4.787   5.077   2.781  0.2654 -0.3434  0.5311
 5321TIP3   OH237377   1.660   6.586   4.659 -0.4061  0.3975 -0.4715
 5321TIP3    H137378   1.582   6.576   4.713 -0.2989  1.5891 -0.0673
 5321TIP3    H237379   1.627   6.606   4.572 -0.5643  0.7030 -0.3433
 5322TIP3   OH237380   3.456   2.776   3.223 -0.2716  0.1397  0.4953
 5322TIP3    H137381   3.417   2.861   3.206 -2.4114 -1.2413 -2.3286
 5322TIP3    H237382   3.451   2.766   3.318 -1.5894  2.4157  0.7247
 5323TIP3   OH237383   1.319   1.770   2.507 -0.1730 -0.3068 -0.3605
 5323TIP3    H137384   1.342   1.863   2.503  2.6947 -0.9698 -2.7216
 5323TIP3    H237385   1.335   1.746   2.598 -1.1351  1.4784  0.3401
 5324TIP3   OH237386   1.800   5.641  15.396 -0.1273  0.3065 -0.0412
 5324TIP3    H137387   1.844   5.558  15.417 -0.2422  0.6063  1.4406
 5324TIP3    H237388   1.742   5.657  15.470 -2.2995  0.2548 -1.6622
 5325TIP3   OH237389   5.206   5.296  13.780 -0.9481  0.4469 -0.1598
 5325TIP3    H137390   5.241   5.361  13.840 -2.8379  0.5765  0.8530
 5325TIP3    H237391   5.184   5.345  13.701  0.6032  0.4459 -0.6250
 5326TIP3   OH237392   3.535   6.166   1.264 -0.0154  0.6978  0.1044
 5326TIP3    H137393   3.574   6.252   1.249 -1.6439  1.5358  0.5177
 5326TIP3    H237394   3.549   6.119   1.182  0.5448  1.4846 -0.2642
 5327TIP3   OH237395   4.113   4.980  12.812 -0.3441  0.1808 -0.2680
 5327TIP3    H137396   4.034   4.948  12.768 -1.3872 -0.1474  1.7134
 5327TIP3    H237397   4.142   4.906  12.865 -0.5846  1.2909  1.4699
 5328TIP3   OH237398   2.662   1.313   4.390 -0.1655  0.8169 -0.7962
 5328TIP3    H137399   2.580   1.307   4.340 -0.6930  1.5256 -0.0343
 5328TIP3    H237400   2.661   1.235   4.446  0.4866 -0.0449 -1.9428
 5329TIP3   OH237401   2.515   0.438   2.766 -0.2624  0.6505 -0.0732
 5329TIP3    H137402   2.488   0.347   2.780 -1.0335  0.8160 -0.4249
 5329TIP3    H237403   2.447   0.490   2.810  1.0490  1.0531  1.6089
 5330TIP3   OH237404   0.657   2.129   0.017 -0.1450 -0.3010  0.0594
 5330TIP3    H137405   0.743   2.124  -0.025 -0.0563  0.1037  0.1917
 5330TIP3    H237406   0.642   2.041   0.051  0.3295 -0.3059  0.2559
 5331TIP3   OH237407   1.383   4.702  11.837 -0.0657 -0.1810 -0.3707
 5331TIP3    H137408   1.393   4.774  11.774 -1.3164  2.0733  1.8286
 5331TIP3    H237409   1.290   4.682  11.837  0.1135 -1.0797 -0.1377
 5332TIP3   OH237410   2.287   6.716  16.552 -0.4369  0.2489 -0.4624
 5332TIP3    H137411   2.230   6.643  16.530 -2.3923  1.6648 -0.3046
 5332TIP3    H237412   2.261   6.786  16.493 -0.2858  1.5857  0.9907
 5333TIP3   OH237413   2.976   3.491  11.425 -0.2290  0.5610  0.0853
 5333TIP3    H137414   3.005   3.452  11.342  1.3136  0.3937  0.6674
 5333TIP3    H237415   2.920   3.425  11.465  0.3019 -0.0190 -0.1081
 5334TIP3   OH237416   1.642   0.585   3.876  0.2089 -0.0823  0.1369
 5334TIP3    H137417   1.735   0.596   3.852  0.2448 -0.7242 -0.0294
 5334TIP3    H237418   1.609   0.521   3.813  0.0535 -1.0543  1.1782
 5335TIP3   OH237419   2.692   6.460   4.634  0.0243  0.0498 -0.1503
 5335TIP3    H137420   2.597   6.460   4.627  0.0878  0.8994 -1.4094
 5335TIP3    H237421   2.722   6.456   4.543  1.2075 -1.6572  0.2729
 5336TIP3   OH237422   0.862   5.484  11.526 -0.0382  0.8090  0.2794
 5336TIP3    H137423   0.817   5.509  11.445 -1.8657  1.8018  1.5306
 5336TIP3    H237424   0.924   5.555  11.542  1.0621  0.1099 -0.7433
 5337TIP3   OH237425   5.253   5.132  13.180  0.1612 -0.1262 -0.3569
 5337TIP3    H137426   5.200   5.055  13.158 -0.5572 -0.6230  2.7392
 5337TIP3    H237427   5.292   5.112  13.264  0.1546  2.7769  0.4515
 5338TIP3   OH237428   1.878   5.191   0.274 -0.7466  0.4971  0.5335
 5338TIP3    H137429   1.893   5.116   0.215 -0.3760 -0.1271  1.3942
 5338TIP3    H237430   1.837   5.152   0.352  0.5332  0.9843  1.4839
 5339TIP3   OH237431   0.223   1.348   4.257 -0.1768  0.2619  0.2003
 5339TIP3    H137432   0.175   1.274   4.293 -2.1547  0.9820 -0.8021
 5339TIP3    H237433   0.290   1.308   4.201 -0.4721 -0.7736  0.5583
 5340TIP3   OH237434   5.570   0.941   4.331 -0.1112 -0.0328  0.4882
 5340TIP3    H137435   5.491   0.983   4.296  0.5353  2.9995  2.2846
 5340TIP3    H237436   5.538   0.865   4.379 -1.6204 -0.3286 -0.8973
 5341TIP3   OH237437   3.254   3.359  13.676  0.6291 -0.5655 -0.3094
 5341TIP3    H137438   3.319   3.291  13.696  2.9921  1.8163  0.9227
 5341TIP3    H237439   3.242   3.355  13.582  2.3941 -1.3151 -0.5400
 5342TIP3   OH237440   0.585   6.727  10.526 -0.1822 -0.1551  0.2743
 5342TIP3    H137441   0.493   6.750  10.541 -0.1037  0.2543  0.1311
 5342TIP3    H237442   0.587   6.631  10.536 -0.1792  0.0229  2.6288
 5343TIP3   OH237443   2.704   3.460   1.525 -0.0322 -0.1331  0.3899
 5343TIP3    H137444   2.655   3.405   1.463 -2.3927  0.0545  1.9693
 5343TIP3    H237445   2.767   3.507   1.470 -1.2795 -0.7584 -1.7056
 5344TIP3   OH237446   2.473   2.720  15.396  0.1899 -0.2214  0.3514
 5344TIP3    H137447   2.542   2.694  15.457 -1.0693  0.9530  2.3821
 5344TIP3    H237448   2.466   2.646  15.335  3.1136 -0.4286  0.1022
 5345TIP3   OH237449   2.281   5.757  13.356 -0.5112  0.3628 -0.6466
 5345TIP3    H137450   2.332   5.678  13.373  0.1915  0.8285 -0.5269
 5345TIP3    H237451   2.300   5.778  13.265 -0.2657  0.6952 -0.5197
 5346TIP3   OH237452   1.246   1.621  15.743 -0.1804 -0.1507 -0.1331
 5346TIP3    H137453   1.231   1.531  15.773 -0.4893  0.0723  0.4038
 5346TIP3    H237454   1.315   1.654  15.801 -0.4524  0.1315  0.0335
 5347TIP3   OH237455   5.852   4.086   1.402  0.7721  0.2677 -0.0172
 5347TIP3    H137456   5.767   4.090   1.447  0.1809 -2.4427 -0.7586
 5347TIP3    H237457   5.916   4.093   1.473 -0.0926  0.2122  0.7963
 5348TIP3   OH237458   3.822   0.993   3.280 -1.0881 -0.3284 -0.0593
 5348TIP3    H137459   3.767   1.008   3.358  1.4112 -0.0376  1.7823
 5348TIP3    H237460   3.827   1.078   3.237 -3.0381 -0.6383 -1.0086
 5349TIP3   OH237461   3.470   4.514  14.152  0.8615 -0.2552  0.3887
 5349TIP3    H137462   3.382   4.530  14.187  1.5456  0.7694  1.7293
 5349TIP3    H237463   3.487   4.422  14.172 -0.9083 -1.3218 -2.3355
 5350TIP3   OH237464   2.804   0.948  14.974  0.4122 -0.1961  0.0298
 5350TIP3    H137465   2.874   0.993  14.927 -0.0873 -0.2140 -0.7581
 5350TIP3    H237466   2.839   0.861  14.993  0.7437 -0.0698  0.0093
 5351TIP3   OH237467   3.386   5.531  15.121  0.4449 -0.0910 -0.7552
 5351TIP3    H137468   3.327   5.563  15.189  1.6105  1.9894 -0.6173
 5351TIP3    H237469   3.423   5.451  15.158  0.4799  0.5810  0.7694
 5352TIP3   OH237470   2.063   5.901  11.381  0.1434 -0.4534  0.3540
 5352TIP3    H137471   1.981   5.873  11.423  0.3498  0.8478  1.7004
 5352TIP3    H237472   2.047   5.888  11.287 -1.9530  0.5824  0.5035
 5353TIP3   OH237473   0.178   3.376   1.447 -0.0976 -0.2505  0.4066
 5353TIP3    H137474   0.233   3.402   1.373 -1.2233  1.3429  0.0967
 5353TIP3    H237475   0.089   3.391   1.417 -0.7031 -1.8019  1.2857
 5354TIP3   OH237476   5.379   5.507   3.590 -0.0964  0.1404 -0.3068
 5354TIP3    H137477   5.424   5.424   3.572  0.3252  0.4937 -0.9037
 5354TIP3    H237478   5.438   5.554   3.649  0.1700  0.4711 -0.8361
 5355TIP3   OH237479   2.838   3.467   0.070  0.1355 -0.9990  0.6526
 5355TIP3    H137480   2.909   3.406   0.051 -1.5238 -2.7951 -0.1614
 5355TIP3    H237481   2.801   3.435   0.153 -0.1547 -0.5308  0.7048
 5356TIP3   OH237482   1.782   4.967   3.669  0.3073 -0.4568 -0.4199
 5356TIP3    H137483   1.781   5.045   3.615  2.3982 -1.8087 -2.6011
 5356TIP3    H237484   1.868   4.968   3.712 -1.0728  0.2855  2.5706
 5357TIP3   OH237485   2.588   0.194   3.530 -0.0317 -0.5990 -0.1369
 5357TIP3    H137486   2.633   0.250   3.467 -0.2347 -0.0008  0.2428
 5357TIP3    H237487   2.499   0.186   3.496 -0.2352 -0.0016  0.2385
 5358TIP3   OH237488   3.195   2.690  12.532  0.5634 -0.3680  0.2289
 5358TIP3    H137489   3.184   2.783  12.550 -0.3976 -0.1075 -1.4895
 5358TIP3    H237490   3.278   2.685  12.484  0.1893 -0.2752 -0.4334
 5359TIP3   OH237491   5.154   3.917  16.958  0.4357 -0.0969  0.0881
 5359TIP3    H137492   5.149   3.937  17.051  3.2444  1.5866  0.0084
 5359TIP3    H237493   5.077   3.960  16.920  0.2906  0.8640  1.4107
 5360TIP3   OH237494   4.534   2.487   2.114  0.5683 -0.2271 -0.0226
 5360TIP3    H137495   4.581   2.456   2.191  0.3190  2.2703  1.2258
 5360TIP3    H237496   4.445   2.452   2.124  0.3567  0.5994  1.2249
 5361TIP3   OH237497   2.370   4.598   5.052  0.0734 -0.4373 -0.5038
 5361TIP3    H137498   2.366   4.516   5.003  3.5217 -1.1397  0.0967
 5361TIP3    H237499   2.448   4.643   5.019 -1.0321  2.0804  0.0268
 5362TIP3   OH237500   1.537   3.555  13.207  0.6347 -0.2490  0.1756
 5362TIP3    H137501   1.508   3.472  13.244 -1.1698  0.2690  0.0431
 5362TIP3    H237502   1.527   3.618  13.279 -0.3324  0.2734 -0.3897
 5363TIP3   OH237503   3.302   1.250   4.192 -0.1243 -0.0619  0.4258
 5363TIP3    H137504   3.314   1.225   4.284  2.0667  0.9466  0.4735
 5363TIP3    H237505   3.228   1.310   4.193  0.0719  0.1857  1.5798
 5364TIP3   OH237506   1.193   6.069  11.312 -0.4652  0.6383  0.3065
 5364TIP3    H137507   1.183   6.101  11.222  1.4585  0.1914 -0.1268
 5364TIP3    H237508   1.146   5.986  11.314  0.7897 -0.1452 -0.8089
 5365TIP3   OH237509   1.493   6.108  15.982 -0.3854 -0.0011 -0.2726
 5365TIP3    H137510   1.467   6.100  15.890 -1.7649  0.2380  0.0862
 5365TIP3    H237511   1.472   6.023  16.020 -1.1899  0.3748  0.1444
 5366TIP3   OH237512   4.325   4.305  16.676 -0.1982  0.2060 -0.6262
 5366TIP3    H137513   4.286   4.306  16.588 -2.0284  0.4945  0.1535
 5366TIP3    H237514   4.317   4.396  16.706  2.2235  0.5697 -0.8729
 5367TIP3   OH237515   6.355   5.184   2.556 -0.1797  0.3426  0.5250
 5367TIP3    H137516   6.371   5.090   2.560 -0.0024  0.2949 -1.0239
 5367TIP3    H237517   6.260   5.193   2.563 -0.3169 -0.0506 -0.7721
 5368TIP3   OH237518   5.173   3.617  15.980  0.0937 -0.0115 -0.3590
 5368TIP3    H137519   5.240   3.572  15.927  0.0955  0.8468 -1.1004
 5368TIP3    H237520   5.090   3.590  15.941  0.1159  1.1363 -1.2449
 5369TIP3   OH237521   2.953   5.360  15.158 -0.1710  0.2478  0.2726
 5369TIP3    H137522   2.899   5.281  15.166  1.2834 -0.8049 -0.0027
 5369TIP3    H237523   3.035   5.338  15.201  1.7186  0.2262 -3.0124
 5370TIP3   OH237524   5.339   3.471  15.804  0.2210 -0.2099  0.3784
 5370TIP3    H137525   5.434   3.478  15.813  0.3102 -1.8293  1.1022
 5370TIP3    H237526   5.326   3.400  15.741 -0.4880 -0.9545  1.3314
 5371TIP3   OH237527   6.520   2.804  12.786  0.2774 -0.1573  0.4692
 5371TIP3    H137528   6.442   2.757  12.754  1.2498 -1.1555 -0.5481
 5371TIP3    H237529   6.491   2.894  12.797 -1.4887 -0.8231  1.8284
 5372TIP3   OH237530   3.140   1.715  15.330  0.0869  0.4282  0.5032
 5372TIP3    H137531   3.157   1.645  15.392 -0.4379  0.6507  0.9128
 5372TIP3    H237532   3.202   1.701  15.258  0.1855 -0.2716  0.7247
 5373TIP3   OH237533   5.337   2.522   2.555 -0.1008 -0.1430 -0.0230
 5373TIP3    H137534   5.257   2.474   2.576  0.2130  0.3291  2.6521
 5373TIP3    H237535   5.316   2.571   2.476 -2.1652 -0.7015  0.1298
 5374TIP3   OH237536   0.838   1.741   3.729  0.2131 -0.1941  0.7378
 5374TIP3    H137537   0.820   1.806   3.662 -2.9840 -2.2117 -0.6046
 5374TIP3    H237538   0.918   1.697   3.699  0.5312  0.9076 -0.0915
 5375TIP3   OH237539   1.169   0.143  15.381 -0.0720 -0.1961 -0.1259
 5375TIP3    H137540   1.147   0.222  15.332  0.1847 -1.0942 -1.7920
 5375TIP3    H237541   1.110   0.076  15.345  0.5743 -1.0322  0.3386
 5376TIP3   OH237542   3.240   0.047  12.044  0.0131 -0.5670 -0.2025
 5376TIP3    H137543   3.219   0.026  12.135  1.0008 -1.3439 -0.1359
 5376TIP3    H237544   3.306  -0.018  12.019  0.1923  0.0093 -1.2844
 5377TIP3   OH237545   1.779   0.925  16.962  0.7549 -0.0264 -0.0201
 5377TIP3    H137546   1.708   0.930  16.898  2.1600 -1.2158 -1.7590
 5377TIP3    H237547   1.812   1.014  16.968 -1.2072  0.6838  1.2793
 5378TIP3   OH237548   4.755   6.422   5.249  0.4306 -0.4074 -0.1005
 5378TIP3    H137549   4.747   6.514   5.224  0.0231  0.0403  1.5637
 5378TIP3    H237550   4.738   6.374   5.168 -2.1376  0.9242 -0.4724
 5379TIP3   OH237551   3.617   1.533   1.447 -0.2152  0.3277 -0.2142
 5379TIP3    H137552   3.669   1.515   1.525 -0.6802 -0.6214 -0.1082
 5379TIP3    H237553   3.576   1.449   1.426 -0.1889  0.5972 -1.4123
 5380TIP3   OH237554   5.605   6.316  15.966 -0.1637 -0.3461 -0.1173
 5380TIP3    H137555   5.554   6.279  15.894 -0.1937  0.7740 -0.6958
 5380TIP3    H237556   5.654   6.388  15.926 -0.5601  0.6170  1.0688
 5381TIP3   OH237557   4.800   1.699   3.634 -0.5597 -0.2454 -0.3237
 5381TIP3    H137558   4.711   1.707   3.598 -1.7579 -2.3450  1.8603
 5381TIP3    H237559   4.787   1.663   3.721  2.4704 -0.2746  0.2206
 5382TIP3   OH237560   4.609   1.055  11.846 -0.0493  0.5619  0.1761
 5382TIP3    H137561   4.606   1.129  11.785 -0.8143 -0.0749 -0.5843
 5382TIP3    H237562   4.642   1.093  11.928  1.6488  1.2999 -0.8104
 5383TIP3   OH237563   4.920   5.390  13.619  0.6320  0.6380 -0.5406
 5383TIP3    H137564   4.955   5.332  13.686  0.4233 -1.6195 -2.2732
 5383TIP3    H237565   4.825   5.386  13.630  0.6250  0.8683 -0.5030
 5384TIP3   OH237566   2.979   3.031  16.929 -0.0984  0.5002  0.4523
 5384TIP3    H137567   2.940   2.956  16.972  0.9745  0.2472  1.0141
 5384TIP3    H237568   3.031   2.993  16.858  0.4306  0.7144  0.7260
 5385TIP3   OH237569   0.867   6.556  15.738  0.1527 -0.0513 -0.0787
 5385TIP3    H137570   0.830   6.593  15.818 -1.2145  1.7843 -1.4575
 5385TIP3    H237571   0.929   6.621  15.707 -2.4734  1.4420 -2.6828
 5386TIP3   OH237572   0.365   2.315   5.928  0.2112  0.7596  0.2511
 5386TIP3    H137573   0.442   2.286   5.880 -0.6853  1.2564 -1.5686
 5386TIP3    H237574   0.347   2.244   5.989  0.2554 -0.8289 -1.4826
 5387TIP3   OH237575   3.597   3.978   1.615 -0.6790  0.2101 -0.4178
 5387TIP3    H137576   3.562   3.999   1.702 -0.5530 -1.2661  0.0151
 5387TIP3    H237577   3.689   3.956   1.631 -0.2583  1.3512 -1.1522
 5388TIP3   OH237578   0.946   3.367  14.925  0.3406 -0.0820  0.2133
 5388TIP3    H137579   0.979   3.297  14.868  1.6388  0.8462 -0.2212
 5388TIP3    H237580   0.946   3.329  15.013  0.2561 -0.8752 -0.1196
 5389TIP3   OH237581   1.773   1.639  15.291  0.2560 -0.3338 -0.2252
 5389TIP3    H137582   1.693   1.678  15.326 -0.9570  1.0456 -4.1141
 5389TIP3    H237583   1.746   1.553  15.259  0.6489 -0.3955 -0.3971
 5390TIP3   OH237584   3.978   1.116  13.577 -0.1893  0.0962  0.2396
 5390TIP3    H137585   3.953   1.115  13.485 -1.7421 -0.2318  0.6396
 5390TIP3    H237586   3.997   1.208  13.596  3.5310 -0.2040 -1.2123
 5391TIP3   OH237587   6.203   5.309   3.398  0.1573 -0.2519 -0.1167
 5391TIP3    H137588   6.125   5.346   3.441  0.7547  0.6179  0.2616
 5391TIP3    H237589   6.201   5.216   3.421 -1.2909 -0.4485 -0.9283
 5392TIP3   OH237590   0.946   6.443   3.292  0.2226  0.2130  0.4686
 5392TIP3    H137591   0.937   6.378   3.222 -0.3375  0.9526 -0.1642
 5392TIP3    H237592   1.038   6.469   3.289  0.2961 -0.0615  0.2862
 5393TIP3   OH237593   4.080   3.402  14.037 -0.2774  0.3735 -0.0239
 5393TIP3    H137594   4.084   3.360  14.123 -0.6987  0.4840  0.0502
 5393TIP3    H237595   4.123   3.340  13.978 -1.3226 -0.3901 -0.0058
 5394TIP3   OH237596   6.316   0.319   3.786 -0.1236  0.4603  1.0146
 5394TIP3    H137597   6.373   0.344   3.713 -0.7120 -0.0387  0.3658
 5394TIP3    H237598   6.229   0.309   3.746 -0.0830 -1.8330  1.3443
 5395TIP3   OH237599   4.635   5.881   6.075  0.5171 -0.1561 -0.2951
 5395TIP3    H137600   4.673   5.821   6.011  1.6258  1.1536 -0.9101
 5395TIP3    H237601   4.707   5.900   6.135  0.5695  1.4795 -0.8180
 5396TIP3   OH237602   3.708   4.381   5.528 -0.0018 -0.0582  0.2261
 5396TIP3    H137603   3.721   4.455   5.469  0.1664  0.4443  0.8933
 5396TIP3    H237604   3.710   4.418   5.616 -1.7111 -0.5790  0.5262
 5397TIP3   OH237605   0.797   3.480   0.421  0.0767 -1.0977  1.0182
 5397TIP3    H137606   0.844   3.399   0.441  1.5071 -0.1694  1.5595
 5397TIP3    H237607   0.861   3.550   0.437  0.2337  0.0174 -3.2538
 5398TIP3   OH237608   2.303   5.682   1.427 -0.2172  0.1718  0.0735
 5398TIP3    H137609   2.379   5.657   1.374 -0.1376 -1.3112  0.8517
 5398TIP3    H237610   2.328   5.767   1.464  0.1234  0.7793 -1.4447
 5399TIP3   OH237611   6.498   6.302   5.608  0.1117 -0.2885 -0.3013
 5399TIP3    H137612   6.582   6.329   5.571  0.1168  0.5858  0.3069
 5399TIP3    H237613   6.442   6.286   5.531 -0.1625  2.3879 -0.7643
 5400TIP3   OH237614   4.895   3.802   3.230 -0.5212  0.2112  0.2578
 5400TIP3    H137615   4.865   3.718   3.263 -0.1094  0.4075  1.1586
 5400TIP3    H237616   4.864   3.805   3.140 -1.5741 -0.3921  0.5849
 5401TIP3   OH237617   5.295   3.046   0.208 -0.7203 -0.2558  0.2886
 5401TIP3    H137618   5.276   3.045   0.114  1.6392 -0.5108 -0.2500
 5401TIP3    H237619   5.324   2.956   0.227 -2.1073 -0.4847  1.5196
 5402TIP3   OH237620   4.398   6.327  15.663  0.6211 -0.3113 -0.1569
 5402TIP3    H137621   4.313   6.312  15.622  0.6329 -2.0773  0.3592
 5402TIP3    H237622   4.388   6.410  15.709 -1.1642 -0.9017  0.6509
 5403TIP3   OH237623   3.387   5.025   2.423 -0.2825 -0.4664  0.2044
 5403TIP3    H137624   3.419   5.034   2.333 -0.9572 -2.2845 -0.2538
 5403TIP3    H237625   3.429   4.946   2.456  1.0121  0.8845  2.0024
 5404TIP3   OH237626   2.367   1.523   1.363  0.6163 -0.3352 -0.2032
 5404TIP3    H137627   2.290   1.553   1.411  0.8252  0.8991 -0.6020
 5404TIP3    H237628   2.438   1.581   1.392  1.8495 -2.5554  1.4691
 5405TIP3   OH237629   0.223   0.339   5.728  0.2188  0.3777  0.2821
 5405TIP3    H137630   0.294   0.275   5.736  1.6437  2.0860  2.1673
 5405TIP3    H237631   0.257   0.406   5.670 -0.4694  0.4694 -0.0276
 5406TIP3   OH237632   6.230   1.941   0.964 -0.1804 -0.2623 -0.7957
 5406TIP3    H137633   6.177   2.017   0.940 -0.8680 -0.5786 -0.3100
 5406TIP3    H237634   6.192   1.910   1.046  1.8020  0.5079  0.4783
 5407TIP3   OH237635   4.757   0.609   1.361 -0.5174  0.1382  0.2830
 5407TIP3    H137636   4.672   0.636   1.327 -0.7791  0.1180  0.9078
 5407TIP3    H237637   4.820   0.640   1.296 -1.1925 -2.9012 -2.0873
 5408TIP3   OH237638   1.162   5.763  14.915  0.1975  0.5932 -0.4468
 5408TIP3    H137639   1.188   5.785  15.005 -0.5866  1.9259 -0.5181
 5408TIP3    H237640   1.075   5.803  14.905  0.0998  0.1101 -1.6717
 5409TIP3   OH237641   3.804   2.615   1.819 -0.5638  0.0173  0.3596
 5409TIP3    H137642   3.831   2.580   1.735  0.2380  1.0093  0.1948
 5409TIP3    H237643   3.775   2.704   1.800 -1.2610 -0.0653  0.9896
 5410TIP3   OH237644   6.525   3.845   5.024  0.3630  0.2409 -0.1762
 5410TIP3    H137645   6.475   3.765   5.007  0.0246  0.2329  0.8294
 5410TIP3    H237646   6.596   3.818   5.081 -0.1993  0.7720  0.8175
 5411TIP3   OH237647   2.710   5.777  16.551  0.5826 -0.1528  0.2506
 5411TIP3    H137648   2.727   5.748  16.641  0.1328  2.3499  1.2363
 5411TIP3    H237649   2.791   5.820  16.524  0.3655  0.0109 -0.1485
 5412TIP3   OH237650   5.487   0.274   2.659 -0.1439  0.2464 -0.3982
 5412TIP3    H137651   5.475   0.369   2.654 -3.6827  0.0549  0.9477
 5412TIP3    H237652   5.448   0.249   2.743  3.8518 -2.1387  1.0444
 5413TIP3   OH237653   6.660   0.495  13.967 -0.7088  0.2310 -0.4164
 5413TIP3    H137654   6.714   0.459  13.897  0.8003  1.1256  0.2605
 5413TIP3    H237655   6.717   0.495  14.044 -1.3234  2.1473  0.0882
 5414TIP3   OH237656   2.408   3.195   1.109 -0.1939 -0.3397 -0.1479
 5414TIP3    H137657   2.433   3.281   1.077  2.0235 -0.9143 -0.0761
 5414TIP3    H237658   2.415   3.201   1.204  2.2277 -1.1645 -0.2029
 5415TIP3   OH237659   3.888   2.266  11.252  0.1240  0.3911  0.0363
 5415TIP3    H137660   3.814   2.270  11.192 -0.5990  2.1792  0.9781
 5415TIP3    H237661   3.922   2.177  11.242 -0.6723  0.2653 -2.1377
 5416TIP3   OH237662   0.206   5.187  13.004  0.2876  0.2943  0.7000
 5416TIP3    H137663   0.294   5.171  13.038  0.5455 -0.3940 -0.2672
 5416TIP3    H237664   0.179   5.104  12.966  0.7836  1.4680 -2.4967
 5417TIP3   OH237665   4.723   4.897  14.110 -0.1587  0.2377  0.9528
 5417TIP3    H137666   4.712   4.955  14.035 -1.7546  0.4503  1.3231
 5417TIP3    H237667   4.815   4.910  14.137 -0.2627  2.0155  0.5465
 5418TIP3   OH237668   5.867   6.073  13.719 -0.0042  0.3097 -0.0886
 5418TIP3    H137669   5.937   6.136  13.732  2.0255 -1.8857  0.4119
 5418TIP3    H237670   5.879   6.009  13.789 -2.4596 -0.2433 -0.0750
 5419TIP3   OH237671   6.184   1.594   3.357 -0.0018 -0.2567 -0.1355
 5419TIP3    H137672   6.102   1.631   3.325  0.4762  1.0498  0.0895
 5419TIP3    H237673   6.190   1.626   3.447  0.0082 -1.6301  0.3731
 5420TIP3   OH237674   3.749   0.485   2.464 -0.1856  0.3440  0.5178
 5420TIP3    H137675   3.718   0.545   2.532 -1.5502 -1.4934  1.6116
 5420TIP3    H237676   3.700   0.404   2.480  0.9705 -0.7965 -1.4116
 5421TIP3   OH237677   5.201   4.969  15.158 -0.6431 -0.1431 -0.3090
 5421TIP3    H137678   5.270   4.907  15.134  0.7213  0.6922  1.2586
 5421TIP3    H237679   5.238   5.055  15.138 -1.5433  0.2866 -0.1744
 5422TIP3   OH237680   1.975   4.594   2.008 -0.2642 -0.1439 -0.4511
 5422TIP3    H137681   1.901   4.639   1.966 -0.4892 -1.4435 -1.4876
 5422TIP3    H237682   1.936   4.556   2.088 -1.3076 -2.5340 -1.9710
 5423TIP3   OH237683   4.143   1.157  12.734  1.0211 -0.4279 -0.3089
 5423TIP3    H137684   4.161   1.069  12.702  1.2098 -0.1556 -0.9793
 5423TIP3    H237685   4.087   1.196  12.667 -1.4475 -0.9732  1.3233
 5424TIP3   OH237686   1.195   5.633   5.906  0.0127  0.0762  0.7696
 5424TIP3    H137687   1.257   5.604   5.974  0.5869  0.2422  0.3218
 5424TIP3    H237688   1.133   5.689   5.953  0.8740  0.8495  1.0328
 5425TIP3   OH237689   3.967   3.043  14.429 -0.3151  0.4622 -0.0575
 5425TIP3    H137690   3.947   2.993  14.508  0.9650 -0.0224 -0.0332
 5425TIP3    H237691   4.004   3.125  14.462  0.7715  0.0176 -0.1577
 5426TIP3   OH237692   3.057   4.770   6.096 -0.0019  0.3558 -0.3631
 5426TIP3    H137693   3.139   4.772   6.047  0.0780  1.1289 -0.1974
 5426TIP3    H237694   3.061   4.846   6.153 -2.4773  2.6934 -3.0081
 5427TIP3   OH237695   3.684   5.582  14.959 -0.1055 -0.1164  0.6540
 5427TIP3    H137696   3.644   5.610  14.876  1.3081  1.3933  0.4299
 5427TIP3    H237697   3.617   5.600  15.025 -0.8474 -0.3062 -0.0302
 5428TIP3   OH237698   1.465   4.622  13.665  0.2976  0.0166 -0.7521
 5428TIP3    H137699   1.486   4.680  13.739  1.2601 -0.3863 -0.6985
 5428TIP3    H237700   1.527   4.647  13.597  1.3085 -1.5018 -0.4289
 5429TIP3   OH237701   5.845   2.135   0.463 -0.3042  0.1109  0.0161
 5429TIP3    H137702   5.931   2.115   0.497 -0.3812 -0.0377  0.1226
 5429TIP3    H237703   5.802   2.050   0.453  0.0557  0.0647 -1.3504
 5430TIP3   OH237704   4.560   0.089   4.196 -0.5627 -0.8176 -0.5604
 5430TIP3    H137705   4.497   0.018   4.201 -0.2729 -1.0037  0.7610
 5430TIP3    H237706   4.535   0.138   4.117 -1.8412 -1.3506 -0.5095
 5431TIP3   OH237707   0.350   5.402  10.593  0.1738  0.0651 -0.0683
 5431TIP3    H137708   0.344   5.435  10.683  1.4638  1.6342 -0.5226
 5431TIP3    H237709   0.331   5.477  10.538 -0.8421 -0.9395 -1.1492
 5432TIP3   OH237710   4.243   2.823   2.934 -0.3974  0.6125  0.2700
 5432TIP3    H137711   4.210   2.861   2.852 -0.6736 -0.1679  0.0116
 5432TIP3    H237712   4.324   2.870   2.951  0.7374 -0.5545 -1.5265
 5433TIP3   OH237713   2.563   2.204  17.163  0.1126  0.3474 -0.0559
 5433TIP3    H137714   2.654   2.217  17.135  1.3685 -2.7752  1.9476
 5433TIP3    H237715   2.557   2.249  17.247  0.3832 -0.7827  0.5936
 5434TIP3   OH237716   5.846   2.694  15.643 -0.2617 -0.4681  0.1038
 5434TIP3    H137717   5.863   2.692  15.738  0.8486 -0.8562 -0.0906
 5434TIP3    H237718   5.831   2.602  15.620 -1.3598 -0.2847  0.0305
 5435TIP3   OH237719   0.402   5.254  12.093  0.2511  0.2123  0.1972
 5435TIP3    H137720   0.316   5.216  12.113  1.0008 -1.7357 -0.0876
 5435TIP3    H237721   0.384   5.318  12.024 -1.1006  0.6241  0.8828
 5436TIP3   OH237722   0.556   5.159   0.450  0.0958 -0.5855 -0.2060
 5436TIP3    H137723   0.501   5.237   0.445  0.5230 -0.1404  1.4107
 5436TIP3    H237724   0.586   5.145   0.361 -0.8662  0.4451 -0.7223
 5437TIP3   OH237725   4.223   1.037   3.746 -0.1939 -0.0415 -0.3807
 5437TIP3    H137726   4.139   1.054   3.705 -0.7312  1.7551  1.3186
 5437TIP3    H237727   4.201   0.990   3.827  0.4171  0.3957  0.0518
 5438TIP3   OH237728   3.761   4.558   1.557 -0.6397 -0.2182 -0.7514
 5438TIP3    H137729   3.679   4.576   1.512 -0.7659  0.0240 -0.4313
 5438TIP3    H237730   3.754   4.467   1.585 -1.4981  0.2627  0.6976
 5439TIP3   OH237731   6.627   5.817   0.551 -0.2678  0.8737  0.4298
 5439TIP3    H137732   6.615   5.837   0.643 -2.2861 -2.1160  0.9545
 5439TIP3    H237733   6.546   5.845   0.509  0.0868  0.9757 -0.1988
 5440TIP3   OH237734   3.727   3.947  13.803 -0.3678  0.5643 -0.6866
 5440TIP3    H137735   3.763   3.866  13.767  0.6507  0.0749  1.3039
 5440TIP3    H237736   3.801   4.006  13.810  0.2959 -0.4571  3.4566
 5441TIP3   OH237737   4.411   1.365   0.999  0.0276 -0.8141  0.0002
 5441TIP3    H137738   4.390   1.458   0.996 -0.6119 -0.8368  2.0984
 5441TIP3    H237739   4.329   1.323   1.024  0.4998 -1.8583 -0.1477
 5442TIP3   OH237740   6.474   0.779   2.098  0.1094  0.4920 -0.1255
 5442TIP3    H137741   6.382   0.761   2.082  0.1001 -0.4487  0.8624
 5442TIP3    H237742   6.505   0.821   2.018 -1.2709  1.2203 -0.3123
 5443TIP3   OH237743   2.270   1.471   5.360 -0.4047  0.0040 -0.5482
 5443TIP3    H137744   2.190   1.424   5.334 -1.3199  1.7164 -0.9432
 5443TIP3    H237745   2.294   1.521   5.282  0.7280 -0.0416 -0.2322
 5444TIP3   OH237746   4.543   4.134  12.863  0.0692 -0.5015 -0.5381
 5444TIP3    H137747   4.619   4.076  12.861  0.7648  0.3456  0.2995
 5444TIP3    H237748   4.498   4.111  12.944 -1.3498 -1.9208 -1.6710
 5445TIP3   OH237749   0.206   1.512  13.667 -0.0952  0.2900 -0.4379
 5445TIP3    H137750   0.175   1.479  13.583 -1.1088  0.3246 -0.0971
 5445TIP3    H237751   0.178   1.603  13.669 -1.0581 -0.0046  0.3794
 5446TIP3   OH237752   3.214   2.488   4.319  0.0642  0.0296  0.2515
 5446TIP3    H137753   3.298   2.515   4.356 -0.2946 -0.7694  1.7734
 5446TIP3    H237754   3.149   2.522   4.381 -0.6019 -0.9921  0.1487
 5447TIP3   OH237755   3.524   1.194  12.944 -0.1885  0.1945  0.6610
 5447TIP3    H137756   3.489   1.215  12.858 -0.4887 -0.7926  0.5276
 5447TIP3    H237757   3.468   1.242  13.005 -0.6548  0.0484  0.3538
 5448TIP3   OH237758   1.948   2.321  14.981 -0.0758 -0.0872 -0.0518
 5448TIP3    H137759   1.901   2.258  15.036  0.8135  0.4798  1.4027
 5448TIP3    H237760   2.040   2.304  14.997  0.1849  1.2175 -0.0711
 5449TIP3   OH237761   5.586   3.623   4.968  0.2314  0.4530  0.1279
 5449TIP3    H137762   5.511   3.611   4.910 -0.2225  0.3865  0.7147
 5449TIP3    H237763   5.662   3.623   4.910 -0.0764 -1.0893 -0.3370
 5450TIP3   OH237764   5.476   5.625  12.399 -0.9139  0.4806 -0.7341
 5450TIP3    H137765   5.513   5.676  12.470 -0.1144  1.7464 -2.0186
 5450TIP3    H237766   5.394   5.669  12.377 -1.9739 -0.8266  0.3993
 5451TIP3   OH237767   4.353   0.065  10.928  0.3245  0.7236  0.0122
 5451TIP3    H137768   4.440   0.028  10.915  0.1751  0.7809 -1.1820
 5451TIP3    H237769   4.296   0.014  10.871 -0.3923  0.8611  0.5828
 5452TIP3   OH237770   4.690   3.766  10.795 -0.4927 -0.2314 -0.6961
 5452TIP3    H137771   4.607   3.801  10.763 -1.3639 -0.7766  0.8172
 5452TIP3    H237772   4.708   3.816  10.875  0.0939 -0.7996 -0.4596
 5453TIP3   OH237773   0.893   6.195   2.498 -0.0833 -0.4755 -0.0282
 5453TIP3    H137774   0.900   6.231   2.586  0.0954  0.2320 -0.3185
 5453TIP3    H237775   0.812   6.232   2.463 -0.1744 -0.7827 -0.1480
 5454TIP3   OH237776   1.019   2.497  11.893  0.3647  0.0643 -0.1847
 5454TIP3    H137777   1.070   2.550  11.832  1.6828 -1.4531 -0.4764
 5454TIP3    H237778   1.051   2.521  11.979  0.0074  0.6873 -0.2226
 5455TIP3   OH237779   3.157   1.737   3.471 -0.1303  0.0307 -0.2137
 5455TIP3    H137780   3.232   1.790   3.445  0.4869  0.1934  1.7497
 5455TIP3    H237781   3.187   1.690   3.549 -1.6886 -0.8260 -0.0915
 5456TIP3   OH237782   3.318   2.477   5.151 -0.2118  0.0347  0.7589
 5456TIP3    H137783   3.366   2.394   5.152 -0.7292 -0.2629  0.9630
 5456TIP3    H237784   3.371   2.536   5.205  1.1292  0.3913 -0.8772
 5457TIP3   OH237785   1.749   2.495  11.612 -0.0270  0.2168 -0.5485
 5457TIP3    H137786   1.783   2.506  11.701  1.9069  0.3761 -1.2550
 5457TIP3    H237787   1.697   2.415  11.616 -0.0421  0.2605  0.7241
 5458TIP3   OH237788   2.806   0.169  13.130 -0.6023  0.1591 -0.2625
 5458TIP3    H137789   2.745   0.199  13.198 -0.4993  1.6652 -0.7929
 5458TIP3    H237790   2.780   0.218  13.052 -0.4426 -1.2279 -1.2109
 5459TIP3   OH237791   3.759   4.746   1.297  0.3957  0.1865  0.8210
 5459TIP3    H137792   3.685   4.801   1.271  1.7388  1.8865  0.4424
 5459TIP3    H237793   3.792   4.786   1.377  0.5065 -0.9779  1.3862
 5460TIP3   OH237794   2.611   2.725  16.616  0.4559  0.3098 -0.4470
 5460TIP3    H137795   2.589   2.802  16.564 -0.1643  0.4725  0.0443
 5460TIP3    H237796   2.675   2.758  16.680  0.9626  0.1833 -0.8775
 5461TIP3   OH237797   1.254   0.255   5.373  0.4331  0.2348 -0.0320
 5461TIP3    H137798   1.314   0.214   5.310 -2.0999 -1.5355 -1.4543
 5461TIP3    H237799   1.268   0.206   5.454  0.6151 -0.4471 -0.4705
 5462TIP3   OH237800   1.540   4.685   5.007 -0.2704  0.2401 -0.3942
 5462TIP3    H137801   1.574   4.716   4.924 -0.3736  1.6042  0.0514
 5462TIP3    H237802   1.498   4.601   4.986  1.0157 -0.1817 -1.4183
 5463TIP3   OH237803   1.859   1.230   1.871 -0.3341  0.2867 -0.0528
 5463TIP3    H137804   1.790   1.180   1.914  0.1648 -1.4941 -1.2163
 5463TIP3    H237805   1.938   1.214   1.924 -0.5583  1.4212  0.6490
 5464TIP3   OH237806   1.921   3.500   5.725 -0.1035 -0.1984  0.0826
 5464TIP3    H137807   1.928   3.405   5.733 -0.6760 -0.3123 -0.6503
 5464TIP3    H237808   2.011   3.532   5.733  0.6357 -1.1055 -3.2394
 5465TIP3   OH237809   5.513   2.279  10.718 -0.3433 -0.1469  0.1348
 5465TIP3    H137810   5.571   2.254  10.647  0.6269  1.1669  0.4317
 5465TIP3    H237811   5.462   2.200  10.737 -0.2252 -0.6725 -1.6176
 5466TIP3   OH237812   0.887   0.514   0.519 -0.1414  0.1779 -0.4951
 5466TIP3    H137813   0.894   0.537   0.611 -1.1766 -0.4332 -0.2501
 5466TIP3    H237814   0.956   0.564   0.476  1.8357 -1.1898  0.9148
 5467TIP3   OH237815   2.957   0.270   3.165  0.2924 -0.6287  0.0682
 5467TIP3    H137816   3.028   0.209   3.185  0.8357 -0.2414 -0.6260
 5467TIP3    H237817   2.951   0.269   3.070  0.4036  0.4907  0.0360
 5468TIP3   OH237818   3.038   3.487  16.092  0.1752  0.2095  0.4524
 5468TIP3    H137819   2.980   3.527  16.028  1.5140  0.4534 -0.6499
 5468TIP3    H237820   3.075   3.560  16.141  2.0466  0.3720 -1.0659
 5469TIP3   OH237821   6.177   0.839   6.553 -0.3175  0.2349  0.0409
 5469TIP3    H137822   6.098   0.805   6.593 -0.9370  2.3543  0.7687
 5469TIP3    H237823   6.241   0.768   6.559 -1.5839 -0.8329  1.1953
 5470TIP3   OH237824   5.499   1.597   1.235  0.7301 -0.2035  0.2535
 5470TIP3    H137825   5.429   1.542   1.199 -0.8515  0.6935  1.7855
 5470TIP3    H237826   5.553   1.619   1.159 -0.1996 -1.5502 -0.8666
 5471TIP3   OH237827   2.000   5.213  11.790  0.1383 -0.1636  0.1286
 5471TIP3    H137828   1.997   5.199  11.695 -1.4474  1.9947 -0.2095
 5471TIP3    H237829   1.908   5.206  11.818  0.4836  0.0693  1.3739
 5472TIP3   OH237830   5.086   5.135  12.381 -0.1135  0.1118 -0.0318
 5472TIP3    H137831   5.176   5.158  12.407  0.2729 -1.8274  0.4799
 5472TIP3    H237832   5.042   5.112  12.463 -1.7515  2.9273  0.0084
 5473TIP3   OH237833   4.779   5.472   5.776 -0.1306  0.1034 -0.6318
 5473TIP3    H137834   4.775   5.385   5.816  2.1937  1.2729  2.4497
 5473TIP3    H237835   4.860   5.472   5.725 -0.7065  0.1639 -1.5850
 5474TIP3   OH237836   3.261   3.784  15.400  0.8763 -0.2028  0.0502
 5474TIP3    H137837   3.248   3.830  15.483  1.4063 -0.7037  0.4160
 5474TIP3    H237838   3.223   3.842  15.334 -1.1272 -0.5569  0.8212
 5475TIP3   OH237839   0.088   4.792   4.934  0.3177 -0.3815 -0.1184
 5475TIP3    H137840   0.108   4.881   4.907 -1.1008  0.2270  0.7161
 5475TIP3    H237841   0.066   4.800   5.027 -0.6135 -1.4718 -0.2286
 5476TIP3   OH237842   5.277   3.105  15.010 -0.4055  0.4027 -0.0297
 5476TIP3    H137843   5.345   3.079  15.073  0.2902  1.5061 -0.3112
 5476TIP3    H237844   5.253   3.023  14.966 -0.9920 -0.4172  1.7310
 5477TIP3   OH237845   2.982   4.679   2.699  0.8003 -0.0872  0.5716
 5477TIP3    H137846   2.961   4.650   2.788  0.7770 -0.2001  0.5294
 5477TIP3    H237847   2.939   4.764   2.690 -0.8674 -0.9584 -0.0170
 5478TIP3   OH237848   5.798   0.577   2.751 -0.4524  0.1177 -0.2982
 5478TIP3    H137849   5.759   0.499   2.789 -0.7941  0.5074  0.1518
 5478TIP3    H237850   5.882   0.586   2.797 -0.4058  0.0133 -0.3607
 5479TIP3   OH237851   5.177   4.344   3.575 -0.5439 -0.6470  0.4985
 5479TIP3    H137852   5.171   4.322   3.482  0.0849 -2.5053  0.8516
 5479TIP3    H237853   5.217   4.431   3.577 -0.7550 -0.4953 -0.9745
 5480TIP3   OH237854   6.602   2.251   1.852 -0.8906 -0.3729 -0.1137
 5480TIP3    H137855   6.552   2.272   1.773 -1.6914 -0.8898  0.2485
 5480TIP3    H237856   6.585   2.324   1.911  0.6578  0.6225 -0.8178
 5481TIP3   OH237857   2.201   0.769  14.996 -0.1638 -0.3768  0.1186
 5481TIP3    H137858   2.256   0.836  15.035  1.0605 -0.6799 -0.9721
 5481TIP3    H237859   2.246   0.747  14.914 -1.3282 -1.4526 -0.2627
 5482TIP3   OH237860   0.374   5.613   4.241 -0.3279 -0.0095  0.2823
 5482TIP3    H137861   0.385   5.642   4.331  0.0424  2.7231 -0.5395
 5482TIP3    H237862   0.282   5.632   4.221 -0.0389  0.8436 -0.3229
 5483TIP3   OH237863   1.410   4.885   3.307  0.5340 -0.2824 -0.2484
 5483TIP3    H137864   1.485   4.882   3.367  1.2215  0.5332 -1.0239
 5483TIP3    H237865   1.338   4.917   3.361  0.6548 -1.3648  0.5863
 5484TIP3   OH237866   1.367   6.361  16.666  0.3365  0.1385 -0.5469
 5484TIP3    H137867   1.449   6.368  16.618  0.4827  0.8451 -0.2062
 5484TIP3    H237868   1.384   6.403  16.750  0.5931 -2.5590  0.8620
 5485TIP3   OH237869   3.573   2.414   1.769 -0.1472  0.2834 -0.3480
 5485TIP3    H137870   3.488   2.430   1.810  0.8362  0.5172  1.7393
 5485TIP3    H237871   3.628   2.485   1.802  1.0272 -0.2354 -1.1592
 5486TIP3   OH237872   6.594   5.022  14.296  0.6123 -0.9147  0.1161
 5486TIP3    H137873   6.522   4.977  14.340 -0.1339  0.9463  0.8925
 5486TIP3    H237874   6.672   4.972  14.320 -0.0405 -1.1378  1.8846
 5487TIP3   OH237875   6.545   3.674   0.645 -0.1264 -0.0912 -0.3482
 5487TIP3    H137876   6.601   3.601   0.619  1.1457  0.3621  0.9658
 5487TIP3    H237877   6.504   3.645   0.727 -1.3914 -0.1827 -0.9846
 5488TIP3   OH237878   4.676   5.189  13.665 -0.0077  0.3220  0.3050
 5488TIP3    H137879   4.721   5.215  13.745  0.5986  0.4679 -0.0827
 5488TIP3    H237880   4.583   5.187  13.690  0.0741  1.3260  0.7504
 5489TIP3   OH237881   5.276   1.887   2.427  0.5496 -0.6383 -0.3498
 5489TIP3    H137882   5.250   1.820   2.490 -3.7016  0.7916 -0.2504
 5489TIP3    H237883   5.226   1.867   2.349 -0.5250  2.0683 -0.4640
 5490TIP3   OH237884   5.417   3.339   5.177 -0.1068 -0.4310  0.5306
 5490TIP3    H137885   5.468   3.323   5.098  1.6634  1.3228  1.2305
 5490TIP3    H237886   5.328   3.353   5.146  0.5394  0.1341 -1.1633
 5491TIP3   OH237887   2.255   4.622  13.465 -0.3606  0.4998  0.9769
 5491TIP3    H137888   2.184   4.599  13.405  0.2952 -0.2522  0.4487
 5491TIP3    H237889   2.297   4.538  13.484  0.7966  1.0018  0.7196
 5492TIP3   OH237890   1.750   2.657  11.400  0.4572  0.7018 -0.3064
 5492TIP3    H137891   1.737   2.650  11.494 -0.3549 -1.6201 -0.5078
 5492TIP3    H237892   1.821   2.595  11.381  0.2804  0.7712 -1.2729
 5493TIP3   OH237893   1.356   0.227  15.027 -0.1748  0.3712 -0.3239
 5493TIP3    H137894   1.418   0.161  15.060  1.1713  1.5638 -0.3700
 5493TIP3    H237895   1.297   0.243  15.101 -1.1149 -1.5079 -0.5981
 5494TIP3   OH237896   1.380   5.727   1.435  0.2586 -0.3964  0.0247
 5494TIP3    H137897   1.301   5.765   1.396  0.8255 -0.9113 -1.7029
 5494TIP3    H237898   1.360   5.634   1.445  0.3413 -0.3744  0.4076
 5495TIP3   OH237899   6.342   3.588   4.070 -1.1851 -0.0873 -0.0478
 5495TIP3    H137900   6.410   3.592   4.003 -0.6546 -0.9061  0.4322
 5495TIP3    H237901   6.261   3.575   4.021 -0.8160 -0.5764 -0.5416
 5496TIP3   OH237902   4.403   0.198  13.059 -0.6341 -0.4683 -0.2758
 5496TIP3    H137903   4.400   0.292  13.045 -1.9514 -0.6534 -1.3389
 5496TIP3    H237904   4.425   0.189  13.152 -0.7777  0.8735 -0.0947
 5497TIP3   OH237905   6.071   1.891   4.415 -0.0081 -0.4146 -0.4442
 5497TIP3    H137906   6.047   1.983   4.410 -0.6812 -0.4098  1.6229
 5497TIP3    H237907   6.165   1.892   4.433 -0.6413  0.2227  4.2164
 5498TIP3   OH237908   5.261   1.158  11.577 -0.0228  0.2806 -0.0032
 5498TIP3    H137909   5.246   1.187  11.667 -2.3483 -0.0603 -0.2309
 5498TIP3    H237910   5.243   1.235  11.523 -2.9716 -0.5725 -0.3947
 5499TIP3   OH237911   1.447   3.832   6.532 -0.2534 -0.2762 -0.2911
 5499TIP3    H137912   1.414   3.799   6.616  1.2092  1.4558  1.0545
 5499TIP3    H237913   1.386   3.903   6.509  0.3426  0.4257  0.2514
 5500TIP3   OH237914   0.577   5.089  12.204 -0.0787  0.6119  0.3861
 5500TIP3    H137915   0.539   5.002  12.192 -0.0837  0.1242  3.2322
 5500TIP3    H237916   0.510   5.150  12.171 -0.4308 -0.3895 -0.8361
 5501TIP3   OH237917   6.360   1.824   4.872  0.2011 -0.2642 -0.5131
 5501TIP3    H137918   6.282   1.853   4.824 -0.8064 -0.9400  0.6587
 5501TIP3    H237919   6.433   1.841   4.812 -0.5334  2.7234 -0.7233
 5502TIP3   OH237920   6.678   1.595  15.768  0.4900 -0.4486 -0.0580
 5502TIP3    H137921   6.607   1.577  15.828 -0.1604  1.0578 -0.3242
 5502TIP3    H237922   6.656   1.547  15.688 -1.3552  1.5676 -0.8668
 5503TIP3   OH237923   1.817   4.185   0.210  0.1957 -0.0845  0.7175
 5503TIP3    H137924   1.781   4.143   0.132 -0.8904 -0.2721  1.2950
 5503TIP3    H237925   1.741   4.223   0.254  1.0464  1.7573  0.6633
 5504TIP3   OH237926   2.339   0.805   0.496 -0.1930 -0.9110  0.7756
 5504TIP3    H137927   2.295   0.862   0.434  0.9453 -2.3796 -1.5156
 5504TIP3    H237928   2.361   0.862   0.570  1.7614  1.9255 -1.7690
 5505TIP3   OH237929   2.612   1.670   0.958  0.4678  0.5429  0.1999
 5505TIP3    H137930   2.561   1.593   0.985  1.3748 -0.3585 -0.5792
 5505TIP3    H237931   2.601   1.674   0.863  1.1002  0.8841  0.1381
 5506TIP3   OH237932   5.625   6.557  13.641 -0.6595 -0.1611  0.6086
 5506TIP3    H137933   5.658   6.515  13.562 -1.2581  0.3980  0.0608
 5506TIP3    H237934   5.699   6.552  13.703  0.1913  0.3892 -0.3388
 5507TIP3   OH237935   2.244   3.229  11.512  0.0608  0.6426  0.0401
 5507TIP3    H137936   2.188   3.207  11.586  0.0115  2.7076  0.6876
 5507TIP3    H237937   2.331   3.197  11.537 -0.1481  0.4891  0.5791
 5508TIP3   OH237938   1.492   1.738  15.909 -0.3018  0.2275 -0.6733
 5508TIP3    H137939   1.478   1.735  16.003 -2.5371 -0.0142 -0.9796
 5508TIP3    H237940   1.578   1.780  15.899  0.7372 -1.2056  1.4873
 5509TIP3   OH237941   4.662   0.268   0.501 -0.0629  0.6063 -0.2458
 5509TIP3    H137942   4.641   0.357   0.528 -0.6575  0.5408 -0.4869
 5509TIP3    H237943   4.578   0.230   0.475  0.1629 -0.0750  0.0046
 5510TIP3   OH237944   3.230   4.747   0.144 -0.0164 -0.1937 -0.3649
 5510TIP3    H137945   3.252   4.654   0.144 -0.4855 -0.3103 -0.8454
 5510TIP3    H237946   3.264   4.779   0.060  0.2973  0.1094 -0.1262
 5511TIP3   OH237947   0.248   5.611  14.416 -0.1072 -0.6879 -0.1531
 5511TIP3    H137948   0.169   5.656  14.446 -0.2487 -0.3221 -1.0316
 5511TIP3    H237949   0.257   5.536  14.475 -0.3636 -0.0062  0.7758
 5512TIP3   OH237950   4.460   3.310   3.655 -0.3056 -0.4217 -0.6671
 5512TIP3    H137951   4.411   3.236   3.691  0.0170  0.4832  1.8966
 5512TIP3    H237952   4.394   3.376   3.637 -0.5023 -0.9851 -2.1458
 5513TIP3   OH237953   1.070   3.796   3.654  0.2746 -0.0947  0.4446
 5513TIP3    H137954   1.136   3.740   3.695 -0.0098 -1.9704 -1.4551
 5513TIP3    H237955   0.994   3.791   3.712  0.1374 -2.0535  0.1762
 5514TIP3   OH237956   0.871   1.743  16.849 -0.9551 -0.1549 -0.4941
 5514TIP3    H137957   0.871   1.832  16.885 -1.2313  0.3226 -1.6115
 5514TIP3    H237958   0.958   1.709  16.867 -1.0910  0.0542  0.6147
 5515TIP3   OH237959   4.549   5.524   5.605 -0.1379  0.3245 -0.0768
 5515TIP3    H137960   4.500   5.451   5.641  1.1059 -1.5818 -1.9963
 5515TIP3    H237961   4.637   5.515   5.642  0.5547 -0.3740 -1.7911
 5516TIP3   OH237962   6.733   3.959   2.452 -0.2898  0.4237 -0.3194
 5516TIP3    H137963   6.759   3.948   2.361 -0.4253  0.6813 -0.3887
 5516TIP3    H237964   6.662   3.896   2.465 -0.5963  0.7278 -0.5249
 5517TIP3   OH237965   5.136   1.778   2.186  0.0856 -0.3964  0.0143
 5517TIP3    H137966   5.056   1.770   2.239  1.5430 -1.1949  2.2714
 5517TIP3    H237967   5.116   1.846   2.122 -1.9853  0.3212  1.3142
 5518TIP3   OH237968   6.603   1.072   2.562  0.2320 -0.2012 -0.3597
 5518TIP3    H137969   6.686   1.118   2.551 -0.0509  0.1176 -1.2291
 5518TIP3    H237970   6.566   1.066   2.474 -0.7764 -0.1360  0.0378
 5519TIP3   OH237971   0.178   0.906  14.962  0.7944  0.4318 -0.9193
 5519TIP3    H137972   0.220   0.907  15.048 -1.5864 -0.3832  0.3424
 5519TIP3    H237973   0.239   0.858  14.906  1.0635 -1.7167  1.0742
 5520TIP3   OH237974   2.809   6.453   1.207  0.0121  0.5790 -0.3986
 5520TIP3    H137975   2.881   6.462   1.270  0.0387  0.1254 -0.3650
 5520TIP3    H237976   2.835   6.382   1.149 -1.9885 -2.1835  1.8165
 5521TIP3   OH237977   0.161   4.476  12.329 -0.1884 -0.2221 -0.5600
 5521TIP3    H137978   0.230   4.502  12.390 -0.2756  1.0904 -0.9876
 5521TIP3    H237979   0.132   4.390  12.360  1.0154 -0.3833  0.1525
 5522TIP3   OH237980   1.741   1.496  15.820  0.3668 -0.4576 -0.5587
 5522TIP3    H137981   1.709   1.524  15.905  0.1210 -2.0439 -0.0921
 5522TIP3    H237982   1.832   1.472  15.835  0.0866 -1.5584 -0.5169
 5523TIP3   OH237983   2.592   0.596  17.203  0.2924 -0.3033 -0.1723
 5523TIP3    H137984   2.544   0.679  17.203 -0.4557 -0.6574 -2.1438
 5523TIP3    H237985   2.528   0.532  17.171  1.5772 -1.1233 -1.2142
 5524TIP3   OH237986   1.127   4.118   2.811 -0.5270  0.3417  0.1471
 5524TIP3    H137987   1.209   4.162   2.789  0.1792 -1.0692 -0.1657
 5524TIP3    H237988   1.142   4.081   2.898 -0.8955  0.2107  0.1587
 5525TIP3   OH237989   3.905   4.438   3.182 -0.5995  0.3652  0.2804
 5525TIP3    H137990   3.986   4.420   3.135 -1.4220 -0.6568 -0.8339
 5525TIP3    H237991   3.884   4.355   3.225 -0.0447  1.1833  2.2391
 5526TIP3   OH237992   1.503   6.199   2.558  0.2659  0.1458 -0.8972
 5526TIP3    H137993   1.448   6.155   2.493  0.3462  0.0906 -0.9275
 5526TIP3    H237994   1.442   6.224   2.628  0.4329 -1.2336 -0.2305
 5527TIP3   OH237995   1.706   1.851  12.866 -0.2251 -0.0943  0.1386
 5527TIP3    H137996   1.625   1.824  12.909 -0.4398 -0.2777 -0.3728
 5527TIP3    H237997   1.678   1.914  12.799  0.1922  0.8088  0.7997
 5528TIP3   OH237998   4.655   3.680   3.132  0.2329  0.1228 -0.6833
 5528TIP3    H137999   4.643   3.599   3.082 -1.1250 -0.3987  0.4163
 5528TIP3    H238000   4.605   3.666   3.212 -0.1334  2.1043 -0.5160
 5529TIP3   OH238001   4.846   0.571  16.154 -0.0203  0.0900 -0.0937
 5529TIP3    H138002   4.870   0.662  16.168  1.1869 -0.4129  1.4338
 5529TIP3    H238003   4.858   0.556  16.060  1.1588  1.1314 -0.1220
 5530TIP3   OH238004   1.664   5.447   5.351 -0.6450 -0.2424 -0.5762
 5530TIP3    H138005   1.594   5.444   5.417  0.1962  0.5926  0.4058
 5530TIP3    H238006   1.619   5.431   5.268 -1.8784 -0.5029  0.1032
 5531TIP3   OH238007   4.461   4.246   2.723  0.2471  0.4886 -0.2947
 5531TIP3    H138008   4.489   4.158   2.698 -0.4299 -0.4083  1.8389
 5531TIP3    H238009   4.541   4.288   2.757 -0.0810 -0.7029  2.1870
 5532TIP3   OH238010   1.740   0.138  13.236 -0.3150  0.1419 -0.2082
 5532TIP3    H138011   1.769   0.084  13.163 -0.9851 -0.6403  0.0958
 5532TIP3    H238012   1.752   0.228  13.205  0.0514 -0.1769 -1.0162
 5533TIP3   OH238013   6.735   6.552  15.973  0.1459  0.4599  0.0339
 5533TIP3    H138014   6.810   6.529  16.029 -0.8883 -2.9100  0.2802
 5533TIP3    H238015   6.678   6.602  16.031  0.2658 -0.7372  1.2611
 5534TIP3   OH238016   0.147   5.826  12.613  0.5168  0.0591 -0.0045
 5534TIP3    H138017   0.221   5.779  12.575 -0.1558 -1.3376  0.3299
 5534TIP3    H238018   0.085   5.757  12.639 -1.2601  1.2043 -0.9772
 5535TIP3   OH238019   6.366   2.690  11.957  0.0723 -0.4312  0.7519
 5535TIP3    H138020   6.312   2.642  12.020 -0.3683  1.4760  1.9031
 5535TIP3    H238021   6.432   2.627  11.929  1.1655 -1.0099  4.1915
 5536TIP3   OH238022   6.096   2.347   2.169  0.5734 -0.1560  0.4641
 5536TIP3    H138023   6.101   2.443   2.167  0.2348 -0.1334  0.6359
 5536TIP3    H238024   6.034   2.325   2.101  0.9175 -0.2765  0.1865
 5537TIP3   OH238025   3.364   3.512  10.827  0.0623 -0.4648 -0.0992
 5537TIP3    H138026   3.319   3.596  10.818  0.8569  0.2305  1.7545
 5537TIP3    H238027   3.344   3.484  10.916  3.0187 -0.2198  0.7578
 5538TIP3   OH238028   0.834   1.320  12.655 -0.0563 -0.3333 -0.3801
 5538TIP3    H138029   0.792   1.393  12.610 -0.1030  0.4744  0.9128
 5538TIP3    H238030   0.923   1.351  12.672  1.2860 -2.1525 -3.3929
 5539TIP3   OH238031   3.199   2.043   0.953  0.1898 -0.2586 -0.4828
 5539TIP3    H138032   3.284   2.051   0.908 -0.1226 -1.5254 -1.3608
 5539TIP3    H238033   3.143   1.997   0.890 -1.5657  1.6983 -0.4450
 5540TIP3   OH238034   6.593   3.910  13.667  0.2693  0.7733 -0.4497
 5540TIP3    H138035   6.607   3.826  13.710  1.6299  1.8061  1.2518
 5540TIP3    H238036   6.652   3.907  13.591 -0.8809 -0.3851 -1.3520
 5541TIP3   OH238037   4.424   4.103   5.104 -0.6356  0.3834 -0.0552
 5541TIP3    H138038   4.339   4.114   5.146 -1.8664 -2.4609 -1.4966
 5541TIP3    H238039   4.479   4.063   5.171 -1.2493 -0.1043  0.1685
 5542TIP3   OH238040   2.404   5.922   3.202 -0.2396  0.4169  0.1865
 5542TIP3    H138041   2.322   5.954   3.164 -0.3837  1.1357  1.0597
 5542TIP3    H238042   2.455   5.890   3.127 -0.2584  2.3349 -0.7140
 5543TIP3   OH238043   4.327   5.989  11.025 -0.2277 -0.6405  0.3202
 5543TIP3    H138044   4.296   6.014  10.938  2.5438  0.4361 -0.4553
 5543TIP3    H238045   4.372   6.067  11.058  2.1620 -2.2233  1.0279
 5544TIP3   OH238046   2.022   1.404  16.819 -0.4971 -0.7295  0.1654
 5544TIP3    H138047   2.081   1.475  16.845 -0.0943 -1.4807  1.3981
 5544TIP3    H238048   2.069   1.324  16.842 -1.1635 -1.3954 -0.7140
 5545TIP3   OH238049   3.632   6.021  11.357 -0.1763 -0.6026  0.3376
 5545TIP3    H138050   3.685   6.038  11.279 -0.2152  1.7485  0.7662
 5545TIP3    H238051   3.614   5.927  11.353  0.0605 -0.6199 -2.3319
 5546TIP3   OH238052   0.669   4.115  16.088  0.5349  0.0580 -0.5706
 5546TIP3    H138053   0.601   4.128  16.154  0.0690  0.4171 -1.1060
 5546TIP3    H238054   0.750   4.103  16.138  0.4985  2.0420  0.0586
 5547TIP3   OH238055   1.352   0.469  15.348 -0.4232 -0.4460  0.2930
 5547TIP3    H138056   1.325   0.505  15.432 -1.0711 -3.1493  1.3412
 5547TIP3    H238057   1.385   0.382  15.369 -1.2943 -1.4950 -2.3321
 5548TIP3   OH238058   5.101   0.199   2.992 -0.1579 -0.0655 -0.0396
 5548TIP3    H138059   5.076   0.198   3.084  0.7754 -1.4163  0.2303
 5548TIP3    H238060   5.018   0.191   2.944 -0.6224  0.3332  0.6814
 5549TIP3   OH238061   6.525   4.652  12.577  0.1354 -0.3868  0.2815
 5549TIP3    H138062   6.529   4.740  12.616 -1.2975 -0.3919  0.4761
 5549TIP3    H238063   6.584   4.658  12.501  0.3859  0.6103  0.5294
 5550TIP3   OH238064   0.647   4.453  11.427 -0.3807  0.4557  0.3730
 5550TIP3    H138065   0.590   4.530  11.425  0.2281  0.9351 -2.2834
 5550TIP3    H238066   0.735   4.489  11.438 -0.3807 -0.2098  3.3166
 5551TIP3   OH238067   2.858   4.004  13.730  0.0537  0.0473 -0.0429
 5551TIP3    H138068   2.909   3.925  13.745 -0.1069 -0.1495 -0.5106
 5551TIP3    H238069   2.773   3.973  13.699  1.0056  0.4093 -3.3990
 5552TIP3   OH238070   6.388   4.311   4.840 -0.5339 -1.2640  0.4609
 5552TIP3    H138071   6.467   4.305   4.894  1.4820 -1.5378 -2.3081
 5552TIP3    H238072   6.380   4.226   4.798  1.0927  0.2622 -3.5027
 5553TIP3   OH238073   5.683   3.826   3.650  0.3720  0.7090  0.1510
 5553TIP3    H138074   5.692   3.776   3.569 -0.9476  0.2730  0.2586
 5553TIP3    H238075   5.711   3.915   3.627  2.6435  0.0159 -0.0743
 5554TIP3   OH238076   0.064   2.745   2.046 -0.3930 -0.5271 -0.6083
 5554TIP3    H138077   0.154   2.745   2.014 -0.8889 -4.1855 -2.5706
 5554TIP3    H238078   0.069   2.704   2.133  0.0463  2.1014  0.7104
 5555TIP3   OH238079   2.628   1.006  12.450 -0.1647  0.1439 -0.3844
 5555TIP3    H138080   2.611   0.937  12.387  0.4137 -0.5834  0.2372
 5555TIP3    H238081   2.701   1.056  12.413 -0.6453  0.4920 -0.8782
 5556TIP3   OH238082   2.582   3.796   5.013 -0.6428 -0.5875 -0.2535
 5556TIP3    H138083   2.599   3.732   5.083  0.3219 -0.5818 -0.4676
 5556TIP3    H238084   2.667   3.807   4.970 -1.5853 -2.0576 -2.6732
 5557TIP3   OH238085   1.026   4.754  16.787 -0.0167 -0.0798  0.0159
 5557TIP3    H138086   1.107   4.754  16.735 -1.6041  0.7384 -2.6194
 5557TIP3    H238087   0.987   4.668  16.771 -0.4445  0.1199 -0.0161
 5558TIP3   OH238088   0.643   4.241  13.095 -0.5791  0.5538  0.3693
 5558TIP3    H138089   0.678   4.152  13.101 -0.4810  0.6637  2.0835
 5558TIP3    H238090   0.720   4.298  13.103 -0.9090  0.7816  2.9290
 5559TIP3   OH238091   1.919   6.435   1.346  0.2401 -0.1941 -0.2735
 5559TIP3    H138092   1.847   6.456   1.287 -0.9605  0.1819  1.2495
 5559TIP3    H238093   1.917   6.340   1.355  1.3249 -0.4088 -1.8648
 5560TIP3   OH238094   0.379   5.125  16.117 -0.2120 -0.4945 -0.3369
 5560TIP3    H138095   0.314   5.083  16.061  0.2393  0.8042 -1.9244
 5560TIP3    H238096   0.463   5.098  16.081  0.0892  0.1262 -0.1238
 5561TIP3   OH238097   0.108   2.063   3.328 -0.1702  0.4131  0.0016
 5561TIP3    H138098   0.045   2.135   3.324 -1.1940 -0.4218  0.6008
 5561TIP3    H238099   0.071   1.996   3.269  1.4646  0.8698 -1.6488
 5562TIP3   OH238100   3.367   6.449  13.932 -0.1007  0.0226 -0.6534
 5562TIP3    H138101   3.304   6.440  13.861  1.1424 -0.2865 -1.7497
 5562TIP3    H238102   3.390   6.542  13.932 -0.9489  0.2528  0.1295
 5563TIP3   OH238103   4.002   4.651   4.113  0.0051  0.0614 -0.6122
 5563TIP3    H138104   3.958   4.697   4.042 -0.0389  0.0215 -0.6105
 5563TIP3    H238105   3.944   4.662   4.188  0.2754  0.5051 -0.4660
 5564TIP3   OH238106   3.114   6.606   1.587 -0.4804  0.5165  0.3986
 5564TIP3    H138107   3.202   6.579   1.560 -0.4178  0.6132  0.5059
 5564TIP3    H238108   3.061   6.599   1.507 -0.5555 -0.2972  0.5058
 5565TIP3   OH238109   1.586   3.435  16.469  0.7670 -0.7906 -0.7271
 5565TIP3    H138110   1.661   3.457  16.415  1.3364 -0.0004  0.3476
 5565TIP3    H238111   1.600   3.343  16.494  2.1601 -0.2498  0.6376
 5566TIP3   OH238112   6.104   2.333   0.781  0.2322 -0.9725  0.3011
 5566TIP3    H138113   6.116   2.289   0.865  0.9933 -3.2027 -0.9011
 5566TIP3    H238114   6.191   2.337   0.743  0.0755  1.0130  0.0239
 5567TIP3   OH238115   2.785   0.656  16.183  0.4415 -0.1763  0.5580
 5567TIP3    H138116   2.833   0.718  16.237  0.3454  0.2553  0.1531
 5567TIP3    H238117   2.850   0.623  16.120  0.2518  0.3100  0.0934
 5568TIP3   OH238118   1.790   2.824   0.901  0.8573 -0.8023 -0.0918
 5568TIP3    H138119   1.791   2.917   0.881  1.5125 -0.4914  1.2865
 5568TIP3    H238120   1.702   2.795   0.876  0.8776  0.0143 -1.1977
 5569TIP3   OH238121   0.436   2.350   2.228  0.1762 -0.3807  0.0185
 5569TIP3    H138122   0.416   2.275   2.285 -2.5235  2.1011  2.7020
 5569TIP3    H238123   0.378   2.340   2.153  0.2716 -1.2793  0.0580
 5570TIP3   OH238124   1.012   2.899   2.343  0.0733  0.0748 -0.2090
 5570TIP3    H138125   0.972   2.961   2.282  0.0027  0.6660  0.4298
 5570TIP3    H238126   0.951   2.825   2.346 -1.4625  1.3262  1.4014
 5571TIP3   OH238127   0.396   2.046  15.193 -0.3412 -0.0015  0.6230
 5571TIP3    H138128   0.361   1.959  15.174 -1.6407  0.6648 -0.1976
 5571TIP3    H238129   0.476   2.052  15.141 -0.0343 -0.8365  0.9896
 5572TIP3   OH238130   0.834   6.377  15.190  0.4416  0.4276 -0.6345
 5572TIP3    H138131   0.879   6.339  15.265  0.2803  1.2893 -0.0911
 5572TIP3    H238132   0.757   6.421  15.227 -0.4866 -0.4449 -1.4739
 5573TIP3   OH238133   0.891   1.669   5.231  0.3998 -0.1653  0.3942
 5573TIP3    H138134   0.895   1.700   5.321  1.5746  1.1472 -0.0721
 5573TIP3    H238135   0.968   1.613   5.221  0.5214  0.0522  0.0923
 5574TIP3   OH238136   4.301   3.562  13.591  0.2786 -0.0593  0.0333
 5574TIP3    H138137   4.386   3.528  13.620  0.3924 -0.8205 -1.1251
 5574TIP3    H238138   4.237   3.509  13.638  0.3722  1.7709  2.3821
 5575TIP3   OH238139   4.227   2.802  17.297 -0.3319 -0.1701  0.3558
 5575TIP3    H138140   4.161   2.867  17.321  1.2938  1.5324  0.4162
 5575TIP3    H238141   4.249   2.759  17.380  1.9028  2.4837  1.2833
 5576TIP3   OH238142   4.228   4.646   5.259 -0.4854  0.4545 -0.3385
 5576TIP3    H138143   4.255   4.662   5.169 -0.7069 -1.4015 -0.7845
 5576TIP3    H238144   4.287   4.577   5.290 -1.0694  0.3499  0.5852
 5577TIP3   OH238145   6.004   4.708  14.245 -0.1970  0.5400 -0.1876
 5577TIP3    H138146   6.017   4.627  14.293 -0.3519  1.7256  2.0006
 5577TIP3    H238147   6.077   4.711  14.183 -1.0175 -1.9194 -1.3888
 5578TIP3   OH238148   0.380   2.200  16.051  0.0924 -0.8997 -0.2210
 5578TIP3    H138149   0.295   2.203  16.096 -0.1214  1.1149 -0.6509
 5578TIP3    H238150   0.443   2.179  16.119 -0.1599  2.5142  1.2716
 5579TIP3   OH238151   4.867   2.244   3.965  0.3915 -0.3925  0.8463
 5579TIP3    H138152   4.942   2.298   3.986 -0.5818  1.7787 -0.8845
 5579TIP3    H238153   4.901   2.179   3.903  1.1437 -0.4196  1.2810
 5580TIP3   OH238154   4.980   5.883   4.982 -0.0747 -0.1024  0.3708
 5580TIP3    H138155   5.034   5.893   5.061  0.1310 -1.1887  0.3843
 5580TIP3    H238156   4.910   5.947   4.993 -0.2787 -0.5092  1.6499
 5581TIP3   OH238157   6.114   0.139   4.064  0.5214  0.2724  0.4858
 5581TIP3    H138158   6.104   0.067   4.002  2.1895  0.9260 -0.6325
 5581TIP3    H238159   6.164   0.102   4.137 -2.6437 -0.8767  2.2465
 5582TIP3   OH238160   6.469   2.507  14.906  0.3547  0.2315 -0.7594
 5582TIP3    H138161   6.460   2.530  14.814 -0.1759 -1.3640 -1.1381
 5582TIP3    H238162   6.379   2.499  14.938  0.5147 -0.3210 -0.4170
 5583TIP3   OH238163   0.206   6.169   0.217  0.4852 -0.1074 -0.3376
 5583TIP3    H138164   0.253   6.151   0.299  1.6717  0.4285 -0.8819
 5583TIP3    H238165   0.118   6.136   0.233  0.9492 -0.8676  0.8277
 5584TIP3   OH238166   6.699   0.037   6.492  0.4593  0.2148  0.2243
 5584TIP3    H138167   6.650   0.087   6.557 -0.3558  1.0706 -1.0076
 5584TIP3    H238168   6.660  -0.050   6.493 -0.4405  0.6082 -0.0439
 5585TIP3   OH238169   0.493   6.337  15.939 -0.3653 -0.0983  0.1107
 5585TIP3    H138170   0.466   6.400  16.005  2.1879  1.3511 -0.1001
 5585TIP3    H238171   0.535   6.267  15.988 -0.4708 -0.1310  0.1545
 5586TIP3   OH238172   6.330   1.205  14.533  0.3764  0.1380 -0.3576
 5586TIP3    H138173   6.354   1.113  14.539  1.9706  0.2757 -2.9599
 5586TIP3    H238174   6.278   1.211  14.452 -0.5745  1.3865  0.3092
 5587TIP3   OH238175   4.242   6.440   2.771  0.4991  0.0785  0.4007
 5587TIP3    H138176   4.198   6.443   2.856 -1.3600  0.7166 -0.5476
 5587TIP3    H238177   4.187   6.383   2.717  1.0662  0.5432 -0.7084
 5588TIP3   OH238178   4.069   2.807   1.747  0.1672 -0.0329 -0.2005
 5588TIP3    H138179   4.079   2.885   1.802  2.2458 -0.1098 -0.3646
 5588TIP3    H238180   4.041   2.738   1.808  1.5438  0.0998  0.6495
 5589TIP3   OH238181   5.207   5.362   1.645  0.0071 -0.0617 -0.1299
 5589TIP3    H138182   5.246   5.276   1.628  0.4496  0.2186 -0.5608
 5589TIP3    H238183   5.163   5.352   1.729  0.6843 -0.5019  0.1873
 5590TIP3   OH238184   2.769   1.450  11.105 -0.2657 -0.3015 -0.1353
 5590TIP3    H138185   2.861   1.425  11.112  0.8679  3.1629 -0.5432
 5590TIP3    H238186   2.752   1.448  11.011 -0.0647  0.5810 -0.2016
 5591TIP3   OH238187   2.863   6.694   2.243  0.2057  0.1846 -0.1236
 5591TIP3    H138188   2.916   6.704   2.322 -0.0322 -0.5589  0.1326
 5591TIP3    H238189   2.926   6.667   2.176  0.3381  0.4226 -0.0987
 5592TIP3   OH238190   5.630   1.650   5.308 -0.5475  0.3105 -0.6060
 5592TIP3    H138191   5.607   1.566   5.349 -2.6470  0.7220 -0.8608
 5592TIP3    H238192   5.695   1.626   5.241  0.9116 -0.7237  1.0754
 5593TIP3   OH238193   1.560   1.113   0.680 -0.1578  0.2960  0.1173
 5593TIP3    H138194   1.490   1.072   0.731  0.1834  0.5728  0.8169
 5593TIP3    H238195   1.627   1.046   0.674  0.0209  0.4406  0.4842
 5594TIP3   OH238196   6.215   4.868  15.287 -0.1153 -0.2926 -0.1019
 5594TIP3    H138197   6.301   4.910  15.285 -0.4397  0.4108  0.6112
 5594TIP3    H238198   6.176   4.889  15.202  0.0409  0.1822 -0.0579
 5595TIP3   OH238199   3.777   3.716  14.039  0.4088 -0.1181 -0.0817
 5595TIP3    H138200   3.843   3.782  14.059  1.1022 -1.3071  1.8529
 5595TIP3    H238201   3.766   3.721  13.944  3.6067 -0.1544 -0.5576
 5596TIP3   OH238202   5.589   3.323   0.051  0.1304  0.5491  0.1012
 5596TIP3    H138203   5.655   3.382   0.088 -0.5179  1.6832 -0.4766
 5596TIP3    H238204   5.639   3.257   0.004  0.8951  0.3287  1.1936
 5597TIP3   OH238205   2.377   5.148  11.278  0.0364 -0.4152  0.4495
 5597TIP3    H138206   2.471   5.142  11.266 -0.2436 -2.2922 -1.4377
 5597TIP3    H238207   2.345   5.195  11.201 -0.6061 -0.0718  0.9127
 5598TIP3   OH238208   3.010   4.686   0.817 -0.4829 -0.2094  0.1619
 5598TIP3    H138209   2.931   4.740   0.816  0.2669  0.9586  1.2741
 5598TIP3    H238210   2.981   4.603   0.854 -1.2316  0.1459  0.3990
 5599TIP3   OH238211   6.738   3.597  16.664  0.3256 -0.5947  0.0678
 5599TIP3    H138212   6.808   3.597  16.730 -0.0618 -2.6686  0.5640
 5599TIP3    H238213   6.670   3.653  16.700  0.3412 -1.2806  1.2276
 5600TIP3   OH238214   2.610   3.111  13.719 -0.2290 -0.2635  0.8034
 5600TIP3    H138215   2.624   3.126  13.626  1.2157  0.1651  1.0736
 5600TIP3    H238216   2.572   3.192  13.752 -1.0994 -0.5495  0.5333
 5601TIP3   OH238217   5.809   4.017   2.580 -0.3804 -0.3953 -0.0292
 5601TIP3    H138218   5.828   4.095   2.632  0.9711 -1.2128  0.7734
 5601TIP3    H238219   5.714   4.021   2.565 -0.9294 -0.2096  2.7642
 5602TIP3   OH238220   0.988   5.254   6.238  0.5517 -0.3434 -0.0284
 5602TIP3    H138221   1.080   5.273   6.217  0.6227 -0.8791 -0.2262
 5602TIP3    H238222   0.968   5.176   6.187 -0.5644  0.7996 -1.3888
 5603TIP3   OH238223   1.211   3.187   2.276 -0.1858  0.5809  0.6092
 5603TIP3    H138224   1.267   3.196   2.199  0.6972 -0.4677  1.0951
 5603TIP3    H238225   1.131   3.146   2.243  0.2880 -0.0957  0.2807
 5604TIP3   OH238226   5.103   1.565  12.103 -0.3595  0.2786 -0.3824
 5604TIP3    H138227   5.126   1.498  12.167 -1.2951  0.1976 -0.1111
 5604TIP3    H238228   5.164   1.637  12.120 -2.0232  1.2199  2.1731
 5605TIP3   OH238229   5.424   6.758   2.414 -0.0610 -0.4822 -0.0866
 5605TIP3    H138230   5.362   6.828   2.395 -1.8538 -1.7763  0.7192
 5605TIP3    H238231   5.428   6.755   2.509  0.9852 -0.6684 -0.1239
 5606TIP3   OH238232   0.582   5.344   4.698 -0.0302  0.0596 -0.5681
 5606TIP3    H138233   0.592   5.366   4.606  1.0508 -1.1113 -0.7550
 5606TIP3    H238234   0.546   5.424   4.738 -0.2595  0.6682 -1.9358
 5607TIP3   OH238235   6.071   3.166   0.223  0.4574  0.6141 -0.3194
 5607TIP3    H138236   6.085   3.233   0.156 -0.4111  1.4100  0.2650
 5607TIP3    H238237   6.069   3.215   0.306 -0.4754 -0.0816  0.0907
 5608TIP3   OH238238   4.092   0.226  15.758 -0.5435 -0.4116  0.1121
 5608TIP3    H138239   4.122   0.229  15.849 -1.4369 -1.5234  0.4595
 5608TIP3    H238240   4.106   0.135  15.731 -2.4857 -0.6770 -0.0889
 5609TIP3   OH238241   5.111   0.007   3.884 -0.1018 -0.0408  0.3577
 5609TIP3    H138242   5.176  -0.060   3.902 -0.7527 -0.4491  1.2839
 5609TIP3    H238243   5.156   0.090   3.903 -0.6426 -0.3973  3.9701
 5610TIP3   OH238244   4.328   4.531  14.214 -0.0053  0.0573 -0.2305
 5610TIP3    H138245   4.349   4.456  14.270 -0.2939  0.0018 -0.1955
 5610TIP3    H238246   4.274   4.588  14.270  1.2426  0.8995  0.1632
 5611TIP3   OH238247   5.247   0.778  11.987  0.3104  0.1829 -0.1314
 5611TIP3    H138248   5.261   0.709  11.922 -1.6827 -1.1447  0.7590
 5611TIP3    H238249   5.186   0.838  11.945  1.8557  1.3592 -0.8107
 5612TIP3   OH238250   1.406   5.207  11.667  0.2326  0.5295 -0.4753
 5612TIP3    H138251   1.370   5.295  11.681 -0.2974  0.4184 -1.0966
 5612TIP3    H238252   1.394   5.191  11.573 -0.9413 -0.7488 -0.1285
 5613TIP3   OH238253   2.761   5.407   0.071 -0.1252 -0.0306 -0.3549
 5613TIP3    H138254   2.787   5.498   0.084  0.4596 -0.1211 -0.8537
 5613TIP3    H238255   2.841   5.357   0.085 -0.5995 -0.5444  0.6727
 5614TIP3   OH238256   3.770   2.730   0.963  0.3116 -0.3708 -1.0773
 5614TIP3    H138257   3.739   2.712   0.874 -0.9484  1.8876 -1.1535
 5614TIP3    H238258   3.691   2.729   1.017  0.9956 -1.1281 -0.0511
 5615TIP3   OH238259   5.696   6.373   4.878  0.1372  0.2027 -0.0898
 5615TIP3    H138260   5.679   6.287   4.915 -1.5419 -0.2518 -1.7385
 5615TIP3    H238261   5.784   6.367   4.843  0.8548 -0.1075  1.6729
 5616TIP3   OH238262   5.964   5.062  16.486  0.2640 -0.0792  0.9857
 5616TIP3    H138263   5.943   5.155  16.493 -0.5987 -0.2953  1.3546
 5616TIP3    H238264   6.009   5.042  16.568  0.8570  0.1081  0.7148
 5617TIP3   OH238265   3.442   1.912  11.785  0.6358  0.1650 -0.4189
 5617TIP3    H138266   3.516   1.963  11.751 -0.1472  1.6896  0.0906
 5617TIP3    H238267   3.372   1.926  11.723  0.3660 -0.2226 -0.2087
 5618TIP3   OH238268   2.627   1.578   5.813 -0.1957  0.3643 -0.0725
 5618TIP3    H138269   2.654   1.527   5.889  0.3400 -0.7420 -0.9735
 5618TIP3    H238270   2.602   1.663   5.849 -0.4933 -0.3060  1.4037
 5619TIP3   OH238271   3.998   1.393   2.287  0.0909  0.1334  0.0948
 5619TIP3    H138272   4.039   1.477   2.305  0.2821 -0.0783  0.6688
 5619TIP3    H238273   3.904   1.413   2.280  0.1972  0.4779 -0.3356
 5620TIP3   OH238274   1.491   4.596  12.090 -0.1031  0.1927 -0.0690
 5620TIP3    H138275   1.478   4.534  12.018  0.0627 -0.3808  0.3830
 5620TIP3    H238276   1.407   4.641  12.100 -0.4205 -0.4065  0.0020
 5621TIP3   OH238277   5.569   2.429   0.928  0.2590 -0.0755  0.0325
 5621TIP3    H138278   5.664   2.436   0.937  0.2695  0.7309 -0.6608
 5621TIP3    H238279   5.549   2.338   0.951  1.3275 -0.5619 -0.8984
 5622TIP3   OH238280   4.858   1.127   2.146  0.4468  0.0162 -0.2737
 5622TIP3    H138281   4.938   1.087   2.180 -0.7814 -0.6222  2.0633
 5622TIP3    H238282   4.814   1.162   2.223 -2.3102 -1.0936 -1.2403
 5623TIP3   OH238283   2.634   4.695  14.350  0.4526 -0.0320 -0.4064
 5623TIP3    H138284   2.722   4.734  14.349  0.3922  0.1163 -1.3211
 5623TIP3    H238285   2.646   4.609  14.310 -0.1847  0.9261 -2.8843
 5624TIP3   OH238286   4.540   0.629  12.512  0.6733 -0.1127  0.0011
 5624TIP3    H138287   4.555   0.715  12.551 -2.3223  1.0372 -1.0757
 5624TIP3    H238288   4.598   0.570  12.561  2.4076  2.3745  1.1703
 5625TIP3   OH238289   0.238   4.946   5.987 -0.5493 -0.8064 -0.3841
 5625TIP3    H138290   0.241   4.870   6.045  0.2655  0.1163  0.8305
 5625TIP3    H238291   0.218   5.019   6.045  1.9812  0.4218 -0.9273
 5626TIP3   OH238292   6.700   5.458   3.603  0.1987 -0.5479  0.2636
 5626TIP3    H138293   6.790   5.478   3.579 -0.1709  1.8805  0.6705
 5626TIP3    H238294   6.653   5.540   3.592 -2.0805 -1.8274 -0.2951
 5627TIP3   OH238295   3.771   5.196  14.305 -0.1260  0.8471 -0.3062
 5627TIP3    H138296   3.696   5.252  14.327 -0.1584  0.3576  0.9128
 5627TIP3    H238297   3.765   5.123  14.367  1.0749  0.5399 -0.5341
 5628TIP3   OH238298   3.621   6.356   2.785 -0.6664  0.4840  0.3144
 5628TIP3    H138299   3.551   6.361   2.720  0.8177 -0.2966 -1.4346
 5628TIP3    H238300   3.575   6.352   2.869 -2.7013  0.0205 -0.7466
 5629TIP3   OH238301   1.647   2.490   1.372  0.0813  0.1316  0.1268
 5629TIP3    H138302   1.570   2.433   1.374 -1.0520  1.6162  0.1786
 5629TIP3    H238303   1.621   2.564   1.317  2.4430 -0.6363 -2.2444
 5630TIP3   OH238304   4.424   4.356  17.022  0.0137  0.3039 -0.0914
 5630TIP3    H138305   4.428   4.447  17.051 -0.8901  0.7814 -1.3654
 5630TIP3    H238306   4.384   4.360  16.935 -0.3864 -1.3416 -0.0263
 5631TIP3   OH238307   5.466   1.950   2.075 -0.1695  0.7457  0.5906
 5631TIP3    H138308   5.457   1.856   2.093 -0.7778  1.0673  2.1315
 5631TIP3    H238309   5.530   1.981   2.138 -0.1452  1.4182  0.2483
 5632TIP3   OH238310   1.307   5.127  11.425 -0.2925 -0.0191 -0.2702
 5632TIP3    H138311   1.338   5.037  11.437  0.3189  0.2253  0.0107
 5632TIP3    H238312   1.332   5.149  11.335  1.8813  0.7384  0.4427
 5633TIP3   OH238313   1.285   4.136  11.049 -0.3352  0.7063  0.5348
 5633TIP3    H138314   1.246   4.118  10.964  0.1683 -0.0574  0.4519
 5633TIP3    H238315   1.378   4.118  11.037 -0.4259 -0.6801  1.5557
 5634TIP3   OH238316   6.422   2.063  16.904 -0.0864  0.0493 -0.3215
 5634TIP3    H138317   6.502   2.071  16.956  0.5432  0.4549 -1.2942
 5634TIP3    H238318   6.434   1.983  16.853  0.4689  0.9457 -1.6645
 5635TIP3   OH238319   1.694   0.330   0.400  0.0014 -0.2131 -0.6505
 5635TIP3    H138320   1.705   0.369   0.487  1.2005 -0.6744 -0.5849
 5635TIP3    H238321   1.665   0.403   0.345 -1.4071 -0.0466  0.2486
 5636TIP3   OH238322   1.978   5.737   5.898  0.2058 -0.1469 -0.5821
 5636TIP3    H138323   1.979   5.825   5.862  2.4028 -1.0468 -3.1376
 5636TIP3    H238324   2.068   5.705   5.883 -0.9920 -3.4390 -1.6172
 5637TIP3   OH238325   4.900   0.006   6.009 -0.6153  0.3709 -0.0538
 5637TIP3    H138326   4.833   0.048   5.955  0.1357  0.0636 -1.2592
 5637TIP3    H238327   4.899   0.056   6.091 -0.4399  2.1398 -1.0605
 5638TIP3   OH238328   0.146   6.143   2.073  0.4252  0.1269 -0.2079
 5638TIP3    H138329   0.080   6.178   2.013 -0.5540 -0.0574  0.7362
 5638TIP3    H238330   0.125   6.050   2.080  1.2177 -0.0764 -0.4225
 5639TIP3   OH238331   4.203   5.196   2.154  0.3082  0.2461 -0.3002
 5639TIP3    H138332   4.282   5.147   2.174 -1.2006 -2.1391  0.2151
 5639TIP3    H238333   4.167   5.221   2.240 -2.3216 -3.6153 -0.0402
 5640TIP3   OH238334   0.323   5.856   0.377  0.2113  0.5619  0.5368
 5640TIP3    H138335   0.264   5.932   0.374  0.2472  0.5887  0.5105
 5640TIP3    H238336   0.411   5.894   0.374  0.2355  0.4524 -1.6005
 5641TIP3   OH238337   5.737   3.619   2.858 -0.5409  0.1811  0.4863
 5641TIP3    H138338   5.770   3.534   2.884  0.8548 -0.7067 -3.4169
 5641TIP3    H238339   5.811   3.679   2.869  1.1924 -0.8197 -3.6044
 5642TIP3   OH238340   0.822   3.529   3.973  0.1160 -0.4249 -0.0177
 5642TIP3    H138341   0.762   3.500   3.904  1.1160 -1.1524 -0.6099
 5642TIP3    H238342   0.808   3.467   4.044 -1.9665  1.1678  1.0823
 5643TIP3   OH238343   2.574   4.770  13.301  0.0750 -0.0241 -0.1842
 5643TIP3    H138344   2.513   4.813  13.362  1.1344  2.2810 -0.6367
 5643TIP3    H238345   2.552   4.808  13.216 -0.2096 -1.8853 -0.9754
 5644TIP3   OH238346   1.014   0.384  16.346  0.3439 -0.6214  0.7502
 5644TIP3    H138347   1.063   0.409  16.268  1.2929 -1.5509  1.0234
 5644TIP3    H238348   1.078   0.342  16.403  0.8359  3.8488  4.0508
 5645TIP3   OH238349   4.251   0.544   2.969  0.2289 -0.3583 -0.2967
 5645TIP3    H138350   4.278   0.627   2.931 -0.4751  0.4261  0.8568
 5645TIP3    H238351   4.158   0.555   2.987 -0.1128 -1.7592 -1.0136
 5646TIP3   OH238352   5.118   3.648   3.024  0.4003  0.0195  0.2607
 5646TIP3    H138353   5.171   3.607   2.956 -0.7384 -1.4512  0.2110
 5646TIP3    H238354   5.182   3.681   3.087  1.4095 -1.3996  0.0347
 5647TIP3   OH238355   0.395   6.276   2.109 -0.2384  0.4524 -0.9444
 5647TIP3    H138356   0.345   6.328   2.172 -2.1635  1.0387 -2.8196
 5647TIP3    H238357   0.333   6.212   2.075  1.2676 -1.1073 -0.9226
 5648TIP3   OH238358   0.020   1.080   5.716  0.1657  0.2680  0.3614
 5648TIP3    H138359   0.100   1.057   5.671 -0.4027  1.2025 -1.2203
 5648TIP3    H238360  -0.038   1.005   5.704 -0.3184  0.8624 -1.3914
 5649TIP3   OH238361   0.586   4.547   4.524 -0.4092  0.0817  0.3127
 5649TIP3    H138362   0.506   4.596   4.544 -2.4366 -3.6797  2.6565
 5649TIP3    H238363   0.564   4.495   4.447  0.1309 -0.2944  0.4089
 5650TIP3   OH238364   0.861   4.634  17.145 -0.3683 -0.2340 -0.2916
 5650TIP3    H138365   0.892   4.562  17.200 -1.9001  0.8762  2.2573
 5650TIP3    H238366   0.772   4.609  17.121  0.5173 -1.0273 -3.0448
 5651TIP3   OH238367   0.723   1.664   5.673 -0.2978  0.1643 -0.7623
 5651TIP3    H138368   0.737   1.572   5.648 -0.1719  0.1365 -0.5946
 5651TIP3    H238369   0.632   1.668   5.701  0.3827 -0.5232  1.7994
 5652TIP3   OH238370   5.647   3.846  14.451 -0.2953 -0.1727  0.3717
 5652TIP3    H138371   5.689   3.893  14.523 -0.8610 -0.6476  1.0269
 5652TIP3    H238372   5.720   3.806  14.402  0.0931  0.1341  0.6936
 5653TIP3   OH238373   1.276   5.942   3.954 -0.5323  0.4995 -0.0145
 5653TIP3    H138374   1.263   5.858   3.999 -0.4691 -0.1093 -1.0725
 5653TIP3    H238375   1.189   5.980   3.949 -1.0965 -0.8557 -1.9860
 5654TIP3   OH238376   1.798   4.229   1.082  0.0600 -0.0399  0.0680
 5654TIP3    H138377   1.736   4.168   1.041 -1.8372  0.5810  1.7978
 5654TIP3    H238378   1.875   4.177   1.100 -1.9810 -2.4549  2.7668
 5655TIP3   OH238379   0.011   0.459   6.150  0.0348 -0.5492 -0.0243
 5655TIP3    H138380   0.028   0.543   6.192 -0.2468 -0.4798 -0.0467
 5655TIP3    H238381  -0.076   0.433   6.182  0.9914 -1.8742  1.6955
 5656TIP3   OH238382   6.170   3.633   0.540  0.0490  0.3134 -0.1917
 5656TIP3    H138383   6.258   3.664   0.515  1.1500 -1.2861  1.4531
 5656TIP3    H238384   6.186   3.573   0.613 -2.5127  0.5788  0.6715
 5657TIP3   OH238385   4.185   6.296  13.471  0.0080 -0.0635 -0.1709
 5657TIP3    H138386   4.133   6.350  13.529 -1.0580 -2.1252  0.8926
 5657TIP3    H238387   4.134   6.292  13.390 -1.2573 -1.5352  0.6407
 5658TIP3   OH238388   3.395   6.470  12.283 -0.8389  0.2602  0.2314
 5658TIP3    H138389   3.383   6.416  12.360 -1.2116  0.9945  0.7027
 5658TIP3    H238390   3.486   6.455  12.257 -0.7786 -0.1661  0.6732
 5659TIP3   OH238391   5.036   6.386   6.092 -0.4508 -0.4104 -0.1204
 5659TIP3    H138392   5.101   6.412   6.158  0.0175  0.7189 -0.9952
 5659TIP3    H238393   4.952   6.392   6.137 -0.0652 -0.5959  0.6453
 5660TIP3   OH238394   3.983   2.826  14.189  0.2507 -0.2534  0.2534
 5660TIP3    H138395   3.972   2.902  14.132  1.1625  0.8977  1.5668
 5660TIP3    H238396   3.986   2.751  14.129  0.0417  0.8048 -1.1096
 5661TIP3   OH238397   6.143   3.059   4.955 -0.3621 -0.2737  0.1469
 5661TIP3    H138398   6.180   3.148   4.952  1.8163 -1.1349  0.0097
 5661TIP3    H238399   6.141   3.031   4.864  0.3043 -0.8726  0.3112
 5662TIP3   OH238400   4.378   1.825  11.161  0.5839 -0.0992  0.8519
 5662TIP3    H138401   4.419   1.740  11.142  0.7413  0.1156  0.2055
 5662TIP3    H238402   4.447   1.875  11.206  1.0965  0.3087 -0.3520
 5663TIP3   OH238403   3.035   5.134   0.361 -0.0459 -0.2806 -0.0361
 5663TIP3    H138404   3.117   5.180   0.377 -1.4741  1.8022  2.0715
 5663TIP3    H238405   3.058   5.041   0.363  1.8803  0.1207  3.3046
 5664TIP3   OH238406   5.690   4.119   3.587 -0.2705 -0.1102  0.1530
 5664TIP3    H138407   5.755   4.116   3.516  0.1964 -0.9049  0.6002
 5664TIP3    H238408   5.649   4.205   3.577 -0.0755 -0.1211 -0.9560
 5665TIP3   OH238409   6.682   6.726  10.631 -0.1081 -0.3334 -0.2521
 5665TIP3    H138410   6.611   6.692  10.576 -0.4582  0.5588 -0.3652
 5665TIP3    H238411   6.639   6.747  10.714  0.8778 -4.3261  1.5103
 5666TIP3   OH238412   3.260   4.740   5.248  0.6374  0.1083  0.1838
 5666TIP3    H138413   3.199   4.811   5.268  1.5016  0.8096  0.3868
 5666TIP3    H238414   3.288   4.708   5.333 -1.0477 -1.6724  0.1406
 5667TIP3   OH238415   0.020   5.585   0.424 -0.0293  0.6146 -0.1629
 5667TIP3    H138416   0.101   5.613   0.465 -0.4607  0.3122  0.9377
 5667TIP3    H238417  -0.045   5.588   0.494 -0.4754 -1.4012 -0.4226
 5668TIP3   OH238418   6.252   1.545  14.089 -0.0895  0.1074  0.4464
 5668TIP3    H138419   6.189   1.564  14.158 -0.2148  1.1411  0.0652
 5668TIP3    H238420   6.240   1.452  14.071 -1.0680  0.1452  0.8210
 5669TIP3   OH238421   4.008   0.382  12.704 -0.0247  0.2411  0.1063
 5669TIP3    H138422   4.020   0.449  12.637 -1.0586 -0.8523 -1.2390
 5669TIP3    H238423   4.087   0.329  12.699  0.5207  0.9667  0.7503
 5670TIP3   OH238424   3.839   3.273  12.313 -0.0549 -0.0453 -0.1893
 5670TIP3    H138425   3.852   3.355  12.266 -0.4586 -0.0947 -0.3973
 5670TIP3    H238426   3.926   3.247  12.342  0.0168  0.6735  0.2491
 5671TIP3   OH238427   2.689   3.637  16.489  0.1461  0.1476 -0.0468
 5671TIP3    H138428   2.778   3.609  16.469  0.2475 -0.8321  1.5646
 5671TIP3    H238429   2.634   3.561  16.472 -0.3318  0.5961 -0.5674
 5672TIP3   OH238430   4.751   5.588  13.831  0.1401 -0.4309  0.3212
 5672TIP3    H138431   4.829   5.561  13.880  0.2478  0.3005  0.5554
 5672TIP3    H238432   4.785   5.633  13.754 -0.0436 -0.8063  0.0161
 5673TIP3   OH238433   4.784   6.278   6.263  0.2580  1.1320  0.1057
 5673TIP3    H138434   4.745   6.365   6.249 -1.0010  0.7159  0.7911
 5673TIP3    H238435   4.728   6.238   6.330  1.6534  0.3175  0.8308
 5674TIP3   OH238436   6.711   1.695   3.637  0.1469 -0.5123 -0.4774
 5674TIP3    H138437   6.778   1.763   3.632  0.3796 -0.5854  1.1382
 5674TIP3    H238438   6.628   1.744   3.637  0.1944 -0.4036 -2.1112
 5675TIP3   OH238439   3.068   1.177  13.843 -0.0839 -0.4870 -0.2111
 5675TIP3    H138440   3.113   1.222  13.773  1.4272 -2.7264 -0.7855
 5675TIP3    H238441   2.976   1.178  13.817  0.0252  1.3351 -0.6514
 5676TIP3   OH238442   5.936   5.717  12.288 -0.3516  0.6391  0.3930
 5676TIP3    H138443   5.909   5.808  12.299  1.9234  1.2731  1.2935
 5676TIP3    H238444   5.876   5.667  12.343 -1.6734  1.5737 -0.1656
 5677TIP3   OH238445   0.579   2.563  14.032 -0.7263 -0.0114 -0.2320
 5677TIP3    H138446   0.617   2.536  14.115  0.1361  0.4621 -0.4661
 5677TIP3    H238447   0.487   2.583  14.054 -1.1287 -2.0480  0.1440
 5678TIP3   OH238448   1.618   3.324   5.417 -0.5058 -0.7168 -0.2400
 5678TIP3    H138449   1.538   3.367   5.387  0.6920  1.2581 -0.8003
 5678TIP3    H238450   1.688   3.363   5.364  0.9646 -1.5905  0.9644
 5679TIP3   OH238451   6.477   2.472   1.995  0.2548 -0.1176 -0.5131
 5679TIP3    H138452   6.472   2.516   2.080  4.0064  0.9085 -0.6378
 5679TIP3    H238453   6.447   2.538   1.932  0.5530  0.2957 -0.2298
 5680TIP3   OH238454   6.555   3.622   3.258 -0.0710 -0.0019  0.0745
 5680TIP3    H138455   6.478   3.565   3.256  0.9124 -1.3785  0.1451
 5680TIP3    H238456   6.519   3.710   3.268 -1.7319 -0.4124 -1.6114
 5681TIP3   OH238457   5.083   4.423   3.007 -0.1305 -0.3462 -0.2786
 5681TIP3    H138458   5.171   4.443   2.976 -0.6495  1.0982 -0.8984
 5681TIP3    H238459   5.053   4.504   3.048 -2.2181  0.1843 -2.6106
 5682TIP3   OH238460   5.127   3.110   3.623 -0.5814  0.0027  0.1302
 5682TIP3    H138461   5.140   3.049   3.550  1.5419  0.3426  0.1531
 5682TIP3    H238462   5.126   3.054   3.700 -1.3083 -0.2278 -0.0428
 5683TIP3   OH238463   0.195   1.270  16.604 -0.4941  0.0908 -0.3633
 5683TIP3    H138464   0.263   1.228  16.657 -1.8385 -1.2521  0.3960
 5683TIP3    H238465   0.217   1.246  16.514 -0.6110 -1.3939 -0.0243
 5684TIP3   OH238466   2.560   5.066  16.092  0.0155  0.3244 -0.3988
 5684TIP3    H138467   2.553   5.039  16.184  1.6671 -0.7152 -0.5322
 5684TIP3    H238468   2.612   5.146  16.095 -2.6179  2.1216 -0.2207
 5685TIP3   OH238469   5.927   2.715   3.022  0.4974  0.2133 -0.5021
 5685TIP3    H138470   5.987   2.651   2.985 -0.0635 -0.1247 -0.8476
 5685TIP3    H238471   5.840   2.683   2.998  0.2174  1.6191 -1.5471
 5686TIP3   OH238472   6.754   4.900  14.008 -0.4466 -0.2436 -0.3059
 5686TIP3    H138473   6.746   4.970  14.072 -2.0169 -0.3296 -0.3679
 5686TIP3    H238474   6.729   4.821  14.056  0.2142 -0.5992 -0.5336
 5687TIP3   OH238475   1.106   4.273   4.966 -0.1026 -0.5458  0.3330
 5687TIP3    H138476   1.060   4.314   5.040 -0.3719  2.2254 -1.2215
 5687TIP3    H238477   1.079   4.181   4.968 -0.2529 -0.5394  3.5064
 5688TIP3   OH238478   1.627   0.329   4.754 -0.2918 -0.0952 -0.4129
 5688TIP3    H138479   1.555   0.377   4.795  0.4599  1.2979 -0.6351
 5688TIP3    H238480   1.678   0.295   4.827 -1.8274 -2.2561 -0.2292
 5689TIP3   OH238481   2.338   1.707  15.831 -0.5589 -0.3861 -0.0754
 5689TIP3    H138482   2.416   1.696  15.777 -1.4861  0.3323 -1.6477
 5689TIP3    H238483   2.356   1.785  15.883 -0.7270  0.6315 -1.4685
 5690TIP3   OH238484   1.101   0.063  16.466 -0.2570 -0.0996  0.2149
 5690TIP3    H138485   1.030   0.062  16.530 -1.5694 -0.2433 -1.2088
 5690TIP3    H238486   1.154  -0.013  16.488 -0.3265  0.2030  1.5101
 5691TIP3   OH238487   4.744   0.370  13.756 -0.0125  0.0040 -0.0211
 5691TIP3    H138488   4.795   0.405  13.683 -1.4362 -0.6960 -1.4070
 5691TIP3    H238489   4.692   0.444  13.787 -1.8902 -0.4056 -1.9604
 5692TIP3   OH238490   4.582   6.526  15.514  0.2537 -0.1507  0.1812
 5692TIP3    H138491   4.597   6.619  15.496 -0.7652 -0.0452 -0.1878
 5692TIP3    H238492   4.629   6.510  15.596 -0.0318  0.8242  0.5572
 5693TIP3   OH238493   0.679   1.871  15.495  0.1974  0.2401 -0.0481
 5693TIP3    H138494   0.763   1.859  15.452 -0.0593  0.5858 -0.6607
 5693TIP3    H238495   0.619   1.814  15.446 -0.4262  1.7808 -1.1717
 5694TIP3   OH238496   4.177   0.630   4.135 -0.1126 -0.0017  0.5477
 5694TIP3    H138497   4.203   0.568   4.067  0.4981  0.3680  0.4285
 5694TIP3    H238498   4.191   0.716   4.095  0.1276  0.2169  1.0932
 5695TIP3   OH238499   3.556   0.310   4.974 -0.8206 -0.5554  0.2013
 5695TIP3    H138500   3.514   0.232   4.937  0.9853 -1.3606 -0.2496
 5695TIP3    H238501   3.553   0.296   5.069 -2.5469 -0.0426  0.2536
 5696TIP3   OH238502   4.515   3.434   1.459  0.1549 -0.4925  0.2816
 5696TIP3    H138503   4.504   3.355   1.513 -2.1921 -1.6641 -1.7048
 5696TIP3    H238504   4.481   3.504   1.514 -0.8692 -1.4211  0.8955
 5697TIP3   OH238505   5.170   1.099  15.891  0.2309 -0.5142 -0.0118
 5697TIP3    H138506   5.184   1.040  15.817  0.4400 -0.7283  0.1965
 5697TIP3    H238507   5.253   1.145  15.902 -0.0038 -0.0046 -0.3213
 5698TIP3   OH238508   1.332   1.583  16.321  0.1788 -0.0012 -0.5609
 5698TIP3    H138509   1.387   1.654  16.290 -0.3913  0.5866 -0.2492
 5698TIP3    H238510   1.243   1.605  16.292  0.2989 -1.8157 -2.6008
 5699TIP3   OH238511   2.077   6.713   4.617  0.6275 -0.0976  0.1018
 5699TIP3    H138512   2.032   6.776   4.672  0.7029 -0.5540  0.6997
 5699TIP3    H238513   2.136   6.765   4.563  0.7043  0.3397  0.6047
 5700TIP3   OH238514   4.354   4.402  15.557  0.2948  0.0476 -0.6166
 5700TIP3    H138515   4.428   4.340  15.555  2.1411  2.0639  0.5867
 5700TIP3    H238516   4.297   4.368  15.626  0.9736 -0.6437 -0.3733
 5701TIP3   OH238517   3.790   0.483  12.820  1.0722  0.3480 -0.0873
 5701TIP3    H138518   3.868   0.442  12.782  1.2828  0.7730 -0.1123
 5701TIP3    H238519   3.755   0.538  12.750  0.7824  0.2036 -0.0552
 5702TIP3   OH238520   3.937   2.241   5.375 -0.0640  0.2225  0.4526
 5702TIP3    H138521   3.933   2.171   5.439  0.4821 -0.9848 -0.7798
 5702TIP3    H238522   3.929   2.197   5.290  0.7382  1.5907 -0.3802
 5703TIP3   OH238523   5.193   4.260  14.434 -0.7907  0.0945 -0.1091
 5703TIP3    H138524   5.171   4.318  14.362 -0.3991  0.2367 -0.1206
 5703TIP3    H238525   5.109   4.228  14.467 -1.2339  2.7609  1.6478
 5704TIP3   OH238526   6.074   2.722   0.530  0.2834 -0.3121  0.6538
 5704TIP3    H138527   6.001   2.702   0.588  1.0378 -0.9404  1.4104
 5704TIP3    H238528   6.097   2.638   0.489 -0.2783  0.1309 -0.6311
 5705TIP3   OH238529   5.169   6.049   5.210 -0.1005 -0.7074 -0.5615
 5705TIP3    H138530   5.240   6.100   5.170 -2.6230  2.8831 -0.9611
 5705TIP3    H238531   5.149   6.096   5.291 -2.2472 -1.3179 -0.6724
 5706TIP3   OH238532   5.870   4.774  16.030 -0.3994 -0.8352  0.4742
 5706TIP3    H138533   5.841   4.858  16.066  0.2244 -0.6262  0.4918
 5706TIP3    H238534   5.841   4.776  15.939 -0.4684 -0.6388  0.4998
 5707TIP3   OH238535   0.029   4.876  14.371 -0.4241  0.1323  0.6059
 5707TIP3    H138536   0.074   4.868  14.455 -2.8331 -2.2451  1.7848
 5707TIP3    H238537   0.014   4.786  14.343  2.1440  0.7167 -3.5846
 5708TIP3   OH238538   1.250   6.463   3.301  0.2884 -0.2869  0.3879
 5708TIP3    H138539   1.321   6.427   3.354  0.1024  0.8037  1.4190
 5708TIP3    H238540   1.270   6.556   3.293 -0.6982 -0.0821  0.1511
 5709TIP3   OH238541   2.158   1.150  11.454 -0.4789  0.2789  0.6355
 5709TIP3    H138542   2.185   1.217  11.517  0.0168  0.3439  0.3663
 5709TIP3    H238543   2.142   1.199  11.373 -0.8379  0.1633  0.6381
 5710TIP3   OH238544   0.254   4.538  13.729  0.6156  0.1186  0.2017
 5710TIP3    H138545   0.180   4.585  13.767  1.5824  1.8478  0.0442
 5710TIP3    H238546   0.279   4.590  13.653  3.6856  1.2107  1.7635
 5711TIP3   OH238547   3.463   0.586  12.891 -0.7948 -0.0981  0.3122
 5711TIP3    H138548   3.508   0.660  12.851 -1.3001  0.8712  1.5024
 5711TIP3    H238549   3.394   0.625  12.944 -1.0673 -1.4206  0.9691
 5712TIP3   OH238550   3.027   4.886  17.090 -0.3892  0.0495  0.4466
 5712TIP3    H138551   2.984   4.881  17.176  1.6083 -0.5720  1.4784
 5712TIP3    H238552   3.026   4.979  17.068  1.5962  0.6922  2.5844
 5713TIP3   OH238553   3.714   4.470   5.786 -0.0940 -0.1181  0.6328
 5713TIP3    H138554   3.637   4.437   5.832  1.3047 -1.0418  2.4159
 5713TIP3    H238555   3.764   4.516   5.853  1.1168  0.1354 -0.4081
 5714TIP3   OH238556   6.320   6.199  16.999 -0.6075  0.2206  0.6401
 5714TIP3    H138557   6.263   6.212  16.923  0.1137 -0.1477  0.0178
 5714TIP3    H238558   6.398   6.251  16.980 -0.9114  1.0951  1.6948
 5715TIP3   OH238559   6.299   0.990  14.821 -0.1178 -0.1626 -0.3922
 5715TIP3    H138560   6.303   0.988  14.725  1.2939  0.5747 -0.3884
 5715TIP3    H238561   6.280   1.081  14.842 -1.9700 -0.6128  0.0354
 5716TIP3   OH238562   1.888   2.312  16.982  0.8686 -0.0306  0.3367
 5716TIP3    H138563   1.968   2.359  17.003  0.4689  0.7266  0.2029
 5716TIP3    H238564   1.825   2.338  17.049  0.6774 -0.4721  0.3338
 5717TIP3   OH238565   5.034   6.219   5.854 -0.2345 -0.0275  0.3700
 5717TIP3    H138566   5.025   6.266   5.937  0.3359  0.4340  0.1766
 5717TIP3    H238567   5.031   6.127   5.878  0.2531  0.1009  0.9469
 5718TIP3   OH238568   0.427   2.658   1.724  0.4098 -0.4559  0.0129
 5718TIP3    H138569   0.415   2.599   1.649 -0.6505 -0.2188 -0.0167
 5718TIP3    H238570   0.468   2.736   1.687  1.1004 -0.8534 -0.0824
 5719TIP3   OH238571   4.215   0.227  16.979  0.3204 -0.8412  0.3519
 5719TIP3    H138572   4.253   0.208  17.065 -1.7783 -1.8818  1.1174
 5719TIP3    H238573   4.176   0.145  16.951 -0.8200  0.0108 -0.6602
 5720TIP3   OH238574   5.518   4.580  14.069 -0.0788 -0.6856  0.4057
 5720TIP3    H138575   5.511   4.662  14.021 -0.3169 -1.0120 -0.1254
 5720TIP3    H238576   5.586   4.597  14.134 -0.4265  0.0671  0.5858
 5721TIP3   OH238577   2.031   1.726   2.757  0.1115 -0.1267  0.0043
 5721TIP3    H138578   2.079   1.797   2.714  0.0412  0.0538  0.2230
 5721TIP3    H238579   2.084   1.648   2.742  0.3582  0.0315  0.0503
 5722TIP3   OH238580   0.219   5.811  13.258 -0.5173 -0.2550  0.3310
 5722TIP3    H138581   0.186   5.790  13.171 -0.5094  0.8526  0.0533
 5722TIP3    H238582   0.151   5.866  13.297 -0.6920 -1.0390  1.1741
 5723TIP3   OH238583   4.152   3.883  12.824  0.1211  0.7039 -0.1103
 5723TIP3    H138584   4.111   3.958  12.781 -2.3563 -1.3477 -1.6389
 5723TIP3    H238585   4.082   3.818  12.830  2.2452 -1.6623  0.7311
 5724TIP3   OH238586   1.118   5.128  13.843  0.4498  0.0142  0.4712
 5724TIP3    H138587   1.056   5.108  13.773  1.1689 -1.7393  0.2670
 5724TIP3    H238588   1.067   5.121  13.924 -0.0337  0.4659  0.2064
 5725TIP3   OH238589   6.461   2.459   4.758  0.0342  0.4619 -0.1888
 5725TIP3    H138590   6.461   2.365   4.741  0.3105  0.6022 -1.0019
 5725TIP3    H238591   6.552   2.481   4.777  0.5626  1.0655 -3.0252
 5726TIP3   OH238592   4.404   5.951   3.727 -0.3454 -0.2191  0.0369
 5726TIP3    H138593   4.323   6.001   3.728 -0.4947 -0.4619  0.0726
 5726TIP3    H238594   4.449   5.980   3.647  0.9281  2.1208  1.4703
 5727TIP3   OH238595   2.056   2.069   6.044  0.0954 -0.3141  0.3172
 5727TIP3    H138596   1.966   2.069   6.012 -0.2855  1.5501  1.3147
 5727TIP3    H238597   2.109   2.060   5.965 -0.9209  0.4249 -0.4694
 5728TIP3   OH238598   3.899   5.002  17.224  0.1195 -0.4891 -0.1783
 5728TIP3    H138599   3.983   5.049  17.224 -0.6382  0.9288 -0.9988
 5728TIP3    H238600   3.883   4.983  17.316  0.3565  1.1116  0.2323
 5729TIP3   OH238601   4.217   3.355  13.214  0.4414 -0.2819  0.0569
 5729TIP3    H138602   4.142   3.296  13.202 -1.2960  2.1593 -2.4420
 5729TIP3    H238603   4.181   3.430  13.260  1.6503  0.4747 -0.2009
 5730TIP3   OH238604   2.548   3.921  16.908 -0.3104  0.1738 -0.5521
 5730TIP3    H138605   2.578   3.984  16.842 -1.9169  0.6168 -0.9015
 5730TIP3    H238606   2.629   3.883  16.942  0.5969  0.3709 -2.3389
 5731TIP3   OH238607   2.332   1.333  16.268 -0.1524  0.6948  0.1565
 5731TIP3    H138608   2.406   1.339  16.329  0.5444  1.0567 -0.6962
 5731TIP3    H238609   2.359   1.268  16.204 -1.6638 -1.1079  1.2352
 5732TIP3   OH238610   3.958   3.510  14.808  0.0659  0.0844 -0.2163
 5732TIP3    H138611   4.006   3.512  14.891  1.6787 -0.8154 -1.0670
 5732TIP3    H238612   3.883   3.453  14.825  0.3784 -0.0867  0.6296
 5733TIP3   OH238613   1.494   1.041   5.599  0.3768  0.3863  0.2287
 5733TIP3    H138614   1.539   0.957   5.605  0.7283  0.5133 -0.4872
 5733TIP3    H238615   1.523   1.078   5.515  0.2068  1.2076  0.5208
 5734TIP3   OH238616   3.535   2.133   4.778 -0.7253 -0.3561 -0.4648
 5734TIP3    H138617   3.604   2.102   4.719  0.0443 -0.1739  0.3021
 5734TIP3    H238618   3.522   2.060   4.839  1.7596  1.0102  1.9302
 5735TIP3   OH238619   5.278   2.983  13.227  0.2678 -0.2075  0.0080
 5735TIP3    H138620   5.334   2.996  13.150  1.1984  0.8539  0.8247
 5735TIP3    H238621   5.324   2.919  13.280 -0.0728 -0.4846 -0.0250
 5736TIP3   OH238622   6.720   5.546  16.261 -0.1863 -0.2232  0.0372
 5736TIP3    H138623   6.669   5.622  16.233  0.3693  1.4126  3.0575
 5736TIP3    H238624   6.794   5.543  16.200 -0.7218  1.0398 -0.7228
 5737TIP3   OH238625   4.387   4.724   6.386  0.8342 -0.3456 -0.3364
 5737TIP3    H138626   4.419   4.807   6.422  3.1105 -0.8072 -1.1585
 5737TIP3    H238627   4.465   4.671   6.374 -0.4708 -2.2860 -0.7490
 5738TIP3   OH238628   4.421   5.735  17.236 -0.3886  0.0772 -0.4985
 5738TIP3    H138629   4.424   5.786  17.156 -0.1757 -0.6496 -0.9699
 5738TIP3    H238630   4.498   5.678  17.231 -0.7703 -0.4834 -0.1271
 5739TIP3   OH238631   1.819   0.004   3.402 -0.8286  0.2378 -0.5491
 5739TIP3    H138632   1.773  -0.016   3.321 -2.4270 -0.5064  0.4969
 5739TIP3    H238633   1.786   0.090   3.428 -1.0442  0.0543 -0.2067
 5740TIP3   OH238634   3.033   6.646  16.645 -0.7698  0.5349  0.2771
 5740TIP3    H138635   3.095   6.718  16.631 -0.4359  0.3153  0.6045
 5740TIP3    H238636   3.068   6.575  16.592 -0.5715  0.3171  0.6923
 5741TIP3   OH238637   1.156   3.823   1.157 -0.3577  0.8420 -0.2639
 5741TIP3    H138638   1.208   3.810   1.078 -1.9808 -1.0433 -1.0923
 5741TIP3    H238639   1.211   3.791   1.228  0.1960  0.2820 -0.9382
 5742TIP3   OH238640   6.611   2.594  16.887  0.3572 -0.1846  0.2263
 5742TIP3    H138641   6.583   2.542  16.812  0.6005  0.7622 -0.5421
 5742TIP3    H238642   6.706   2.601  16.877  0.8326 -2.3340  2.1366
 5743TIP3   OH238643   0.290   6.061  16.314  0.0882  0.2788 -0.3144
 5743TIP3    H138644   0.287   6.005  16.236 -2.4133  1.6473 -1.3030
 5743TIP3    H238645   0.291   5.999  16.387 -1.5502 -1.0976 -1.3770
 5744TIP3   OH238646   0.143   3.162   1.647 -0.4144  0.6688  0.3342
 5744TIP3    H138647   0.123   3.072   1.620  0.2704  0.6361 -0.0848
 5744TIP3    H238648   0.174   3.205   1.568  0.9805  0.7611  0.8965
 5745TIP3   OH238649   3.513   3.246  15.574  0.8151 -0.9446 -0.3701
 5745TIP3    H138650   3.531   3.214  15.485  0.5762  0.5020 -0.9672
 5745TIP3    H238651   3.598   3.275  15.607  0.7214 -0.4140 -0.5817
 5746TIP3   OH238652   1.735   4.278   1.418  0.1303  0.8171 -0.4701
 5746TIP3    H138653   1.779   4.193   1.412 -1.2202 -0.0019  0.6830
 5746TIP3    H238654   1.763   4.314   1.502 -1.5600  0.1382  0.4400
 5747TIP3   OH238655   6.144   4.377   6.650  0.0767  0.5229 -0.0995
 5747TIP3    H138656   6.137   4.467   6.682 -1.2657  0.8221 -1.1354
 5747TIP3    H238657   6.161   4.387   6.556  1.6629 -0.3340  0.0564
 5748TIP3   OH238658   2.076   4.820   4.436  0.2751 -0.2179 -0.3099
 5748TIP3    H138659   2.067   4.915   4.426  1.6147 -0.0417  0.0248
 5748TIP3    H238660   2.077   4.806   4.531  2.7112 -0.2476 -0.2730
 5749TIP3   OH238661   0.510   4.607   3.444 -0.2694  0.1361 -0.0961
 5749TIP3    H138662   0.455   4.615   3.522  0.1658  0.5542  0.1768
 5749TIP3    H238663   0.594   4.645   3.470  0.3319 -0.9867 -0.3278
 5750TIP3   OH238664   0.088   0.590  13.188  0.3202 -0.0777  0.6147
 5750TIP3    H138665   0.108   0.633  13.271 -0.9014  0.7197  0.5192
 5750TIP3    H238666   0.170   0.548  13.163  1.0662  0.7295  1.5930
 5751TIP3   OH238667   6.486   1.723   3.286 -0.3131  0.3687  0.2503
 5751TIP3    H138668   6.499   1.727   3.191  0.3870  1.0315  0.3612
 5751TIP3    H238669   6.525   1.640   3.312 -1.9752 -0.5995 -0.2408
 5752TIP3   OH238670   6.533   1.688   0.741  0.4904 -0.5765 -0.0750
 5752TIP3    H138671   6.556   1.761   0.798 -1.5223  0.9206 -1.0492
 5752TIP3    H238672   6.496   1.622   0.800  0.5355  0.0056  0.6079
 5753TIP3   OH238673   6.612   3.326  13.222  0.0799  0.6152  0.0081
 5753TIP3    H138674   6.551   3.385  13.177  0.6575  1.5281  0.3742
 5753TIP3    H238675   6.577   3.319  13.311 -0.5205 -0.3975 -0.2891
 5754TIP3   OH238676   6.089   1.803   5.088  0.0916 -0.3527 -0.5287
 5754TIP3    H138677   6.119   1.886   5.051 -4.2021  1.3996 -0.6527
 5754TIP3    H238678   6.069   1.749   5.012 -1.8646  0.5327 -0.7213
 5755TIP3   OH238679   1.290   2.786   1.001 -0.4001  0.1026 -0.0357
 5755TIP3    H138680   1.260   2.753   1.086 -1.8022  0.9628 -0.1564
 5755TIP3    H238681   1.210   2.817   0.958  0.2494 -0.5323 -1.7858
 5756TIP3   OH238682   1.929   3.754   5.082  0.0401  0.1000  0.5002
 5756TIP3    H138683   1.919   3.685   5.147 -0.0446 -1.7916 -1.4239
 5756TIP3    H238684   2.011   3.735   5.038 -0.2685  0.8716 -0.4668
 5757TIP3   OH238685   4.261   5.886  13.060  0.1036 -0.1862 -0.0748
 5757TIP3    H138686   4.350   5.879  13.095  0.0633  0.8620  0.2667
 5757TIP3    H238687   4.241   5.979  13.064 -1.4610 -0.5359  1.0016
 5758TIP3   OH238688   6.127   1.519   1.948  0.5510  0.1324 -0.2496
 5758TIP3    H138689   6.146   1.594   2.005  0.0107 -0.3281  0.5548
 5758TIP3    H238690   6.185   1.531   1.873  3.0952 -0.5465  1.4830
 5759TIP3   OH238691   3.694   1.299   3.897 -0.6525  0.0604  0.6054
 5759TIP3    H138692   3.635   1.330   3.829 -0.0540 -1.0697 -0.4776
 5759TIP3    H238693   3.780   1.298   3.855 -0.2314 -0.4744  1.4438
 5760TIP3   OH238694   6.024   3.414  11.594  0.1491 -0.2036  0.0477
 5760TIP3    H138695   6.080   3.491  11.605 -0.8219  0.2184  2.5981
 5760TIP3    H238696   5.961   3.439  11.527 -0.1897  1.2806  0.8805
 5761TIP3   OH238697   1.516   2.587   3.356  0.1314 -1.0064  0.6463
 5761TIP3    H138698   1.563   2.579   3.439 -0.3008  0.7542  1.1069
 5761TIP3    H238699   1.425   2.566   3.377 -0.1598  0.3479  0.8758
 5762TIP3   OH238700   0.456   5.519   0.152  0.4361  1.0465  0.7196
 5762TIP3    H138701   0.407   5.548   0.075  0.6268 -1.3146 -0.3736
 5762TIP3    H238702   0.397   5.460   0.198  1.3721  0.0324  0.6740
 5763TIP3   OH238703   4.778   2.063   0.391 -0.9063 -0.2907 -0.0387
 5763TIP3    H138704   4.776   1.971   0.364  0.1473 -0.3333 -0.0212
 5763TIP3    H238705   4.828   2.062   0.473 -0.6327  0.3277 -0.1943
 5764TIP3   OH238706   5.821   5.342   2.855 -0.7717 -0.6079 -0.2894
 5764TIP3    H138707   5.834   5.337   2.760  0.2310 -0.4246 -0.1682
 5764TIP3    H238708   5.789   5.256   2.879 -3.3534  0.0212 -1.1128
 5765TIP3   OH238709   4.305   1.734   1.718  0.6039 -0.2183 -0.5593
 5765TIP3    H138710   4.376   1.692   1.766  0.6381 -2.2879 -2.2769
 5765TIP3    H238711   4.262   1.663   1.670 -1.5692  1.2191 -0.9272
 5766TIP3   OH238712   1.024   3.582   1.836 -0.3365  0.0326  0.3867
 5766TIP3    H138713   0.949   3.522   1.841  0.2412 -1.0941 -2.5936
 5766TIP3    H238714   1.091   3.540   1.891 -0.6586 -0.9788  0.0379
 5767TIP3   OH238715   4.077   3.027   1.928 -0.1092 -0.4902 -0.3592
 5767TIP3    H138716   4.106   3.113   1.898  1.2883 -1.2827 -1.4353
 5767TIP3    H238717   4.047   3.041   2.017  1.2186  0.8981 -0.0889
 5768TIP3   OH238718   6.504   0.150  14.947  0.3486 -0.8832 -0.3229
 5768TIP3    H138719   6.596   0.128  14.958 -0.1229 -3.2138 -0.6153
 5768TIP3    H238720   6.474   0.173  15.035  0.6100 -2.6919  0.2632
 5769TIP3   OH238721   0.766   1.407   6.500 -0.2104 -0.6415 -0.2409
 5769TIP3    H138722   0.689   1.445   6.544 -0.2678 -0.5954 -0.3808
 5769TIP3    H238723   0.835   1.472   6.513 -0.3433 -0.4255 -0.5935
 5770TIP3   OH238724   0.839   3.117   3.269  0.5804 -0.1330  0.3467
 5770TIP3    H138725   0.789   3.087   3.193  1.7088  0.2169 -0.5661
 5770TIP3    H238726   0.905   3.176   3.233  0.4776  0.8744  1.7370
 5771TIP3   OH238727   4.836   4.488  13.598  0.0485 -0.7868  0.3489
 5771TIP3    H138728   4.847   4.412  13.540  0.0980 -0.7520  0.3137
 5771TIP3    H238729   4.752   4.472  13.641 -0.5829 -0.2103 -0.6345
 5772TIP3   OH238730   1.724   5.346   3.198 -0.2394  0.2770  0.8803
 5772TIP3    H138731   1.786   5.373   3.130  0.0385 -0.3093  0.8942
 5772TIP3    H238732   1.665   5.285   3.154 -0.2080  0.0845  1.1013
 5773TIP3   OH238733   4.514   3.881   5.597 -0.0407  0.0395  0.0485
 5773TIP3    H138734   4.557   3.956   5.637 -0.1989  1.0193 -1.5268
 5773TIP3    H238735   4.480   3.830   5.671 -0.4138  1.8106  1.1431
 5774TIP3   OH238736   5.348   3.550  15.049 -0.0988  0.4137  0.0061
 5774TIP3    H138737   5.412   3.496  15.003 -1.7888 -0.9187 -0.9227
 5774TIP3    H238738   5.385   3.562  15.136  1.1944 -0.7158 -0.3502
 5775TIP3   OH238739   3.164   3.135   2.525  0.1405  0.4381 -0.1490
 5775TIP3    H138740   3.115   3.099   2.599 -0.9018 -2.1437 -1.9392
 5775TIP3    H238741   3.170   3.229   2.544 -1.4331  0.1278  2.4033
 5776TIP3   OH238742   5.150   6.756  15.111  0.1219 -0.1473 -0.2949
 5776TIP3    H138743   5.129   6.811  15.036 -0.8254 -0.0935 -0.0003
 5776TIP3    H238744   5.132   6.667  15.081  0.9642 -0.2537 -0.5336
 5777TIP3   OH238745   1.223   5.550   4.768 -0.3005  0.2448  0.3351
 5777TIP3    H138746   1.178   5.553   4.852 -2.1710 -0.8443 -0.5764
 5777TIP3    H238747   1.157   5.519   4.706  0.7485  1.8629 -1.7249
 5778TIP3   OH238748   4.537   6.057   3.964 -0.4270  0.0118 -0.1233
 5778TIP3    H138749   4.583   6.136   3.936  2.0523 -0.7287  1.5669
 5778TIP3    H238750   4.523   6.008   3.883  0.1946  1.0682 -0.9000
 5779TIP3   OH238751   4.233   3.508   1.295 -0.3051 -0.4408 -0.3666
 5779TIP3    H138752   4.317   3.501   1.249 -0.1012 -1.4638  0.1311
 5779TIP3    H238753   4.246   3.582   1.356 -0.6633  1.0752 -2.0602
 5780TIP3   OH238754   4.626   2.095   4.491 -0.1221 -0.5117 -0.0806
 5780TIP3    H138755   4.591   2.006   4.489 -0.2998 -0.5012  1.3683
 5780TIP3    H238756   4.714   2.087   4.456 -0.1837 -1.2350 -0.0861
 5781TIP3   OH238757   1.904   1.179  16.391  0.0038 -0.5145 -0.0411
 5781TIP3    H138758   1.854   1.144  16.465  0.8538 -1.6518  0.0179
 5781TIP3    H238759   1.995   1.174  16.419  0.4740 -2.3706 -1.7146
 5782TIP3   OH238760   3.316   5.036  14.123  0.0952 -0.2856 -0.0019
 5782TIP3    H138761   3.374   5.051  14.048 -0.2514  1.7337  0.0957
 5782TIP3    H238762   3.373   5.042  14.199  0.3114 -1.6118 -0.0261
 5783TIP3   OH238763   3.406   1.943   3.152 -0.1480  0.0409  0.3388
 5783TIP3    H138764   3.386   1.914   3.241 -0.8934 -0.7931 -0.0807
 5783TIP3    H238765   3.423   1.862   3.104  0.4951  0.4997 -0.2239
 5784TIP3   OH238766   0.238   2.781   2.917  0.1250 -0.2898 -0.0280
 5784TIP3    H138767   0.328   2.776   2.950  0.0633 -0.8473  0.0576
 5784TIP3    H238768   0.185   2.741   2.985 -0.0155 -1.3503 -0.7316
 5785TIP3   OH238769   6.564   2.727   6.020  0.8124  0.7214 -0.0251
 5785TIP3    H138770   6.602   2.648   6.059  0.5038  0.9991  0.8507
 5785TIP3    H238771   6.619   2.798   6.052 -0.6769  1.1805  1.6353
 5786TIP3   OH238772   0.138   5.634   6.314 -0.0941 -0.3946 -0.1939
 5786TIP3    H138773   0.173   5.720   6.335 -0.0272 -0.0534 -1.6304
 5786TIP3    H238774   0.192   5.573   6.365  2.4121  0.1463 -2.0187
 5787TIP3   OH238775   6.433   0.948   1.300 -0.3630  0.0376  0.5221
 5787TIP3    H138776   6.465   1.034   1.274  1.4509 -0.7035  0.1739
 5787TIP3    H238777   6.457   0.890   1.228 -0.9942 -0.8885  1.0270
 5788TIP3   OH238778   0.851   0.398  13.102 -0.6340 -0.1842  0.3198
 5788TIP3    H138779   0.911   0.342  13.151  0.5118  1.6137  1.0697
 5788TIP3    H238780   0.792   0.337  13.058  1.0059 -1.9934  0.4900
 5789TIP3   OH238781   0.190   0.438  14.910  0.0054  0.0100 -0.2395
 5789TIP3    H138782   0.153   0.382  14.978  0.4337  1.6773  1.4431
 5789TIP3    H238783   0.114   0.473  14.863 -0.6323  2.1386  2.1509
 5790TIP3   OH238784   2.651   4.327  16.181 -0.4745  0.0664  0.0929
 5790TIP3    H138785   2.724   4.386  16.197 -0.7151  0.4328 -0.1440
 5790TIP3    H238786   2.596   4.373  16.118 -1.0358 -0.1024  0.4482
 5791TIP3   OH238787   5.791   5.113  10.551  0.0849  0.7262  0.3055
 5791TIP3    H138788   5.736   5.169  10.606  1.1281 -0.4436  2.6584
 5791TIP3    H238789   5.732   5.044  10.520 -0.5668  1.5357 -0.3322
 5792TIP3   OH238790   1.531   3.062  12.733 -0.0061  0.0060 -0.7797
 5792TIP3    H138791   1.453   3.030  12.778  0.2034  0.1087 -0.3425
 5792TIP3    H238792   1.587   3.095  12.802 -0.1768  1.2555 -1.2097
 5793TIP3   OH238793   0.640   0.745   3.353  0.6818 -0.1593 -0.0866
 5793TIP3    H138794   0.596   0.722   3.270  0.9890 -0.5387 -0.1496
 5793TIP3    H238795   0.733   0.726   3.336  0.9251  0.9802 -0.0754
 5794TIP3   OH238796   5.648   1.771  16.545 -0.0129  0.0562 -0.3261
 5794TIP3    H138797   5.725   1.760  16.491  1.0278 -0.3716  1.1680
 5794TIP3    H238798   5.590   1.699  16.521 -0.9931  1.5751 -2.9931
 5795TIP3   OH238799   3.174   5.377  16.974  0.0573 -0.0781  0.0013
 5795TIP3    H138800   3.197   5.338  16.889 -0.2968 -0.1437 -0.0655
 5795TIP3    H238801   3.078   5.378  16.974  0.0054  2.5043 -0.7861
 5796TIP3   OH238802   2.665   5.055  13.749  0.6376  0.3996  0.6003
 5796TIP3    H138803   2.613   4.976  13.734  2.8524 -0.8946 -0.9515
 5796TIP3    H238804   2.700   5.044  13.837 -0.1360  0.3217  0.9030
 5797TIP3   OH238805   2.279   4.862  14.685 -0.3524 -0.5046 -0.5213
 5797TIP3    H138806   2.224   4.847  14.609  0.5032  0.5931 -1.4125
 5797TIP3    H238807   2.218   4.877  14.757 -1.1818 -1.0441 -1.0944
 5798TIP3   OH238808   0.757   2.242   3.615 -0.5029  0.4627  0.2461
 5798TIP3    H138809   0.809   2.300   3.559  0.2223  0.2463  0.6827
 5798TIP3    H238810   0.801   2.157   3.609  0.1547  0.6495  1.8534
 5799TIP3   OH238811   1.908   4.625   2.322 -0.4047  0.6193  0.3336
 5799TIP3    H138812   1.865   4.552   2.277  0.1251  1.1956 -1.1745
 5799TIP3    H238813   1.853   4.701   2.302  1.2610  1.3842 -1.6927
 5800TIP3   OH238814   6.421   6.129  12.477  0.2166 -0.2076 -0.0992
 5800TIP3    H138815   6.410   6.104  12.386  0.1518  0.2023 -0.2068
 5800TIP3    H238816   6.514   6.116  12.495  0.2675 -0.0987 -0.2841
 5801TIP3   OH238817   4.866   1.186  11.394 -0.3827  0.4472 -0.1360
 5801TIP3    H138818   4.914   1.107  11.418 -1.6237  0.0164  1.0975
 5801TIP3    H238819   4.927   1.258  11.410  0.8610 -0.2409 -1.5449
 5802TIP3   OH238820   3.781   4.930  14.451  0.0369  0.2864  0.6752
 5802TIP3    H138821   3.857   4.874  14.437 -0.4974 -0.0082 -1.3094
 5802TIP3    H238822   3.706   4.877  14.424 -0.5035  1.8619 -1.1520
 5803TIP3   OH238823   0.900   3.645   5.681  0.0639 -0.2304 -0.1103
 5803TIP3    H138824   0.881   3.627   5.773 -0.1112 -2.3450 -0.4924
 5803TIP3    H238825   0.981   3.596   5.664  0.5992  0.8855 -0.8605
 5804TIP3   OH238826   2.407   0.159   2.659 -0.3237  0.1329 -0.4749
 5804TIP3    H138827   2.378   0.238   2.615  2.1025  1.6650  0.4876
 5804TIP3    H238828   2.454   0.109   2.592  0.2600  0.7179 -0.5080
 5805TIP3   OH238829   0.845   0.991   2.776  0.2748 -0.2551  0.2036
 5805TIP3    H138830   0.816   0.972   2.865 -2.6967 -0.8282 -0.7774
 5805TIP3    H238831   0.907   0.922   2.756 -1.8394 -2.4061  0.6150
 5806TIP3   OH238832   6.089   0.350  12.011  0.5224 -0.6884 -0.7530
 5806TIP3    H138833   6.067   0.321  12.099  0.9490  1.5070  0.1370
 5806TIP3    H238834   6.044   0.434  12.001  1.1544 -0.4870 -2.3167
 5807TIP3   OH238835   4.710   2.943  13.457  0.4180 -0.0221  0.4067
 5807TIP3    H138836   4.721   2.987  13.541  2.4277  0.1888  0.0835
 5807TIP3    H238837   4.797   2.909  13.436 -0.6271 -2.4325 -0.3280
 5808TIP3   OH238838   4.402   6.642   0.171 -0.2623  0.4289  0.5604
 5808TIP3    H138839   4.361   6.633   0.085 -0.7609 -0.4165  0.8698
 5808TIP3    H238840   4.461   6.716   0.162 -2.1717  2.0027  0.1975
 5809TIP3   OH238841   5.367   0.192  12.047 -0.2121 -0.0903 -0.4092
 5809TIP3    H138842   5.312   0.175  12.124  1.3332 -1.3589  0.4524
 5809TIP3    H238843   5.323   0.265  12.003 -2.5009 -0.9281  0.3127
 5810TIP3   OH238844   0.490   2.885  11.747 -0.0465 -0.4589 -0.0548
 5810TIP3    H138845   0.524   2.805  11.787 -0.2047 -0.0787  0.8526
 5810TIP3    H238846   0.568   2.937  11.728  0.0198 -0.5742 -0.1008
 5811TIP3   OH238847   0.736   6.456   6.670 -0.5722 -0.0577  0.1944
 5811TIP3    H138848   0.818   6.472   6.716 -1.6800  3.3035  1.2936
 5811TIP3    H238849   0.686   6.399   6.730 -0.1555  0.3214  0.9102
 5812TIP3   OH238850   4.845   6.506  11.543 -0.2813  0.4006  0.3026
 5812TIP3    H138851   4.809   6.471  11.462  0.5958 -0.8235  0.3988
 5812TIP3    H238852   4.935   6.471  11.546 -0.0460  1.0440  1.4230
 5813TIP3   OH238853   2.470   3.487   5.350 -0.5148  0.4068  0.6361
 5813TIP3    H138854   2.456   3.558   5.287 -1.2611  1.8633  2.3576
 5813TIP3    H238855   2.512   3.529   5.425  2.1235 -1.6376  0.4581
 5814TIP3   OH238856   4.362   4.421   5.316 -0.1381  0.4017 -0.2594
 5814TIP3    H138857   4.420   4.420   5.239  3.4283 -0.1496  2.1874
 5814TIP3    H238858   4.316   4.337   5.313  1.0979 -0.2741 -1.0156
 5815TIP3   OH238859   1.527   4.172  15.209 -0.1229  0.5155 -0.3877
 5815TIP3    H138860   1.491   4.197  15.294  0.9607 -0.2433  0.3231
 5815TIP3    H238861   1.504   4.245  15.151 -0.7510  1.1157  0.5851
 5816TIP3   OH238862   1.836   0.971  12.292  0.0199  0.5171  0.0354
 5816TIP3    H138863   1.923   1.005  12.316 -0.6943  1.4353  1.4979
 5816TIP3    H238864   1.853   0.881  12.264  1.2552  0.0489  2.0561
 5817TIP3   OH238865   4.805   4.914   3.374  0.3058 -0.7437 -0.0735
 5817TIP3    H138866   4.760   4.961   3.304  0.6788 -1.0632 -0.5434
 5817TIP3    H238867   4.831   4.981   3.436 -0.7498 -0.5474  0.1727
 5818TIP3   OH238868   4.461   0.440   5.041  0.1638 -0.4416  0.1040
 5818TIP3    H138869   4.503   0.454   5.127  0.5734 -0.6246 -0.0643
 5818TIP3    H238870   4.377   0.400   5.062  0.2186 -0.3946  0.4264
 5819TIP3   OH238871   3.147   5.270  15.354 -0.5819  0.3964 -0.0574
 5819TIP3    H138872   3.172   5.199  15.413 -0.6950 -0.2957 -0.8232
 5819TIP3    H238873   3.207   5.341  15.375  0.8839 -0.6215 -0.6452
 5820TIP3   OH238874   1.956   5.765   0.896  0.3999  0.1676 -0.0708
 5820TIP3    H138875   1.973   5.677   0.928 -0.4337 -0.1740 -0.5443
 5820TIP3    H238876   1.959   5.820   0.975 -0.2248 -0.4474  0.3909
 5821TIP3   OH238877   2.343   1.627   0.857  0.0123 -0.6959 -0.2512
 5821TIP3    H138878   2.365   1.677   0.935 -0.2442 -0.0891 -0.5536
 5821TIP3    H238879   2.281   1.561   0.887  0.0556 -0.5810  0.0924
 5822TIP3   OH238880   6.664   5.859  11.886  0.2672  0.0436  0.3488
 5822TIP3    H138881   6.582   5.907  11.878  0.2986 -0.2237 -3.1088
 5822TIP3    H238882   6.638   5.768  11.904 -0.1555  0.1345  0.1939
 5823TIP3   OH238883   3.357   5.105  14.959 -0.3218 -0.4481  0.0381
 5823TIP3    H138884   3.269   5.067  14.964 -0.9845  0.9728 -0.3131
 5823TIP3    H238885   3.342   5.199  14.952  1.2782 -0.0380  1.4794
 5824TIP3   OH238886   5.455   2.654   4.668  0.1623  0.1388 -0.3479
 5824TIP3    H138887   5.372   2.679   4.627 -0.9409 -0.0849  1.6608
 5824TIP3    H238888   5.435   2.574   4.716  1.2965  0.6228  0.9762
 5825TIP3   OH238889   6.069   3.126   5.296  0.1370 -0.6607  0.2285
 5825TIP3    H138890   6.071   3.189   5.368 -0.6905 -1.1477  0.6961
 5825TIP3    H238891   5.987   3.144   5.251 -0.0109 -1.2588  0.2454
 5826TIP3   OH238892   0.504   3.564   2.689  0.1864 -0.3359 -0.0317
 5826TIP3    H138893   0.467   3.627   2.751 -2.7279  1.2761 -3.0648
 5826TIP3    H238894   0.560   3.617   2.632  0.2376 -1.1379 -0.7368
 5827TIP3   OH238895   5.864   4.470  13.686  0.1929 -0.1920  0.2554
 5827TIP3    H138896   5.929   4.477  13.755  2.6802  0.6601 -1.9779
 5827TIP3    H238897   5.861   4.557  13.647  0.4645 -1.1226 -1.9952
 5828TIP3   OH238898   5.255   2.557  12.349 -0.0448 -0.1825  0.2424
 5828TIP3    H138899   5.203   2.516  12.280  1.1234  0.4506 -1.0772
 5828TIP3    H238900   5.325   2.494  12.368  0.3942  0.1933 -0.1059
 5829TIP3   OH238901   0.456   5.364  10.972  0.5345  0.1270  0.3708
 5829TIP3    H138902   0.450   5.270  10.955 -0.9837  0.4237 -0.9818
 5829TIP3    H238903   0.543   5.376  11.011  0.9878 -1.7483  0.0267
 5830TIP3   OH238904   0.076   0.772  14.089 -0.0378 -0.0486  0.2896
 5830TIP3    H138905   0.119   0.706  14.035  1.3252  0.5381  0.6309
 5830TIP3    H238906   0.062   0.846  14.030 -0.4770 -0.1835  0.2172
 5831TIP3   OH238907   2.674   3.396   0.584  0.5714  0.0949 -0.3045
 5831TIP3    H138908   2.585   3.365   0.566  0.5265  0.7454 -1.2957
 5831TIP3    H238909   2.666   3.446   0.665 -0.5658  2.4015 -1.7193
 5832TIP3   OH238910   5.819   2.725  13.019  0.0809 -0.2005  0.1209
 5832TIP3    H138911   5.768   2.805  13.004  0.2227  0.1353  1.3224
 5832TIP3    H238912   5.891   2.753  13.075  0.8579 -0.9303 -0.4942
 5833TIP3   OH238913   3.783   4.750  12.487  0.0659 -0.0866  0.4077
 5833TIP3    H138914   3.753   4.788  12.404  0.4400  0.6774  0.6113
 5833TIP3    H238915   3.843   4.815  12.522  2.9305 -1.9867 -0.5559
 5834TIP3   OH238916   2.787   6.661   5.591  0.5009 -1.0030 -0.2951
 5834TIP3    H138917   2.798   6.737   5.533 -1.6418 -1.5911 -1.5867
 5834TIP3    H238918   2.708   6.680   5.641  1.0218 -1.5567  0.7672
 5835TIP3   OH238919   6.375   6.383  11.829 -0.0483  0.1680  0.0057
 5835TIP3    H138920   6.365   6.475  11.805  0.8393  0.4282  0.6013
 5835TIP3    H238921   6.287   6.345  11.816 -0.6548  1.3024  0.6400
 5836TIP3   OH238922   4.497   0.876  13.684 -0.5982 -0.5804 -0.1898
 5836TIP3    H138923   4.431   0.936  13.719  0.1698 -0.4328  1.0871
 5836TIP3    H238924   4.499   0.894  13.590 -1.0439  0.7340  0.0334
 5837TIP3   OH238925   2.343   5.650  10.993 -0.0191 -0.4133 -0.2696
 5837TIP3    H138926   2.326   5.699  10.913 -2.4950  0.2109  0.5658
 5837TIP3    H238927   2.362   5.716  11.059  0.9249 -0.8574 -0.0817
 5838TIP3   OH238928   5.066   0.971   3.349 -0.7247  0.2790 -0.4130
 5838TIP3    H138929   5.145   0.976   3.296 -1.4754  2.1671 -1.4566
 5838TIP3    H238930   5.057   1.057   3.389 -0.6315 -0.8398  2.2293
 5839TIP3   OH238931   1.987   4.323  11.478 -0.2192  0.1564 -0.2930
 5839TIP3    H138932   2.064   4.269  11.461  1.1413  1.6763  0.7479
 5839TIP3    H238933   1.945   4.332  11.392  0.6032 -0.9277 -0.8326
 5840TIP3   OH238934   3.643   4.978   0.363 -0.2399  0.5191 -0.2261
 5840TIP3    H138935   3.614   5.066   0.343 -1.2331  0.8688  2.3618
 5840TIP3    H238936   3.654   4.977   0.458  0.7691 -1.8574 -0.2872
 5841TIP3   OH238937   5.263   3.593  10.984  0.0203  0.5262  0.3140
 5841TIP3    H138938   5.253   3.629  10.896  0.2608 -0.2805 -0.0535
 5841TIP3    H238939   5.176   3.600  11.023 -0.0937  0.8660  0.0092
 5842TIP3   OH238940   4.408   3.896   2.900  0.2298 -0.3648 -0.5555
 5842TIP3    H138941   4.432   3.820   2.954 -0.4863  1.0696  1.9782
 5842TIP3    H238942   4.462   3.967   2.934 -2.0458  1.1718  0.1123
 5843TIP3   OH238943   1.286   2.926  14.907 -0.2505 -0.0134  0.7276
 5843TIP3    H138944   1.224   2.879  14.963  0.8115 -1.0360  1.0947
 5843TIP3    H238945   1.372   2.893  14.934  0.3632  0.3385 -0.7183
 5844TIP3   OH238946   1.591   1.586  15.035 -0.1784  0.2929  0.1899
 5844TIP3    H138947   1.537   1.571  15.113  1.1970  0.8825  1.3035
 5844TIP3    H238948   1.554   1.528  14.969 -1.9643  0.4331  0.9827
 5845TIP3   OH238949   2.624   6.131  11.302 -0.0301  0.3038  0.6977
 5845TIP3    H138950   2.530   6.143  11.298  0.0993  1.3507  0.6330
 5845TIP3    H238951   2.655   6.156  11.215  0.5457  2.3218  1.4318
 5846TIP3   OH238952   6.525   6.718  10.857  0.2062  0.4869  0.3166
 5846TIP3    H138953   6.573   6.654  10.910  0.3117  0.1730 -0.1503
 5846TIP3    H238954   6.490   6.780  10.920 -1.8678 -1.2971  1.0550
 5847TIP3   OH238955   0.398   1.186  16.813  0.1097 -0.0802  0.5535
 5847TIP3    H138956   0.443   1.184  16.897  1.7906  0.8066 -0.2805
 5847TIP3    H238957   0.462   1.151  16.750 -0.8539 -0.0795 -0.4724
 5848TIP3   OH238958   3.323   0.965  16.548 -0.1382  0.4235  0.1311
 5848TIP3    H138959   3.343   0.975  16.455 -1.8093 -0.0806 -0.3175
 5848TIP3    H238960   3.401   0.924  16.586  0.2161 -0.1711 -1.2052
 5849TIP3   OH238961   0.009   6.333   0.807  0.0902 -0.2252 -0.1554
 5849TIP3    H138962   0.064   6.300   0.879 -1.1096  0.6306  1.2053
 5849TIP3    H238963  -0.077   6.347   0.847 -0.5495  0.5023 -1.7165
 5850TIP3   OH238964   1.220   4.938   5.794  0.5558 -0.2944  0.2876
 5850TIP3    H138965   1.242   4.949   5.701  1.6002  0.1679  0.5812
 5850TIP3    H238966   1.221   4.843   5.808 -1.2385 -0.4863 -0.5353
 5851TIP3   OH238967   2.133   4.442  16.515  0.3462  0.0447 -0.5796
 5851TIP3    H138968   2.169   4.353  16.505  0.8959  0.1982 -0.0630
 5851TIP3    H238969   2.113   4.470  16.426 -0.4408 -0.8419 -0.7089
 5852TIP3   OH238970   1.956   3.157   5.097 -0.4695 -0.3547 -0.6780
 5852TIP3    H138971   1.969   3.150   5.002  0.9067 -0.9187 -0.4694
 5852TIP3    H238972   1.890   3.090   5.117 -1.2826  0.2276 -1.3086
 5853TIP3   OH238973   1.892   6.152  12.512  0.1886  0.7708 -0.5559
 5853TIP3    H138974   1.845   6.180  12.591  2.2232  0.6262  0.7778
 5853TIP3    H238975   1.926   6.065  12.535 -0.4332  0.0526 -2.1878
 5854TIP3   OH238976   1.437   3.576   2.268  0.0616 -0.4847  0.2464
 5854TIP3    H138977   1.487   3.543   2.193  1.8935  0.7908  0.8340
 5854TIP3    H238978   1.381   3.644   2.231  1.2536  0.4213  0.0622
 5855TIP3   OH238979   0.345   6.760  10.655  0.0295  0.1516  0.3700
 5855TIP3    H138980   0.284   6.687  10.668 -0.9615  1.3105  2.8458
 5855TIP3    H238981   0.317   6.826  10.718  2.2377  1.8203 -0.2739
 5856TIP3   OH238982   2.118   0.446   0.971  0.6191 -0.1372 -0.2300
 5856TIP3    H138983   2.094   0.403   1.053 -0.6310 -0.2496 -0.6385
 5856TIP3    H238984   2.160   0.527   0.999 -0.6366  0.2826  0.5377
 5857TIP3   OH238985   0.965   5.668  15.866 -0.7910  0.0840  0.5316
 5857TIP3    H138986   1.053   5.697  15.841 -1.8189  0.6611 -2.9899
 5857TIP3    H238987   0.921   5.748  15.895 -0.1452 -0.2612  2.6169
 5858TIP3   OH238988   5.847   4.403  13.267 -0.0946  1.1516 -0.6859
 5858TIP3    H138989   5.906   4.370  13.199  0.3194 -0.6263  0.4796
 5858TIP3    H238990   5.814   4.486  13.231  1.6833  1.2945 -2.1565
 5859TIP3   OH238991   2.338   5.145   3.846  0.4095 -0.0763 -0.3104
 5859TIP3    H138992   2.418   5.121   3.800 -0.3623 -0.7268 -1.3558
 5859TIP3    H238993   2.279   5.071   3.834 -0.0154 -0.0624  1.3230
 5860TIP3   OH238994   4.545   0.325  13.476  0.8687  0.0278 -0.1560
 5860TIP3    H138995   4.631   0.289  13.498  1.0022 -0.1548 -0.9366
 5860TIP3    H238996   4.560   0.419  13.466  1.2293 -0.1470 -1.4172
 5861TIP3   OH238997   1.447   3.226  17.172 -0.2469  0.0105 -0.2418
 5861TIP3    H138998   1.431   3.199  17.082  0.9505 -0.6968 -0.2649
 5861TIP3    H238999   1.361   3.250  17.206 -0.8834 -0.8365 -1.2128
 5862TIP3   OH239000   3.349   4.095  11.075 -0.2194  0.3727 -1.0150
 5862TIP3    H139001   3.418   4.156  11.101 -2.4700  1.2424  4.2135
 5862TIP3    H239002   3.293   4.146  11.017  0.7300  1.4357 -1.0340
 5863TIP3   OH239003   4.914   5.722   2.081  0.0057 -0.4920  0.1218
 5863TIP3    H139004   4.850   5.655   2.058 -1.1271 -0.5429  2.9969
 5863TIP3    H239005   4.964   5.683   2.153  0.7195  0.9926  0.4664
 5864TIP3   OH239006   3.779   5.210  12.279  0.0925 -0.4859  1.1324
 5864TIP3    H139007   3.796   5.254  12.196 -1.2570 -0.6673  0.7421
 5864TIP3    H239008   3.814   5.122  12.266  0.0953 -0.4423  0.8308
 5865TIP3   OH239009   4.039   1.956  13.710 -0.4158 -0.3128  0.0799
 5865TIP3    H139010   4.010   2.047  13.722 -0.5707 -0.2666 -0.6185
 5865TIP3    H239011   4.034   1.918  13.798 -2.6850 -0.3304  0.0022
 5866TIP3   OH239012   2.521   2.162   2.414 -0.2389 -0.2736 -0.1421
 5866TIP3    H139013   2.542   2.087   2.358  0.5543  0.6651 -1.1467
 5866TIP3    H239014   2.430   2.148   2.439 -0.7954 -0.4709 -2.0924
 5867TIP3   OH239015   2.326   0.694  16.655  0.2058 -0.0156  0.2347
 5867TIP3    H139016   2.313   0.634  16.582 -0.2380 -2.2489  2.0250
 5867TIP3    H239017   2.297   0.779  16.622 -0.7108 -1.0771 -1.9115
 5868TIP3   OH239018   4.031   5.224   2.707 -0.5951 -0.1279 -0.6225
 5868TIP3    H139019   4.084   5.190   2.779 -0.8229 -1.4791 -1.0645
 5868TIP3    H239020   3.941   5.200   2.729 -1.2900  3.0593  0.6549
 5869TIP3   OH239021   4.540   3.872   3.548  0.6789  0.6906 -0.4381
 5869TIP3    H139022   4.591   3.900   3.624  0.3884  0.5275 -0.1808
 5869TIP3    H239023   4.555   3.941   3.483  0.5700  1.0666 -0.0735
 5870TIP3   OH239024   1.851   3.251   4.384 -0.3902  0.1087  0.1745
 5870TIP3    H139025   1.856   3.345   4.369 -2.7970  0.3153  0.2782
 5870TIP3    H239026   1.869   3.241   4.478 -0.1124  0.4451  0.1591
 5871TIP3   OH239027   6.200   2.359   3.529 -0.3450 -0.4446  0.0818
 5871TIP3    H139028   6.176   2.445   3.562  2.1803  1.6094 -2.8704
 5871TIP3    H239029   6.121   2.327   3.485 -0.8969  1.0298 -0.0369
 5872TIP3   OH239030   6.118   5.426   0.484 -0.1641 -0.0358 -0.4569
 5872TIP3    H139031   6.065   5.349   0.507  1.2489 -0.2266  2.6520
 5872TIP3    H239032   6.205   5.391   0.468  0.5931  0.8782  1.3990
 5873TIP3   OH239033   1.672   2.802  14.519 -0.0589  0.0859 -0.0200
 5873TIP3    H139034   1.725   2.723  14.508  0.4413  0.1544  1.6008
 5873TIP3    H239035   1.724   2.871  14.478 -0.5576 -0.4119 -1.5586
 5874TIP3   OH239036   5.852   0.817   1.192  0.4932 -1.0850  0.2569
 5874TIP3    H139037   5.887   0.769   1.117  1.0532  0.6820 -0.6704
 5874TIP3    H239038   5.929   0.851   1.237  0.1083  1.4843 -0.8748
 5875TIP3   OH239039   1.448   6.005  14.420 -0.5661 -0.4561  0.1635
 5875TIP3    H139040   1.436   5.976  14.511 -1.2914 -0.8888 -0.0595
 5875TIP3    H239041   1.373   6.062  14.404 -0.6036 -0.6248 -0.2613
 5876TIP3   OH239042   1.354   6.412   1.611  0.3167  0.3896  0.9789
 5876TIP3    H139043   1.293   6.340   1.596  0.0090  0.9365 -0.5435
 5876TIP3    H239044   1.429   6.392   1.556  0.1782  1.2868  0.4440
 5877TIP3   OH239045   0.071   3.506  11.799 -0.2868 -0.6255  0.1259
 5877TIP3    H139046  -0.018   3.501  11.834 -1.3499  1.5709 -2.0330
 5877TIP3    H239047   0.125   3.525  11.876 -1.5796 -2.2045  1.5165
 5878TIP3   OH239048   0.099   6.569  11.379  0.2854 -0.7163  0.4560
 5878TIP3    H139049   0.168   6.546  11.441  0.4499  0.9232  0.9210
 5878TIP3    H239050   0.063   6.651  11.413 -2.1650 -1.6987  0.4585
 5879TIP3   OH239051   5.951   2.290  15.180  0.6662 -0.8603 -0.2444
 5879TIP3    H139052   5.959   2.199  15.154 -1.0371 -0.9028 -0.7694
 5879TIP3    H239053   5.865   2.296  15.222 -0.5187  0.9996 -2.6815
 5880TIP3   OH239054   5.031   4.608  14.382 -0.7323  0.4940 -0.2058
 5880TIP3    H139055   5.001   4.551  14.311 -0.2024  0.2683 -0.2522
 5880TIP3    H239056   5.025   4.696  14.344 -0.0403  0.3443 -0.6975
 5881TIP3   OH239057   0.419   1.316  14.211  0.6454  0.1518  0.0596
 5881TIP3    H139058   0.467   1.378  14.156 -0.2218  1.0330  0.2646
 5881TIP3    H239059   0.340   1.363  14.237  1.1477 -0.1261  2.3055
 5882TIP3   OH239060   5.158   0.731  16.568  0.3524 -0.2163  0.7447
 5882TIP3    H139061   5.162   0.797  16.638  0.0502  0.7360 -0.1102
 5882TIP3    H239062   5.131   0.780  16.491  2.0962 -0.9487 -0.4091
 5883TIP3   OH239063   6.755   3.282  16.879 -0.2421 -0.0995 -0.5187
 5883TIP3    H139064   6.673   3.310  16.840 -0.2648  2.2641  1.0111
 5883TIP3    H239065   6.814   3.356  16.867  0.7743 -0.6496  0.8044
 5884TIP3   OH239066   1.123   1.318  16.088 -0.0413 -0.1373  0.3173
 5884TIP3    H139067   1.110   1.408  16.117  0.7118  0.0147  0.1983
 5884TIP3    H239068   1.040   1.274  16.108 -0.6469  0.7380 -0.2470
 5885TIP3   OH239069   5.807   3.369  13.896  0.4628  0.2500 -0.3492
 5885TIP3    H139070   5.810   3.418  13.813 -3.4998  0.7648 -0.3760
 5885TIP3    H239071   5.716   3.338  13.902  1.2528 -1.9257  2.6609
 5886TIP3   OH239072   0.906   2.414   4.489  0.6714 -0.1720  1.0471
 5886TIP3    H139073   0.987   2.447   4.450 -0.1071 -1.0685 -1.5110
 5886TIP3    H239074   0.839   2.477   4.465  0.4297  0.1930  2.5439
 5887TIP3   OH239075   2.480   3.113  15.216  0.4065 -0.3961  0.3721
 5887TIP3    H139076   2.464   3.206  15.200  0.2760 -0.3260  0.8930
 5887TIP3    H239077   2.545   3.111  15.287 -1.2134 -0.6963  1.9092
 5888TIP3   OH239078   1.227   3.069   5.020 -0.3632 -0.3179 -0.2165
 5888TIP3    H139079   1.139   3.036   5.039 -0.8576  1.3210  0.5033
 5888TIP3    H239080   1.275   2.992   4.987 -2.3018 -1.0498 -1.4867
 5889TIP3   OH239081   5.138   2.034   3.567  0.9972  0.2440 -0.3682
 5889TIP3    H139082   5.110   1.956   3.616 -0.8836  0.2698 -1.2918
 5889TIP3    H239083   5.213   2.005   3.516  0.8481 -0.7372 -0.0474
 5890TIP3   OH239084   1.795   2.840   4.676 -0.1030  0.0867 -0.7320
 5890TIP3    H139085   1.857   2.769   4.657 -0.4683 -0.3856 -0.1954
 5890TIP3    H239086   1.759   2.863   4.590  0.5104  0.0853 -0.9985
 5891TIP3   OH239087   1.787   3.761   1.581 -0.1323  0.1517  0.0320
 5891TIP3    H139088   1.776   3.833   1.520  0.8720  1.1468  0.9737
 5891TIP3    H239089   1.838   3.696   1.533 -1.6730 -0.2904 -1.0704
 5892TIP3   OH239090   0.201   4.581   2.763 -0.8916 -0.3958 -0.1491
 5892TIP3    H139091   0.137   4.610   2.699 -0.2994 -0.4514 -0.7756
 5892TIP3    H239092   0.221   4.491   2.738 -1.4001 -0.7659  0.7239
 5893TIP3   OH239093   5.794   1.720   1.770 -0.0284  0.0680 -0.1735
 5893TIP3    H139094   5.742   1.794   1.800  0.1663  0.6175 -1.1494
 5893TIP3    H239095   5.885   1.746   1.785  0.0139 -0.5145  0.6750
 5894TIP3   OH239096   2.581   6.301   4.322 -0.0903 -0.2744  0.5506
 5894TIP3    H139097   2.523   6.233   4.286  0.6704 -0.5810 -0.1412
 5894TIP3    H239098   2.527   6.350   4.383 -1.6450  0.6360 -1.4375
 5895TIP3   OH239099   5.477   6.524   0.384 -0.3903 -0.8711 -0.0834
 5895TIP3    H139100   5.568   6.514   0.355 -0.5901 -2.3256 -0.2829
 5895TIP3    H239101   5.479   6.599   0.443  1.2954 -1.9856  1.3679
 5896TIP3   OH239102   5.384   6.080   4.231  0.1918  0.4532  0.1435
 5896TIP3    H139103   5.322   6.117   4.169 -0.3069  0.6097  0.7297
 5896TIP3    H239104   5.332   6.061   4.309  0.6965 -0.2876  0.3096
 5897TIP3   OH239105   3.752   0.637  17.083  0.0080  0.2024  1.1624
 5897TIP3    H139106   3.827   0.669  17.032  0.7944 -3.2046 -0.1404
 5897TIP3    H239107   3.791   0.593  17.158 -0.7358 -0.2992  1.2720
 5898TIP3   OH239108   6.393   2.138   4.131 -0.3566 -0.3551 -0.0227
 5898TIP3    H139109   6.434   2.070   4.076 -1.1627 -1.8191  1.1130
 5898TIP3    H239110   6.431   2.124   4.218 -0.7026  0.5256  0.2804
 5899TIP3   OH239111   6.499   3.556   2.500 -0.0070  1.0086 -0.1435
 5899TIP3    H139112   6.587   3.582   2.472  0.2464  0.7917  0.4377
 5899TIP3    H239113   6.465   3.503   2.428  0.6366  0.4553 -0.0497
 5900TIP3   OH239114   3.246   6.267   4.129  0.1718 -0.1615  0.2345
 5900TIP3    H139115   3.223   6.176   4.111  0.3607 -0.1465 -0.0868
 5900TIP3    H239116   3.239   6.275   4.224  0.1019 -0.4968  0.2586
 5901TIP3   OH239117   2.707   0.233  15.399  0.3886  0.6218  0.0003
 5901TIP3    H139118   2.769   0.179  15.349  2.2911  0.7583  2.0762
 5901TIP3    H239119   2.672   0.173  15.464 -0.3307  1.0059 -0.0326
 5902TIP3   OH239120   6.529   0.787  12.772 -0.4193  0.1959 -0.5896
 5902TIP3    H139121   6.604   0.750  12.726 -0.3270 -0.4879  0.1004
 5902TIP3    H239122   6.459   0.788  12.707 -0.1243 -0.2074 -0.9175
 5903TIP3   OH239123   3.990   5.460  12.910 -0.0247 -0.2124 -0.2161
 5903TIP3    H139124   3.939   5.426  12.837  0.5929 -2.3953  0.2786
 5903TIP3    H239125   3.940   5.535  12.942 -1.3580 -0.4750 -1.5739
 5904TIP3   OH239126   2.875   3.558  12.434  0.0001  0.1411 -0.4306
 5904TIP3    H139127   2.900   3.494  12.501  0.5360 -0.7333 -1.4402
 5904TIP3    H239128   2.933   3.632  12.450  0.3213 -0.1743 -0.1037
 5905TIP3   OH239129   2.375   3.223  16.881  0.6288 -0.2253  0.2446
 5905TIP3    H139130   2.462   3.196  16.851  0.3011  0.1611 -1.1648
 5905TIP3    H239131   2.316   3.194  16.811 -0.1943  0.7512  0.5094
 5906TIP3   OH239132   3.836   1.354  13.374 -0.1278  0.1348 -0.2589
 5906TIP3    H139133   3.879   1.269  13.381  0.1952  0.4354  2.9155
 5906TIP3    H239134   3.793   1.353  13.288  1.5440 -2.3762 -1.1640
 5907TIP3   OH239135   2.075   1.082  12.369 -0.5514  0.1254 -0.1911
 5907TIP3    H139136   2.058   1.046  12.456 -2.0554 -1.3488 -1.0396
 5907TIP3    H239137   2.166   1.113  12.373  0.2609 -2.1722  1.1736
 5908TIP3   OH239138   0.747   4.848  13.347 -0.5644  0.0486 -0.1788
 5908TIP3    H139139   0.772   4.875  13.258 -2.6825 -1.7871 -1.4404
 5908TIP3    H239140   0.706   4.926  13.384  2.3315  1.5571  0.1398
 5909TIP3   OH239141   5.263   3.935  11.059 -0.5548 -0.3554 -0.4812
 5909TIP3    H139142   5.346   3.967  11.023 -0.6536  1.4418  0.7553
 5909TIP3    H239143   5.218   3.896  10.984 -0.2998  2.2706 -2.1361
 5910TIP3   OH239144   6.652   4.248   4.296 -0.0124 -0.0075  0.3450
 5910TIP3    H139145   6.660   4.289   4.382  1.1173  0.1558  0.1716
 5910TIP3    H239146   6.643   4.322   4.235 -0.9937 -0.1268  0.3284
 5911TIP3   OH239147   1.317   4.275   6.403  0.0808 -0.3620 -0.4676
 5911TIP3    H139148   1.293   4.185   6.425  0.4205 -0.8511 -1.9545
 5911TIP3    H239149   1.283   4.288   6.314  0.0367  0.9855 -0.2761
 5912TIP3   OH239150   3.667   3.465   0.836 -0.2329  0.3064 -0.3099
 5912TIP3    H139151   3.701   3.549   0.867  0.4566 -0.1833  0.3177
 5912TIP3    H239152   3.585   3.453   0.885  0.2926  0.0528  0.5258
 5913TIP3   OH239153   2.056   5.042   3.753 -0.3522 -0.6593 -0.9466
 5913TIP3    H139154   2.067   5.089   3.670 -1.1597 -2.8023 -2.3679
 5913TIP3    H239155   2.124   4.974   3.750  0.7454  0.2873  1.0119
 5914TIP3   OH239156   0.627   5.357   2.935 -0.0611 -0.5238 -0.1472
 5914TIP3    H139157   0.542   5.318   2.916  0.6783 -1.3498 -1.9773
 5914TIP3    H239158   0.681   5.284   2.965  0.6608 -0.4964 -1.3165
 5915TIP3   OH239159   5.594   5.870  11.800  0.8148  0.1363 -0.1806
 5915TIP3    H139160   5.628   5.908  11.720  1.3331 -0.7004 -0.3753
 5915TIP3    H239161   5.509   5.835  11.776  0.9390 -0.0494 -0.3499
 5916TIP3   OH239162   4.107   1.247   6.066 -0.2401  0.1246  0.3125
 5916TIP3    H139163   4.074   1.337   6.067 -2.5980 -0.6612 -0.5681
 5916TIP3    H239164   4.042   1.197   6.116  0.2802 -1.3266 -0.4109
 5917TIP3   OH239165   4.142   5.668  15.137  0.3673  0.2171  0.1049
 5917TIP3    H139166   4.197   5.591  15.149  0.3250  0.3871  1.4870
 5917TIP3    H239167   4.060   5.648  15.182 -0.7304 -0.0082 -1.8844
 5918TIP3   OH239168   4.687   0.480  16.631 -0.3531 -0.1563 -0.6595
 5918TIP3    H139169   4.754   0.548  16.622 -1.0426  0.8125  1.1196
 5918TIP3    H239170   4.737   0.401  16.652  0.2488  0.7912  1.8547
 5919TIP3   OH239171   4.662   1.342   1.754 -0.6458  0.3824  0.3838
 5919TIP3    H139172   4.682   1.315   1.664 -0.1998  0.6041  0.4094
 5919TIP3    H239173   4.716   1.421   1.767 -0.6900  0.3359  0.8514
 5920TIP3   OH239174   1.138   1.624  16.833  0.1925  0.1129 -0.3175
 5920TIP3    H139175   1.149   1.533  16.807  0.2096 -0.1469  0.5692
 5920TIP3    H239176   1.176   1.675  16.762  1.7111 -0.6106 -0.0513
 5921TIP3   OH239177   6.521   4.158  14.302 -1.2002 -0.4714  0.0558
 5921TIP3    H139178   6.477   4.073  14.294 -0.5668 -0.9485  1.4565
 5921TIP3    H239179   6.591   4.143  14.366  0.1785  0.6038 -1.1211
 5922TIP3   OH239180   5.381   5.125   2.831 -0.1046 -0.2211  0.3600
 5922TIP3    H139181   5.442   5.160   2.895 -1.7650  3.2207  0.2886
 5922TIP3    H239182   5.421   5.144   2.746 -0.9074  1.4669  0.3259
 5923TIP3   OH239183   5.641   0.936  13.960  0.6481  0.2596 -0.0469
 5923TIP3    H139184   5.593   1.009  13.921  0.8517  0.1528 -0.5085
 5923TIP3    H239185   5.721   0.976  13.994  0.5918  0.3128  0.0211
 5924TIP3   OH239186   6.422   0.549   2.670  0.5460  0.8890 -0.1546
 5924TIP3    H139187   6.504   0.594   2.690 -0.3458  1.7270  1.9635
 5924TIP3    H239188   6.354   0.603   2.711 -1.1316  0.3384 -1.9927
 5925TIP3   OH239189   4.190   1.835  11.367 -0.5127  0.2048 -0.4603
 5925TIP3    H139190   4.202   1.930  11.376  0.3394  0.0140  0.5548
 5925TIP3    H239191   4.247   1.811  11.295 -1.0285  0.5068 -0.9849
 5926TIP3   OH239192   0.942   4.844   3.737  0.1775 -0.2218  0.5027
 5926TIP3    H139193   0.983   4.794   3.667  1.4670 -0.6995  1.5618
 5926TIP3    H239194   0.922   4.779   3.805  0.0688  0.4077  1.0852
 5927TIP3   OH239195   5.136   4.691  14.920 -0.0416 -0.0537 -0.8636
 5927TIP3    H139196   5.077   4.627  14.959 -1.9805  1.0811 -1.7757
 5927TIP3    H239197   5.217   4.684  14.970 -1.0359 -1.4908  0.6173
 5928TIP3   OH239198   0.964   2.824   1.956  0.3014  0.4911 -0.1194
 5928TIP3    H139199   0.975   2.734   1.988 -1.6490  0.2794  0.1251
 5928TIP3    H239200   0.997   2.823   1.867  0.8333 -0.3099  0.0779
 5929TIP3   OH239201   6.012   3.179  12.920 -0.0353  0.1549  0.1696
 5929TIP3    H139202   6.042   3.206  13.006 -0.9834 -1.3956  1.0516
 5929TIP3    H239203   6.091   3.167  12.868  0.6182  0.0701  1.1714
 5930TIP3   OH239204   5.842   2.688  12.330  0.5633  1.1162 -0.0540
 5930TIP3    H139205   5.894   2.762  12.362 -0.6091  2.7499 -1.7111
 5930TIP3    H239206   5.754   2.706  12.361  0.5776 -0.6180  1.0992
 5931TIP3   OH239207   5.739   0.293  10.991  0.0376 -0.4404 -0.4171
 5931TIP3    H139208   5.697   0.236  10.927 -0.9554  1.6786 -1.7615
 5931TIP3    H239209   5.668   0.348  11.024  1.1489  0.8519 -0.0922
 5932TIP3   OH239210   1.361   6.183  11.670  0.5256  0.4272 -0.1507
 5932TIP3    H139211   1.397   6.135  11.744  0.5767  0.4395 -0.1677
 5932TIP3    H239212   1.268   6.193  11.690  0.6674  1.0385  0.2473
 5933TIP3   OH239213   2.108   6.654  12.852 -0.5280 -0.6533  0.0342
 5933TIP3    H139214   2.086   6.601  12.775  1.6235 -1.9424  0.2129
 5933TIP3    H239215   2.025   6.691  12.880 -1.5460 -1.0016 -2.2788
 5934TIP3   OH239216   6.510   6.365  15.819 -0.3269 -0.0566  0.1676
 5934TIP3    H139217   6.534   6.438  15.875 -0.6684  0.1201  0.0870
 5934TIP3    H239218   6.570   6.295  15.844 -0.8863 -0.1924  1.2005
 5935TIP3   OH239219   1.925   0.547  17.263  0.8042 -0.4515 -0.0572
 5935TIP3    H139220   1.889   0.459  17.269 -0.2891  0.0190  0.4746
 5935TIP3    H239221   1.907   0.575  17.174  0.5734 -0.5258 -0.0333
 5936TIP3   OH239222   2.486   3.533   2.287 -0.1764  0.5643 -0.1783
 5936TIP3    H139223   2.405   3.488   2.265  0.4589 -0.4709 -0.5124
 5936TIP3    H239224   2.547   3.507   2.218  0.8210  0.1774  0.8088
 5937TIP3   OH239225   2.132   2.711   2.550 -0.0467 -0.6257 -0.0187
 5937TIP3    H139226   2.220   2.695   2.584 -0.1039 -2.1479 -0.5390
 5937TIP3    H239227   2.093   2.625   2.540 -0.3899 -0.2460 -2.9328
 5938TIP3   OH239228   3.123   0.302   2.634 -0.7437  0.1411  0.2713
 5938TIP3    H139229   3.169   0.348   2.703  0.3277 -0.3480 -0.1017
 5938TIP3    H239230   3.059   0.365   2.600  0.8982  1.4703 -0.4437
 5939TIP3   OH239231   3.874   3.965  13.124  0.1403  0.4349  0.3614
 5939TIP3    H139232   3.948   4.014  13.158 -1.0908  2.9603 -0.3838
 5939TIP3    H239233   3.797   4.014  13.154 -1.3275 -2.3231  1.4759
 5940TIP3   OH239234   5.993   1.073  13.706 -0.2322 -0.1342  0.3364
 5940TIP3    H139235   6.083   1.078  13.737 -0.2481  0.2033  0.3313
 5940TIP3    H239236   5.940   1.077  13.786 -0.2995  1.5069  0.2460
 5941TIP3   OH239237   2.267   0.743  11.450 -0.0853  0.0362 -0.5405
 5941TIP3    H139238   2.175   0.768  11.458 -0.3871 -0.8586 -1.0663
 5941TIP3    H239239   2.291   0.714  11.538 -0.5564 -0.5287 -0.5892
 5942TIP3   OH239240   1.269   1.005  15.232  0.0498 -0.1306 -0.0987
 5942TIP3    H139241   1.252   0.956  15.312  1.1689 -0.4544 -0.0355
 5942TIP3    H239242   1.341   0.958  15.190 -0.2825  0.2401 -1.1231
 5943TIP3   OH239243   1.740   2.511  14.953  0.1764 -0.6494 -0.1117
 5943TIP3    H139244   1.679   2.498  15.026 -0.4399 -0.6074 -0.6133
 5943TIP3    H239245   1.806   2.442  14.965 -0.7886 -1.6557 -0.3978
 5944TIP3   OH239246   3.746   4.781  15.990  0.2343  0.8236 -0.1799
 5944TIP3    H139247   3.701   4.864  15.974 -1.6680 -0.0344  0.4337
 5944TIP3    H239248   3.712   4.752  16.074 -0.3638 -1.3332 -1.1005
 5945TIP3   OH239249   1.267   1.438   2.642 -0.0724 -0.1895  0.1521
 5945TIP3    H139250   1.200   1.373   2.662 -1.0905  1.2841  1.8064
 5945TIP3    H239251   1.249   1.463   2.551 -0.3966 -1.3617 -0.1220
 5946TIP3   OH239252   4.425   0.642   6.647  0.2846  0.1142  0.0915
 5946TIP3    H139253   4.465   0.615   6.730  0.4165  1.4283  0.4759
 5946TIP3    H239254   4.366   0.569   6.624  1.0266 -0.7268  0.7914
 5947TIP3   OH239255   4.417   2.125   3.281  0.1224  0.3621 -0.2240
 5947TIP3    H139256   4.337   2.093   3.241  0.5936 -2.1757  0.6731
 5947TIP3    H239257   4.477   2.140   3.207 -1.0057  1.9838 -0.8697
 5948TIP3   OH239258   5.496   0.639   1.780  0.6603 -0.1129 -0.4173
 5948TIP3    H139259   5.423   0.591   1.819 -0.4967 -0.2791 -2.6445
 5948TIP3    H239260   5.571   0.579   1.786  0.3026 -0.4828  0.6185
 5949TIP3   OH239261   5.113   4.790  13.120  0.6432  0.1905 -0.0758
 5949TIP3    H139262   5.169   4.770  13.045  0.4204 -1.0024  0.0463
 5949TIP3    H239263   5.072   4.706  13.142  0.2354  0.6486  0.9950
 5950TIP3   OH239264   6.205   3.306  11.165  0.3605 -0.0168 -0.9729
 5950TIP3    H139265   6.117   3.303  11.128  0.4205  1.4375 -1.2770
 5950TIP3    H239266   6.192   3.294  11.259 -0.4250  2.3061 -0.7070
 5951TIP3   OH239267   4.844   4.763   5.997 -0.2548 -0.1098  0.6138
 5951TIP3    H139268   4.885   4.750   6.082 -0.9621 -0.3625  0.9302
 5951TIP3    H239269   4.829   4.858   5.992 -0.3522 -0.1123  0.8405
 5952TIP3   OH239270   5.196   5.961   2.431 -0.2707  0.0691 -0.1228
 5952TIP3    H139271   5.285   5.984   2.458 -0.6291 -1.8451  3.1455
 5952TIP3    H239272   5.197   5.866   2.424 -1.5066  0.1520 -2.6033
 5953TIP3   OH239273   1.980   3.004  13.746  0.1491 -0.6223 -0.0294
 5953TIP3    H139274   1.975   3.098  13.762  0.3235 -0.8754  1.7640
 5953TIP3    H239275   2.008   2.967  13.830  0.7429 -2.2148 -0.8782
 5954TIP3   OH239276   1.424   0.062   4.212  0.1337 -0.2741  0.1375
 5954TIP3    H139277   1.331   0.085   4.212 -0.0892 -1.1250  0.4972
 5954TIP3    H239278   1.440   0.028   4.123  0.0101 -0.4603  0.1856
 5955TIP3   OH239279   6.608   5.580   4.873  0.1543  0.1658 -0.2015
 5955TIP3    H139280   6.610   5.661   4.925  0.4033 -0.5463  0.9237
 5955TIP3    H239281   6.681   5.528   4.907 -0.8157 -1.0864  0.0297
 5956TIP3   OH239282   1.947   1.992  14.853  0.1457  0.0994 -0.1425
 5956TIP3    H139283   1.969   1.935  14.779  2.9740 -0.1293  0.7549
 5956TIP3    H239284   1.900   1.934  14.913  1.7489 -1.0016  0.1358
 5957TIP3   OH239285   0.681   6.363  15.736  0.6415  0.4197  0.1587
 5957TIP3    H139286   0.739   6.437  15.752  0.0421  1.0145 -0.3313
 5957TIP3    H239287   0.603   6.382  15.789  0.2296  0.4677 -0.4505
 5958TIP3   OH239288   0.920   3.667   1.262  0.0346  0.3927  0.1521
 5958TIP3    H139289   1.012   3.648   1.282 -0.7322 -1.0947  2.8403
 5958TIP3    H239290   0.907   3.756   1.293  0.3306  0.2134  0.8222
 5959TIP3   OH239291   3.497   2.371  11.883 -0.1366 -0.2086 -0.1461
 5959TIP3    H139292   3.475   2.395  11.793 -0.1999 -1.3540 -0.4480
 5959TIP3    H239293   3.498   2.454  11.931  0.5711  0.4871 -1.3466
 5960TIP3   OH239294   2.327   1.398   6.057  0.4217  0.2210 -0.8181
 5960TIP3    H139295   2.407   1.440   6.091  0.4950  1.5168 -2.4893
 5960TIP3    H239296   2.272   1.387   6.135  2.1248 -0.5514  0.3545
 5961TIP3   OH239297   6.077   5.620  11.765 -0.2231 -0.2665 -0.8344
 5961TIP3    H139298   6.097   5.568  11.688  0.7701 -1.3101  0.0939
 5961TIP3    H239299   6.152   5.678  11.776 -0.4166 -0.0343 -0.7230
 5962TIP3   OH239300   5.068   3.556  10.609 -0.2723  0.0515  0.3029
 5962TIP3    H139301   5.030   3.530  10.694  1.2720 -0.3112  0.9204
 5962TIP3    H239302   5.003   3.614  10.571 -0.9013  0.4449  1.8718
 5963TIP3   OH239303   6.731   0.441  16.337 -0.4237  0.5036 -0.1292
 5963TIP3    H139304   6.821   0.420  16.363 -1.0942 -1.6584  0.6391
 5963TIP3    H239305   6.690   0.356  16.319 -2.2543  1.4451 -0.7089
 5964TIP3   OH239306   3.467   3.925   5.675 -0.6586  0.2752 -0.4240
 5964TIP3    H139307   3.559   3.952   5.669 -1.1992  1.9656 -2.4759
 5964TIP3    H239308   3.434   3.968   5.754  0.5946 -1.4928  1.1378
 5965TIP3   OH239309   3.513   0.215   2.158 -0.3809 -0.4716 -0.4564
 5965TIP3    H139310   3.512   0.163   2.238 -2.3553 -0.7854 -0.6365
 5965TIP3    H239311   3.563   0.162   2.096  0.2593 -0.7049  0.2309
 5966TIP3   OH239312   4.778   5.991   2.168 -0.2118 -0.5828  0.3233
 5966TIP3    H139313   4.688   5.962   2.157  0.3371 -2.0646 -0.5371
 5966TIP3    H239314   4.828   5.910   2.180  1.1093  0.1520  0.0045
 5967TIP3   OH239315   3.839   1.360  17.155 -0.2092 -0.4258 -0.0084
 5967TIP3    H139316   3.791   1.357  17.238 -1.6028  1.3290 -0.7032
 5967TIP3    H239317   3.924   1.319  17.175 -0.5855 -0.2327  2.2068
 5968TIP3   OH239318   3.785   3.217   3.520 -0.1632  0.1474  0.0840
 5968TIP3    H139319   3.717   3.159   3.555 -1.4931 -0.4322 -3.0672
 5968TIP3    H239320   3.862   3.161   3.511  0.1196  0.2458  1.7428
 5969TIP3   OH239321   0.930   3.281  12.419  0.3850 -0.1029  0.2043
 5969TIP3    H139322   0.912   3.276  12.326  0.2858 -1.2946  0.2643
 5969TIP3    H239323   1.024   3.266  12.426  0.3259 -0.4374  0.3152
 5970TIP3   OH239324   0.674   4.333  14.082 -0.0026  0.0400  0.2546
 5970TIP3    H139325   0.691   4.249  14.040  0.4640  0.9692 -1.4903
 5970TIP3    H239326   0.610   4.313  14.150  1.5993 -2.0665  1.2799
 5971TIP3   OH239327   3.642   6.423   1.246  0.1364  0.6946  0.1579
 5971TIP3    H139328   3.684   6.423   1.332 -0.9853  0.4990  0.7233
 5971TIP3    H239329   3.715   6.423   1.184  0.9665  0.5052  1.1022
 5972TIP3   OH239330   6.562   5.175   0.322  0.3114  0.1106  0.1363
 5972TIP3    H139331   6.597   5.123   0.250  1.5874 -1.9497  2.1262
 5972TIP3    H239332   6.634   5.233   0.346  0.5793 -0.5610  0.9707
 5973TIP3   OH239333   0.657   2.655  13.144  0.2126 -0.5677 -0.1340
 5973TIP3    H139334   0.665   2.746  13.174  0.8426  0.4640 -3.0481
 5973TIP3    H239335   0.573   2.625  13.178 -0.4074  1.4018  0.1772
 5974TIP3   OH239336   5.164   0.020   1.109 -0.0474  0.2886 -0.4428
 5974TIP3    H139337   5.073   0.037   1.133  0.4177  2.2641  0.0530
 5974TIP3    H239338   5.161  -0.064   1.063 -2.1055  0.2985 -0.4159
 5975TIP3   OH239339   1.907   5.589  13.703 -0.1722 -0.4444  0.0639
 5975TIP3    H139340   1.838   5.631  13.754 -0.7964 -2.1691  0.7049
 5975TIP3    H239341   1.986   5.599  13.756 -0.4547 -0.6706  0.5326
 5976TIP3   OH239342   6.264   4.021   0.790  0.6242 -0.5554  0.5803
 5976TIP3    H139343   6.203   3.978   0.851  1.1358  0.8159  2.1060
 5976TIP3    H239344   6.343   3.968   0.796 -0.2703 -2.2494 -1.2861
 5977TIP3   OH239345   2.883   0.894   6.576  0.0749  0.1480 -0.0177
 5977TIP3    H139346   2.822   0.845   6.632  0.3781 -0.4022 -0.1561
 5977TIP3    H239347   2.828   0.954   6.526 -0.3181 -0.1263  0.0846
 5978TIP3   OH239348   0.300   1.094   2.627  0.6440  0.2145 -0.4891
 5978TIP3    H139349   0.300   1.189   2.643  0.2539  0.1411 -0.0321
 5978TIP3    H239350   0.213   1.065   2.655  1.0455 -0.4054  0.1271
 5979TIP3   OH239351   5.145   4.668   6.528  0.0249  0.1413  0.2666
 5979TIP3    H139352   5.055   4.698   6.542  0.4483  1.6084  0.0140
 5979TIP3    H239353   5.168   4.622   6.608 -1.5618 -1.9490 -0.3775
 5980TIP3   OH239354   4.562   0.983  15.421  0.6734 -0.1113  0.2876
 5980TIP3    H139355   4.619   0.946  15.354  0.0560  0.6479 -0.6844
 5980TIP3    H239356   4.485   0.925  15.421  0.1448  0.5561 -0.5371
 5981TIP3   OH239357   5.482   5.112  13.019 -0.1026  0.1298 -0.3334
 5981TIP3    H139358   5.399   5.096  13.063  0.2995  1.3161  0.9103
 5981TIP3    H239359   5.499   5.032  12.970 -0.5112 -1.2998  1.7432
 5982TIP3   OH239360   0.102   1.704   1.812  0.3224  0.5242  0.2491
 5982TIP3    H139361   0.062   1.653   1.741  0.5874  0.8830 -0.1646
 5982TIP3    H239362   0.111   1.642   1.884  0.3289  0.0765 -0.1349
 5983TIP3   OH239363   4.506   3.177  12.359 -0.2006  0.6786 -0.2361
 5983TIP3    H139364   4.435   3.238  12.380 -0.4743 -0.0202  0.9151
 5983TIP3    H239365   4.584   3.215  12.400 -0.0316  1.0991 -0.9321
 5984TIP3   OH239366   3.566   0.569  12.023  0.7115  0.5728  0.0473
 5984TIP3    H139367   3.639   0.532  11.974 -0.0577  0.5117 -1.0973
 5984TIP3    H239368   3.527   0.494  12.068  0.0289  0.1998 -1.1165
 5985TIP3   OH239369   2.242   3.798  12.171  0.5828  0.0084 -0.0378
 5985TIP3    H139370   2.254   3.874  12.114 -0.4237 -0.4330 -0.8637
 5985TIP3    H239371   2.161   3.757  12.141  0.0714 -0.3120  1.6480
 5986TIP3   OH239372   6.279   1.445  17.286  0.3196  0.5900 -0.2862
 5986TIP3    H139373   6.254   1.537  17.291 -2.0767  0.0986 -1.3206
 5986TIP3    H239374   6.269   1.423  17.193  0.7604 -0.7250 -0.0431
 5987TIP3   OH239375   1.932   3.165  11.631  0.1252 -0.2171  0.0405
 5987TIP3    H139376   1.896   3.253  11.640 -0.7277 -0.4589 -0.8599
 5987TIP3    H239377   1.867   3.108  11.673 -1.2997 -0.7936 -2.7130
 5988TIP3   OH239378   1.034   3.323  12.013 -0.2677  0.2409 -0.5128
 5988TIP3    H139379   0.996   3.365  12.091  0.6744  2.5099 -1.1993
 5988TIP3    H239380   0.990   3.365  11.939 -0.8853 -1.6240 -1.2581
 5989TIP3   OH239381   0.804   1.450   4.052  0.0003 -0.4438 -0.1128
 5989TIP3    H139382   0.895   1.477   4.043  0.2569 -1.0744  0.5075
 5989TIP3    H239383   0.771   1.497   4.128 -0.4188  0.3539 -0.7775
 5990TIP3   OH239384   1.399   3.686  17.043 -0.3995 -0.0720  0.1594
 5990TIP3    H139385   1.480   3.683  16.993  0.3159 -3.6192  1.2530
 5990TIP3    H239386   1.331   3.701  16.977  0.9745  1.5172 -0.9672
 5991TIP3   OH239387   3.819   3.482   0.148 -0.4027 -0.0366  0.2125
 5991TIP3    H139388   3.748   3.457   0.206 -2.3502  0.3007 -1.8905
 5991TIP3    H239389   3.795   3.570   0.117  1.2128  0.3137 -0.1447
 5992TIP3   OH239390   3.196   5.047  10.869  0.0202  0.3656 -0.5026
 5992TIP3    H139391   3.180   5.140  10.885  0.7026  0.5622 -0.9326
 5992TIP3    H239392   3.114   5.015  10.833  0.6823  1.4803 -3.2383
 5993TIP3   OH239393   0.226   3.783   1.824  0.3770 -0.3091 -0.1488
 5993TIP3    H139394   0.227   3.772   1.729  0.6258 -2.3233  0.0562
 5993TIP3    H239395   0.290   3.720   1.857 -2.1641 -2.1895  1.5682
 5994TIP3   OH239396   2.760   0.170  13.633 -0.1685  0.5530 -0.3350
 5994TIP3    H139397   2.727   0.097  13.582  1.5613 -0.8632  0.4721
 5994TIP3    H239398   2.778   0.133  13.720 -0.3369  2.2184  0.4681
 5995TIP3   OH239399   4.137   5.003  12.387 -0.4044  0.1966  0.2472
 5995TIP3    H139400   4.156   5.052  12.307 -1.9338  1.1474  0.4355
 5995TIP3    H239401   4.223   4.986  12.426  0.3340  0.0914 -1.3631
 5996TIP3   OH239402   0.694   1.186   4.072  0.0308  0.0754 -0.3047
 5996TIP3    H139403   0.748   1.135   4.134 -0.0519 -1.2584 -1.2945
 5996TIP3    H239404   0.740   1.269   4.064  1.2856 -0.5740 -0.1558
 5997TIP3   OH239405   2.850   4.902   5.492  0.0261 -0.6427 -0.1583
 5997TIP3    H139406   2.780   4.921   5.554  1.2633  0.9063  0.8378
 5997TIP3    H239407   2.805   4.872   5.413 -1.6282 -1.6349  1.1008
 5998TIP3   OH239408   1.189   3.490  13.274  0.2377  0.8906  0.3305
 5998TIP3    H139409   1.150   3.440  13.345  1.6990  1.0958  1.3164
 5998TIP3    H239410   1.251   3.549  13.317  3.0197 -0.6918 -1.2250
 5999TIP3   OH239411   0.513   6.416   1.024  0.0443 -0.9781 -0.2716
 5999TIP3    H139412   0.433   6.456   1.059  1.7874  0.9977  1.7832
 5999TIP3    H239413   0.523   6.456   0.937 -0.2270  0.2656  0.2425
 6000TIP3   OH239414   3.384   3.621  11.975 -0.2956  0.9578 -0.0496
 6000TIP3    H139415   3.474   3.612  12.006 -0.2091  2.0746  0.0449
 6000TIP3    H239416   3.331   3.615  12.054 -0.1601  2.3768  0.1772
 6001TIP3   OH239417   6.477   2.619   6.674 -0.0795 -0.1107 -0.0624
 6001TIP3    H139418   6.527   2.585   6.600  0.4392 -2.5847  1.2938
 6001TIP3    H239419   6.540   2.669   6.725 -0.9285  3.6540 -2.2635
 6002TIP3   OH239420   4.506   2.675   3.138  0.2679  0.5149 -0.0214
 6002TIP3    H139421   4.562   2.664   3.060 -0.5642  0.8718 -0.6877
 6002TIP3    H239422   4.418   2.655   3.106 -0.0107  0.0798  0.9897
 6003TIP3   OH239423   6.578   0.910  12.272 -0.2284 -0.8103 -0.0923
 6003TIP3    H139424   6.497   0.866  12.247 -0.1828 -1.3871  0.7241
 6003TIP3    H239425   6.647   0.847  12.251 -0.2593 -1.8056  2.4187
 6004TIP3   OH239426   2.466   5.790  14.307  0.3313  0.0561  0.1965
 6004TIP3    H139427   2.514   5.776  14.388 -0.8279  0.5637  1.0057
 6004TIP3    H239428   2.379   5.753  14.323 -0.0635  0.5685 -0.6442
 6005TIP3   OH239429   1.625   6.401   0.246 -0.2315  0.4116 -0.1494
 6005TIP3    H139430   1.629   6.487   0.288  1.0839 -0.3374  1.3778
 6005TIP3    H239431   1.561   6.412   0.176 -1.2951  2.1879  1.0135
 6006TIP3   OH239432   4.677   2.001  17.295 -0.7995  0.3841  0.6579
 6006TIP3    H139433   4.665   1.906  17.304  1.1094 -0.0089 -0.3319
 6006TIP3    H239434   4.765   2.010  17.257 -0.5520  2.5884  1.6147
 6007TIP3   OH239435   5.376   1.149   4.166  0.2733 -0.3734 -0.1166
 6007TIP3    H139436   5.416   1.197   4.093 -0.8486  0.1459 -0.4073
 6007TIP3    H239437   5.312   1.091   4.124  1.0976 -1.6178  0.2921
 6008TIP3   OH239438   5.337   6.758  11.622  0.0930 -0.3477 -0.3802
 6008TIP3    H139439   5.287   6.832  11.589 -1.6768 -2.0326 -1.6533
 6008TIP3    H239440   5.304   6.744  11.711 -0.8464 -0.6822 -0.7727
 6009TIP3   OH239441   0.788   2.305  15.459  0.0586  0.1194  0.4848
 6009TIP3    H139442   0.797   2.256  15.541 -1.0036  1.1154  1.2342
 6009TIP3    H239443   0.694   2.304  15.441  0.1631  0.8341 -0.1349
 6010TIP3   OH239444   6.245   2.534  13.562  0.1800  0.5570  0.1472
 6010TIP3    H139445   6.298   2.563  13.637  0.5808  0.8161 -0.2336
 6010TIP3    H239446   6.280   2.583  13.488 -1.4844  1.7484  0.1103
 6011TIP3   OH239447   3.553   5.995  11.812  0.6576 -0.5077 -0.8013
 6011TIP3    H139448   3.468   6.026  11.783  0.4108 -1.2155 -0.8401
 6011TIP3    H239449   3.564   6.033  11.900 -0.5696 -1.9895  0.0352
 6012TIP3   OH239450   1.016   0.999  14.956  0.1629  0.0629 -0.2719
 6012TIP3    H139451   1.036   1.070  15.017 -1.6552  0.4436 -0.0557
 6012TIP3    H239452   1.088   0.937  14.967  0.3079  0.5087  1.6642
 6013TIP3   OH239453   2.791   6.594  13.812 -0.8067  0.6221 -0.0239
 6013TIP3    H139454   2.790   6.499  13.827 -2.4710  0.3477 -1.5411
 6013TIP3    H239455   2.716   6.626  13.860 -1.4325  0.8523 -1.1139
 6014TIP3   OH239456   3.889   3.757  15.055  0.3483 -0.0173 -0.0370
 6014TIP3    H139457   3.886   3.851  15.033 -0.0778 -0.2930 -1.2426
 6014TIP3    H239458   3.981   3.733  15.044  0.5415  0.3591  0.7318
 6015TIP3   OH239459   1.200   6.240  17.039 -0.5143 -0.0314  0.1474
 6015TIP3    H139460   1.276   6.194  17.003 -1.5059 -2.3356  0.7898
 6015TIP3    H239461   1.129   6.220  16.977 -1.1809 -0.1425  0.9366
 6016TIP3   OH239462   2.052   4.768   0.853 -0.0605  0.2557  0.2348
 6016TIP3    H139463   2.021   4.749   0.764  1.1584 -3.0186  0.3741
 6016TIP3    H239464   1.986   4.730   0.910  0.7592 -0.5983  0.6415
 6017TIP3   OH239465   0.067   3.787   3.118  0.3083 -0.2923 -0.2080
 6017TIP3    H139466   0.141   3.786   3.057 -0.4730 -2.3867 -1.2194
 6017TIP3    H239467   0.003   3.845   3.077  1.4304  1.7742  0.8178
 6018TIP3   OH239468   3.941   4.308  15.389  0.4275  0.4244  0.5310
 6018TIP3    H139469   3.937   4.229  15.336  0.1585  1.1014 -0.4783
 6018TIP3    H239470   3.849   4.334  15.401  0.5091  0.5395  0.9417
 6019TIP3   OH239471   2.388   4.539  13.726  0.1413 -0.1002 -0.0971
 6019TIP3    H139472   2.323   4.478  13.691  0.6223 -1.4709  1.2805
 6019TIP3    H239473   2.343   4.583  13.798  0.6241 -0.8471  0.6765
 6020TIP3   OH239474   6.551   2.099   0.400  0.0450 -0.4022 -0.5458
 6020TIP3    H139475   6.582   2.119   0.311  0.2115  0.6347 -0.2712
 6020TIP3    H239476   6.462   2.064   0.387  0.3288 -0.9192 -1.1576
 6021TIP3   OH239477   6.488   2.885   5.826  0.6011  0.0462  0.0041
 6021TIP3    H139478   6.502   2.852   5.737  0.3752 -0.3642  0.1212
 6021TIP3    H239479   6.496   2.807   5.882  1.3265  0.3914  0.4022
 6022TIP3   OH239480   6.355   2.565   0.875 -0.3100 -0.2528  0.4540
 6022TIP3    H139481   6.322   2.590   0.961  0.4599 -1.7162  1.1959
 6022TIP3    H239482   6.409   2.488   0.890  0.4493 -0.1147 -1.2424
 6023TIP3   OH239483   4.883   6.236  16.433 -0.3209 -0.0214  0.2090
 6023TIP3    H139484   4.846   6.159  16.390  0.0497  1.0400 -2.1985
 6023TIP3    H239485   4.812   6.270  16.487 -1.2307 -0.7937 -0.4647
 6024TIP3   OH239486   0.459   6.186  13.702  0.4440 -0.1073  0.6788
 6024TIP3    H139487   0.458   6.102  13.749 -0.2866  0.1428  1.1349
 6024TIP3    H239488   0.416   6.247  13.762  0.4335  0.4589  0.1047
 6025TIP3   OH239489   0.257   3.445  12.070  0.4538  0.4327  0.1181
 6025TIP3    H139490   0.318   3.372  12.058 -0.8108 -1.0059  1.8781
 6025TIP3    H239491   0.224   3.435  12.159 -2.0318  1.3821 -0.5849
 6026TIP3   OH239492   0.444   3.824  13.773  0.0473 -0.0430 -0.3646
 6026TIP3    H139493   0.513   3.845  13.836  1.6229 -0.9345 -1.7303
 6026TIP3    H239494   0.389   3.760  13.818  0.7585 -0.1650  0.3477
 6027TIP3   OH239495   0.441   3.809  11.051 -0.1797  0.0097  0.2916
 6027TIP3    H139496   0.501   3.748  11.008  0.2960  1.7615 -1.7093
 6027TIP3    H239497   0.415   3.870  10.982 -1.7410  1.2468  1.8656
 6028TIP3   OH239498   5.307   5.620  11.432  0.0429  0.0389  0.1540
 6028TIP3    H139499   5.393   5.580  11.422 -1.0935 -2.4199 -0.4035
 6028TIP3    H239500   5.281   5.599  11.521 -0.3695 -0.0893  0.0076
 6029TIP3   OH239501   5.456   3.835   5.559 -0.1384 -0.2770  0.5978
 6029TIP3    H139502   5.389   3.893   5.596 -1.3168 -1.4921  0.4453
 6029TIP3    H239503   5.487   3.784   5.633 -0.8735 -1.1376  0.3299
 6030TIP3   OH239504   4.388   6.517   3.485  0.5995  0.0428 -0.2129
 6030TIP3    H139505   4.431   6.580   3.427 -0.5659  0.4534 -0.6584
 6030TIP3    H239506   4.365   6.567   3.563  1.0690 -0.2201  0.1031
 6031TIP3   OH239507   2.775   4.291   3.119  0.3358  0.1075 -0.8559
 6031TIP3    H139508   2.698   4.342   3.092 -0.1914  1.8010  3.1566
 6031TIP3    H239509   2.740   4.205   3.141 -0.7374  1.1085  1.7341
 6032TIP3   OH239510   5.633   5.300  16.021  0.2862 -0.0481  0.4204
 6032TIP3    H139511   5.616   5.373  15.962 -1.0139 -0.6581  0.0017
 6032TIP3    H239512   5.585   5.323  16.101  0.4413 -0.1412  0.5422
 6033TIP3   OH239513   4.742   6.581   5.020  0.1873 -0.0429  0.1294
 6033TIP3    H139514   4.684   6.518   4.978 -1.3462  1.5818 -0.3140
 6033TIP3    H239515   4.802   6.608   4.950 -0.3753  0.3700 -0.2039
 6034TIP3   OH239516   3.686   2.415  14.772  0.2120  0.0713  0.6281
 6034TIP3    H139517   3.687   2.337  14.829  2.8876 -0.1788  0.3599
 6034TIP3    H239518   3.683   2.489  14.833 -0.5324 -0.2087  0.9449
 6035TIP3   OH239519   3.032   3.271  13.176  0.5013 -0.3045 -0.4074
 6035TIP3    H139520   3.095   3.271  13.248  2.6779 -0.4345 -2.1939
 6035TIP3    H239521   3.031   3.180  13.146 -1.7473 -0.6360  0.5021
 6036TIP3   OH239522   5.781   4.961   3.374 -0.0314 -0.1677 -0.3588
 6036TIP3    H139523   5.828   4.998   3.449  0.2336 -1.4185  0.1093
 6036TIP3    H239524   5.691   4.950   3.405 -0.0397 -0.2039 -0.3958
 6037TIP3   OH239525   2.619   3.335  15.866  0.0729 -0.2285  0.0005
 6037TIP3    H139526   2.715   3.335  15.869  0.1252  0.7245 -0.9042
 6037TIP3    H239527   2.598   3.296  15.781 -0.2112  2.1753 -1.1234
 6038TIP3   OH239528   3.908   2.540   2.983 -0.0050 -0.6248 -0.0374
 6038TIP3    H139529   3.923   2.529   2.889  0.4564  2.4648 -0.4218
 6038TIP3    H239530   3.961   2.617   3.007 -0.6409 -0.9151  2.6247
 6039TIP3   OH239531   5.035   2.092  15.382  0.2759 -0.1949  0.2085
 6039TIP3    H139532   5.000   2.017  15.430  2.7343 -2.6121 -1.4551
 6039TIP3    H239533   5.122   2.063  15.353  1.4423  3.4109 -0.3886
 6040TIP3   OH239534   0.011   4.013  11.926  0.4260  0.1025  0.1815
 6040TIP3    H139535   0.091   3.973  11.959  0.5115  0.4587  0.4026
 6040TIP3    H239536   0.035   4.049  11.840  0.3955 -0.1516  0.0651
 6041TIP3   OH239537   3.870   2.247   4.692 -0.3340 -0.2189  0.5728
 6041TIP3    H139538   3.944   2.307   4.683  1.3237 -2.1622  0.4373
 6041TIP3    H239539   3.847   2.251   4.784  0.4027 -0.0883  0.7572
 6042TIP3   OH239540   4.623   3.081   1.198 -0.3356 -0.1859  0.1577
 6042TIP3    H139541   4.555   3.148   1.200 -0.6280 -0.4938  0.8610
 6042TIP3    H239542   4.639   3.060   1.290 -0.4172 -1.2409 -0.0570
 6043TIP3   OH239543   1.615   4.666   4.030  0.2844  0.4433 -0.9174
 6043TIP3    H139544   1.584   4.742   4.081  2.1275 -0.0346  1.0608
 6043TIP3    H239545   1.670   4.705   3.961  3.1909  0.9997  1.4809
 6044TIP3   OH239546   4.324   0.072  12.836 -0.4324  0.4994  0.2804
 6044TIP3    H139547   4.392   0.009  12.813  0.2928  1.1603  0.5845
 6044TIP3    H239548   4.353   0.111  12.918 -1.7750 -0.0583  1.0470
 6045TIP3   OH239549   0.673   4.475   3.698 -0.0369 -0.1424 -0.5434
 6045TIP3    H139550   0.758   4.479   3.742 -0.5120 -0.3408  0.4453
 6045TIP3    H239551   0.693   4.457   3.607  0.9654 -0.7153 -0.2279
 6046TIP3   OH239552   0.455   5.116  13.332  0.6212 -0.6478  0.0069
 6046TIP3    H139553   0.400   5.073  13.266 -3.0814  2.7664  0.4884
 6046TIP3    H239554   0.418   5.090  13.416 -0.1908  1.3756  0.3518
 6047TIP3   OH239555   4.890   2.250   2.758  0.4867 -0.5220  0.1697
 6047TIP3    H139556   4.854   2.279   2.842  1.2209 -2.3072  1.1513
 6047TIP3    H239557   4.816   2.208   2.714  0.4608 -0.9200  0.5852
 6048TIP3   OH239558   1.295   0.326  12.674 -0.4474 -0.2919 -0.3216
 6048TIP3    H139559   1.314   0.376  12.753 -1.4248 -1.6241  0.8123
 6048TIP3    H239560   1.288   0.235  12.704 -2.5194 -0.6311 -1.6368
 6049TIP3   OH239561   0.963   4.808  13.521 -0.3403 -0.1196  0.2040
 6049TIP3    H139562   0.882   4.807  13.471  0.3750  0.4393 -1.0094
 6049TIP3    H239563   0.966   4.896  13.559  0.1567  0.1975 -0.5510
 6050TIP3   OH239564   3.344   6.213   2.715  0.4840  0.2632  0.2454
 6050TIP3    H139565   3.376   6.240   2.801  1.2012 -0.1867  0.1274
 6050TIP3    H239566   3.290   6.136   2.732  0.9585 -0.0714  0.2560
 6051TIP3   OH239567   3.389   3.315   0.382  0.0564 -0.6152  0.1868
 6051TIP3    H139568   3.333   3.294   0.457 -1.5053  1.4345 -0.2989
 6051TIP3    H239569   3.425   3.401   0.402  0.3423 -0.4351 -1.0217
 6052TIP3   OH239570   5.789   2.129   6.106  0.0805  0.8282  0.1135
 6052TIP3    H139571   5.733   2.109   6.032  0.0023 -1.5453  0.7100
 6052TIP3    H239572   5.750   2.081   6.179  2.7853 -0.9124  0.5618
 6053TIP3   OH239573   0.136   4.146  15.138  0.6880 -0.3409  0.2877
 6053TIP3    H139574   0.209   4.146  15.075  1.0691 -0.9693  0.7103
 6053TIP3    H239575   0.122   4.238  15.159  0.9709 -0.1727 -0.2503
 6054TIP3   OH239576   2.089   6.281   3.653 -0.7760 -0.0079 -0.2719
 6054TIP3    H139577   2.018   6.321   3.704  0.3988  0.0213  1.4458
 6054TIP3    H239578   2.133   6.355   3.611 -0.9595  0.1138 -0.2500
 6055TIP3   OH239579   0.340   1.366   2.657 -0.2013 -0.0250  0.3701
 6055TIP3    H139580   0.293   1.375   2.739 -1.2994 -0.2002 -0.2236
 6055TIP3    H239581   0.418   1.421   2.668 -1.8917  2.5826  0.3976
 6056TIP3   OH239582   2.680   3.517   5.542 -0.0173 -0.4448 -0.3502
 6056TIP3    H139583   2.748   3.493   5.605 -1.7060 -0.8674  1.3883
 6056TIP3    H239584   2.676   3.612   5.546 -0.5370 -0.4989  0.6791
 6057TIP3   OH239585   4.236   6.380   1.117 -0.0754  0.1684  0.1436
 6057TIP3    H139586   4.308   6.393   1.056  0.7570  0.5218  1.1710
 6057TIP3    H239587   4.278   6.372   1.202 -1.2213 -0.1341  0.6965
 6058TIP3   OH239588   4.691   0.654   1.623  0.0382 -0.1121  0.3883
 6058TIP3    H139589   4.732   0.647   1.537  0.9049 -1.5698  0.8623
 6058TIP3    H239590   4.604   0.617   1.612  0.0967 -0.1604  0.0915
 6059TIP3   OH239591   5.005   0.285   1.664 -0.2775  0.7027 -0.3473
 6059TIP3    H139592   4.968   0.208   1.707  0.4808 -0.7749 -2.2321
 6059TIP3    H239593   5.100   0.275   1.673 -0.1676  1.7475 -0.1311
 6060TIP3   OH239594   4.201   5.133   5.354 -0.3234 -0.4426  0.5800
 6060TIP3    H139595   4.139   5.075   5.397 -0.6563 -1.1405 -0.7836
 6060TIP3    H239596   4.287   5.094   5.372 -0.5349 -1.2916 -0.2019
 6061TIP3   OH239597   4.257   4.128   5.801 -0.1328  0.3710 -0.6312
 6061TIP3    H139598   4.225   4.041   5.822 -0.1101  0.3449 -0.7045
 6061TIP3    H239599   4.344   4.114   5.764 -0.7322  0.3025 -2.0577
 6062TIP3   OH239600   3.994   0.864   0.544 -0.5479 -0.6896 -0.3525
 6062TIP3    H139601   4.027   0.940   0.496  4.2554 -2.3178 -0.2209
 6062TIP3    H239602   3.992   0.892   0.636  1.3858 -0.6493 -0.2820
 6063TIP3   OH239603   4.283   3.985  12.497 -0.0848  0.5338 -0.7932
 6063TIP3    H139604   4.246   4.050  12.557  0.3829 -1.4024  1.8197
 6063TIP3    H239605   4.224   3.986  12.421 -0.6547  3.2157 -0.4178
 6064TIP3   OH239606   4.032   5.037   3.451 -0.1971 -0.2052 -0.1740
 6064TIP3    H139607   3.976   5.000   3.520 -0.5249  0.6959  0.0591
 6064TIP3    H239608   4.039   4.967   3.386 -1.9087 -0.2320 -0.3773
 6065TIP3   OH239609   3.744   4.805   4.622 -0.0989  0.1924 -0.5081
 6065TIP3    H139610   3.796   4.885   4.618  1.4060 -0.6968  0.2394
 6065TIP3    H239611   3.792   4.749   4.683 -0.3307 -1.8223 -2.0914
 6066TIP3   OH239612   4.726   5.211  13.370  0.0150 -0.3134 -0.0269
 6066TIP3    H139613   4.787   5.268  13.323  0.5303 -1.4203 -0.7471
 6066TIP3    H239614   4.711   5.255  13.453  0.2322  0.9704 -0.6417
 6067TIP3   OH239615   2.376   4.766  14.301  0.3281  0.6629  0.0772
 6067TIP3    H139616   2.396   4.776  14.208  0.2997 -0.0277 -0.0110
 6067TIP3    H239617   2.447   4.713  14.336 -0.9824 -1.3716 -0.1310
 6068TIP3   OH239618   6.003   3.310  12.231  0.5058 -0.1275 -0.0302
 6068TIP3    H139619   5.939   3.343  12.169  2.6388  2.8289 -0.8994
 6068TIP3    H239620   6.065   3.382  12.242  1.5118 -1.3239  3.8351
 6069TIP3   OH239621   5.172   5.686   3.597 -0.5308  0.4127 -0.3065
 6069TIP3    H139622   5.264   5.676   3.620 -0.2200  0.4971 -1.4773
 6069TIP3    H239623   5.173   5.729   3.511 -1.6363 -0.3444 -0.7128
 6070TIP3   OH239624   0.487   0.305   0.365  0.5705 -0.4757  0.2656
 6070TIP3    H139625   0.524   0.303   0.453  0.9379  0.1851  0.1347
 6070TIP3    H239626   0.563   0.315   0.307  0.3937 -1.5673 -0.1793
 6071TIP3   OH239627   3.431   0.138  11.781  0.1146  0.0312  0.7396
 6071TIP3    H139628   3.509   0.159  11.832  0.3476 -0.0912  0.4306
 6071TIP3    H239629   3.443   0.047  11.755 -0.4665 -0.2143  1.2956
 6072TIP3   OH239630   5.608   4.668   5.423  0.0124  0.6948  0.1102
 6072TIP3    H139631   5.674   4.608   5.388  2.0534  2.2357  1.0997
 6072TIP3    H239632   5.566   4.620   5.494  1.1492  0.2107  0.4593
 6073TIP3   OH239633   5.731   1.158   3.584  0.1294  0.2364  0.0075
 6073TIP3    H139634   5.689   1.230   3.631  2.1130  0.4989  1.5145
 6073TIP3    H239635   5.668   1.086   3.591 -1.8890  1.7007 -1.5066
 6074TIP3   OH239636   5.718   4.274   0.310 -0.0008 -0.4618 -0.2187
 6074TIP3    H139637   5.756   4.336   0.373  1.6900 -1.2342 -0.4174
 6074TIP3    H239638   5.792   4.220   0.283 -1.6560 -3.5370  0.9924
 6075TIP3   OH239639   6.766   4.220   0.605  0.1871  0.3980  0.2536
 6075TIP3    H139640   6.812   4.173   0.536  1.9599  2.2402  0.0917
 6075TIP3    H239641   6.703   4.275   0.558  0.4654  0.6641  0.1890
 6076TIP3   OH239642   6.332   0.288   2.212 -0.0046 -0.1728 -0.3835
 6076TIP3    H139643   6.257   0.347   2.211 -1.2903 -1.5859  2.4363
 6076TIP3    H239644   6.374   0.303   2.297  2.0800 -0.4361 -1.3116
 6077TIP3   OH239645   2.438   0.459   1.900 -0.1418 -0.2189  0.0592
 6077TIP3    H139646   2.524   0.497   1.918  0.8710 -2.3894  0.1677
 6077TIP3    H239647   2.444   0.370   1.935 -2.0602 -0.7986 -0.9516
 6078TIP3   OH239648   0.272   3.596  13.794  0.5548  0.0085  0.1664
 6078TIP3    H139649   0.274   3.534  13.721  0.5573 -0.7544  0.7933
 6078TIP3    H239650   0.317   3.550  13.865  0.4375  0.6828  0.6851
 6079TIP3   OH239651   4.847   2.943   2.631  0.6639  0.3622  0.0856
 6079TIP3    H139652   4.833   3.023   2.579 -0.3820  1.1696  1.5238
 6079TIP3    H239653   4.941   2.939   2.645  0.7503  1.2426 -0.1879
 6080TIP3   OH239654   0.260   0.177  16.467 -0.7148 -0.1671 -0.3955
 6080TIP3    H139655   0.242   0.087  16.495  0.9307 -0.5486 -0.4940
 6080TIP3    H239656   0.214   0.231  16.532  0.0510 -1.0768  0.9595
 6081TIP3   OH239657   3.050   3.888  15.759 -0.1912 -0.2807 -0.4985
 6081TIP3    H139658   3.033   3.820  15.694 -0.1770 -1.0744  0.3040
 6081TIP3    H239659   2.973   3.887  15.816  0.2365 -0.3113  0.0943
 6082TIP3   OH239660   6.333   6.040   0.172 -0.4653 -0.6456  0.3111
 6082TIP3    H139661   6.346   6.122   0.218  0.1056  0.1494 -1.1816
 6082TIP3    H239662   6.277   6.062   0.098 -1.8571 -2.0040  0.9118
 6083TIP3   OH239663   1.170   5.675   2.295  0.5871  0.7274 -0.1046
 6083TIP3    H139664   1.121   5.609   2.344 -0.3266  0.8269 -0.8723
 6083TIP3    H239665   1.252   5.685   2.344  0.5570 -0.6611  0.2496
 6084TIP3   OH239666   5.041   2.350  14.085  0.6507  0.2233 -0.3905
 6084TIP3    H139667   5.023   2.410  14.158  0.3965  0.1558 -0.4000
 6084TIP3    H239668   5.132   2.324  14.098  0.4221 -0.2715  0.2479
 6085TIP3   OH239669   6.492   0.373   2.433  0.3649  0.3335 -0.7731
 6085TIP3    H139670   6.493   0.382   2.529  0.8007 -1.1630 -0.6133
 6085TIP3    H239671   6.573   0.325   2.413  0.2393  0.5702 -1.8957
 6086TIP3   OH239672   2.853   1.986   5.438 -0.2362  0.1092  0.3420
 6086TIP3    H139673   2.812   1.936   5.368 -2.0745 -1.4504  2.4136
 6086TIP3    H239674   2.817   2.075   5.428 -1.7986 -0.4982  0.2768
 6087TIP3   OH239675   5.463   1.943  11.359 -0.3715  0.1700 -0.8994
 6087TIP3    H139676   5.381   1.895  11.371 -0.4015  0.7241  1.5057
 6087TIP3    H239677   5.438   2.020  11.306 -1.1130 -0.3507 -1.3228
 6088TIP3   OH239678   1.280   5.838  15.141  0.2444 -0.4056  0.0624
 6088TIP3    H139679   1.370   5.853  15.171 -0.0232  1.6934 -0.0388
 6088TIP3    H239680   1.236   5.922  15.154 -1.1156 -0.7330 -1.9312
 6089TIP3   OH239681   5.754   5.225  12.625 -0.5527  0.0053  0.3929
 6089TIP3    H139682   5.727   5.201  12.536  0.8981 -1.1974  0.2489
 6089TIP3    H239683   5.703   5.304  12.644 -2.9900 -1.2750 -0.4027
 6090TIP3   OH239684   6.418   0.979   6.266  0.2792  0.3610  1.3044
 6090TIP3    H139685   6.480   1.049   6.288 -1.1294  2.2592 -0.4158
 6090TIP3    H239686   6.337   1.004   6.309 -0.0155 -0.7157  1.4024
 6091TIP3   OH239687   2.667   3.143   2.252 -0.2558 -0.1532 -0.2025
 6091TIP3    H139688   2.706   3.231   2.253  0.0345 -0.2791  0.3765
 6091TIP3    H239689   2.669   3.116   2.160 -0.1000  0.3393 -0.3466
 6092TIP3   OH239690   4.013   6.446  16.330  0.1419  0.6225  0.2818
 6092TIP3    H139691   3.955   6.375  16.357 -0.2171  1.3124  1.3878
 6092TIP3    H239692   4.039   6.423  16.241 -1.7787  0.2454 -0.2360
 6093TIP3   OH239693   1.870   1.636  12.733  0.2093  0.1629  0.3880
 6093TIP3    H139694   1.805   1.701  12.762  0.0293 -0.0670  0.4984
 6093TIP3    H239695   1.951   1.663  12.777  0.4745  1.1201 -0.6253
 6094TIP3   OH239696   2.241   4.363   5.253  0.0604 -0.1524  0.1579
 6094TIP3    H139697   2.208   4.322   5.173 -0.1447  1.6975 -0.7775
 6094TIP3    H239698   2.255   4.455   5.228  1.2232  0.1901  1.9071
 6095TIP3   OH239699   2.923   3.182  12.049  0.1366 -0.1386 -0.2482
 6095TIP3    H139700   3.013   3.214  12.047  0.1283 -0.0875  0.2268
 6095TIP3    H239701   2.893   3.192  11.959 -0.4049  2.7188  0.1632
 6096TIP3   OH239702   2.929   4.013   5.994  0.7166 -0.6121  0.2498
 6096TIP3    H139703   2.978   3.996   6.074  0.7066  1.2577  0.7023
 6096TIP3    H239704   2.853   4.064   6.023 -0.2975 -1.5158 -0.7254
 6097TIP3   OH239705   4.201   3.619  13.339  0.7706 -0.1740 -0.3872
 6097TIP3    H139706   4.207   3.715  13.336  1.1726 -0.2192 -1.1824
 6097TIP3    H239707   4.249   3.595  13.418  2.4277  0.1618 -1.2385
 6098TIP3   OH239708   0.687   2.814  14.249 -0.8537  0.1802  0.4802
 6098TIP3    H139709   0.697   2.761  14.169  2.0242 -1.4289  1.7407
 6098TIP3    H239710   0.700   2.904  14.219  0.0571 -0.3746 -0.9321
 6099TIP3   OH239711   2.939   0.456  16.769  0.3769  0.3007  0.7904
 6099TIP3    H139712   3.022   0.476  16.725 -0.9344  1.9361 -1.0736
 6099TIP3    H239713   2.940   0.511  16.847  1.0143  0.3445  0.7602
 6100TIP3   OH239714   3.473   3.665   3.502  0.1181 -0.3750  0.0439
 6100TIP3    H139715   3.385   3.688   3.532  0.8320  2.9225 -0.0341
 6100TIP3    H239716   3.528   3.670   3.581  0.8274  1.5020 -0.5070
 6101TIP3   OH239717   4.731   1.652  12.056 -0.0821  0.0684 -0.1654
 6101TIP3    H139718   4.789   1.666  12.131 -1.8245  0.5449  1.1784
 6101TIP3    H239719   4.717   1.558  12.054  0.8931 -0.0692 -0.6288
 6102TIP3   OH239720   0.898   4.230   6.032  0.5895 -1.0425 -0.0477
 6102TIP3    H139721   0.841   4.155   6.051 -1.0220  0.1569  0.0258
 6102TIP3    H239722   0.914   4.225   5.938  0.4516 -1.4470 -0.0529
 6103TIP3   OH239723   4.979   4.706   3.442  0.3433  0.4566 -0.6056
 6103TIP3    H139724   4.920   4.772   3.405 -0.8465 -1.7869 -3.0807
 6103TIP3    H239725   4.984   4.728   3.535 -2.7355  2.0243 -0.6673
 6104TIP3   OH239726   6.224   2.941   5.881  0.0559 -0.2215 -0.3425
 6104TIP3    H139727   6.318   2.959   5.881  0.0679 -0.2411  0.2540
 6104TIP3    H239728   6.218   2.848   5.906 -0.0702 -0.6313 -1.7872
 6105TIP3   OH239729   1.479   3.518  16.212  0.2552  0.2501  0.1728
 6105TIP3    H139730   1.494   3.435  16.258 -0.3669 -1.5244 -2.5742
 6105TIP3    H239731   1.560   3.567  16.226  1.8565 -2.0271 -0.3934
 6106TIP3   OH239732   4.955   3.349   2.633 -0.2320  0.1051  0.5548
 6106TIP3    H139733   4.886   3.409   2.660 -0.8220 -0.7958  1.1294
 6106TIP3    H239734   4.909   3.280   2.584  0.4733  0.2862 -0.3819
 6107TIP3   OH239735   4.416   4.648  17.055 -0.2559 -0.2736  0.1303
 6107TIP3    H139736   4.476   4.723  17.047  1.9899 -1.6020  2.9553
 6107TIP3    H239737   4.401   4.640  17.149 -2.9905 -1.5363 -0.3385
 6108TIP3   OH239738   1.259   3.408   2.809 -0.1931 -0.4036  0.3396
 6108TIP3    H139739   1.267   3.378   2.718  0.4273  1.8072 -0.4178
 6108TIP3    H239740   1.194   3.350   2.848  0.2372 -2.0344 -1.2220
 6109TIP3   OH239741   6.186   1.635   5.612  0.0949 -0.3869 -0.2391
 6109TIP3    H139742   6.167   1.624   5.518 -0.0235  1.1125 -0.4086
 6109TIP3    H239743   6.129   1.572   5.655 -1.8183  0.7306 -1.0228
 6110TIP3   OH239744   6.033   6.010  10.873  0.4531  0.0737 -0.2220
 6110TIP3    H139745   5.990   6.011  10.787  0.4855 -0.1133 -0.2404
 6110TIP3    H239746   6.124   5.987  10.854 -0.1175 -2.8749  0.1227
 6111TIP3   OH239747   1.785   0.754  11.669 -0.3358  0.4874 -0.6138
 6111TIP3    H139748   1.712   0.756  11.606  0.1325  0.9224 -1.1510
 6111TIP3    H239749   1.845   0.822  11.638  0.0356  0.5140  0.1489
 6112TIP3   OH239750   3.388   1.611  14.827  0.0640  0.4138 -0.4202
 6112TIP3    H139751   3.369   1.551  14.899 -0.9690  0.0543 -0.9843
 6112TIP3    H239752   3.303   1.630  14.788  0.8032 -1.7228 -3.4101
 6113TIP3   OH239753   4.012   1.509   6.067  0.4467  0.1939 -0.5786
 6113TIP3    H139754   3.997   1.592   6.113 -1.2518 -0.0235 -0.6843
 6113TIP3    H239755   3.971   1.521   5.982  0.4510 -0.6613 -0.7075
 6114TIP3   OH239756   5.181   3.685  14.248 -0.6020  0.5123  0.1834
 6114TIP3    H139757   5.134   3.625  14.189  1.0896 -3.0747  2.1856
 6114TIP3    H239758   5.180   3.769  14.202 -1.8270 -1.3406 -3.5955
 6115TIP3   OH239759   3.343   3.979  15.183  0.1502  0.3719  0.0815
 6115TIP3    H139760   3.285   4.030  15.240  1.0388  0.1640  1.2251
 6115TIP3    H239761   3.416   4.039  15.163  1.6752 -0.6313  2.1975
 6116TIP3   OH239762   6.077   0.907   5.227 -0.1807 -0.6905  0.9487
 6116TIP3    H139763   6.001   0.966   5.233 -0.4169 -0.9463  0.5227
 6116TIP3    H239764   6.149   0.964   5.199 -0.4698 -0.6471  0.2732
 6117TIP3   OH239765   5.753   6.317   0.086  0.6124 -0.3993 -0.5631
 6117TIP3    H139766   5.838   6.279   0.064 -0.1845 -2.4919 -0.1806
 6117TIP3    H239767   5.740   6.294   0.178 -0.0276  0.6132 -0.3868
 6118TIP3   OH239768   3.661   6.678  14.416  0.7378  0.5283 -0.7035
 6118TIP3    H139769   3.688   6.587  14.403  0.2587  0.2582  0.1416
 6118TIP3    H239770   3.674   6.693  14.509 -0.7230  0.8207 -0.5264
 6119TIP3   OH239771   4.141   1.939   0.925  0.6704 -0.1748 -0.3116
 6119TIP3    H139772   4.062   1.926   0.977  1.4183  2.2810  1.6207
 6119TIP3    H239773   4.206   1.880   0.963  0.6280  0.0805  0.1595
 6120TIP3   OH239774   3.421   0.366   4.084 -0.1534  0.6863  0.1521
 6120TIP3    H139775   3.428   0.274   4.108 -2.1294  0.6708  0.9216
 6120TIP3    H239776   3.509   0.392   4.059  0.4541 -1.3858 -0.0202
 6121TIP3   OH239777   4.932   6.167   1.264  0.5313 -0.8826 -0.6887
 6121TIP3    H139778   5.018   6.208   1.269 -0.2271  0.7746 -0.5988
 6121TIP3    H239779   4.909   6.172   1.171  0.1026 -0.3507 -0.5609
 6122TIP3   OH239780   4.250   0.544  12.139  0.3418 -0.5564 -0.2596
 6122TIP3    H139781   4.264   0.454  12.170 -1.4909 -0.4382  1.0866
 6122TIP3    H239782   4.328   0.591  12.168  0.8352 -1.4809 -0.0302
 6123TIP3   OH239783   6.584   5.888   1.932 -0.2249 -0.8916 -0.3087
 6123TIP3    H139784   6.528   5.955   1.973 -0.7416 -0.7571 -1.2210
 6123TIP3    H239785   6.539   5.865   1.851  2.4573  1.4372 -2.7181
 6124TIP3   OH239786   3.699   5.047  11.930  0.2493 -0.1322 -0.5888
 6124TIP3    H139787   3.740   4.977  11.880 -0.9943 -0.0127 -1.8248
 6124TIP3    H239788   3.609   5.017  11.946  0.0134  0.7335 -0.2210
 6125TIP3   OH239789   2.360   1.312  15.241 -0.3284  0.3574  0.3925
 6125TIP3    H139790   2.355   1.348  15.329  0.7717  1.2422  0.1093
 6125TIP3    H239791   2.305   1.369  15.188 -1.5880 -0.6021  0.6069
 6126TIP3   OH239792   4.632   5.120  12.635 -0.3930 -1.1042 -0.4890
 6126TIP3    H139793   4.630   5.191  12.700 -0.5463  0.1746 -1.8354
 6126TIP3    H239794   4.688   5.053  12.674 -0.0168 -0.1237  0.7165
 6127TIP3   OH239795   6.641   2.369  13.956  0.1027 -0.2716  0.4206
 6127TIP3    H139796   6.602   2.424  14.023 -3.7584  0.0290 -1.7531
 6127TIP3    H239797   6.610   2.280  13.976 -1.6660 -0.0783 -1.1948
 6128TIP3   OH239798   2.435   1.432  11.897  0.0020 -0.0203 -0.1610
 6128TIP3    H139799   2.383   1.408  11.974 -1.6377  1.2641 -0.7996
 6128TIP3    H239800   2.419   1.525  11.885  0.4654 -0.1253 -1.8665
 6129TIP3   OH239801   3.671   3.770  15.825 -0.5058  0.1198  0.2747
 6129TIP3    H139802   3.627   3.746  15.906 -0.9547 -0.1861 -0.0540
 6129TIP3    H239803   3.614   3.835  15.785  0.3009  1.1554  0.7676
 6130TIP3   OH239804   1.069   5.216  11.554  0.4016  0.2934 -0.2249
 6130TIP3    H139805   1.079   5.235  11.647  0.2909  2.5615 -0.6308
 6130TIP3    H239806   1.136   5.149  11.537  0.1637 -0.4633  1.5327
 6131TIP3   OH239807   0.428   4.251  12.229 -0.0223 -0.4300 -0.0289
 6131TIP3    H139808   0.501   4.196  12.200  0.4144  0.5888 -0.9445
 6131TIP3    H239809   0.382   4.275  12.148  0.6167  1.6473  0.1512
 6132TIP3   OH239810   0.665   2.911   5.483 -0.0842 -0.2535  0.6164
 6132TIP3    H139811   0.659   2.843   5.416  1.5318 -0.8468  1.0333
 6132TIP3    H239812   0.574   2.927   5.509 -0.5121 -2.4723  0.7157
 6133TIP3   OH239813   5.135   6.522   4.618  0.3118  0.9448 -0.6544
 6133TIP3    H139814   5.224   6.542   4.647  1.7071 -0.1341 -3.8054
 6133TIP3    H239815   5.118   6.434   4.653 -0.2609  1.7934  1.3479
 6134TIP3   OH239816   5.443   6.591   3.547 -0.2728  0.1724 -0.1280
 6134TIP3    H139817   5.393   6.614   3.626 -0.8338 -0.9449 -0.1448
 6134TIP3    H239818   5.387   6.528   3.501  1.0176 -0.8709 -0.3049
 6135TIP3   OH239819   4.481   5.218   1.885 -0.1614 -0.1965  0.5834
 6135TIP3    H139820   4.480   5.262   1.970 -1.8327  0.0813  0.4500
 6135TIP3    H239821   4.539   5.143   1.897 -0.4631 -0.2242  2.0047
 6136TIP3   OH239822   3.661   0.667  15.318 -0.5005  0.4552  0.1107
 6136TIP3    H139823   3.751   0.664  15.287 -0.7032 -1.5582 -0.3922
 6136TIP3    H239824   3.622   0.741  15.271  1.3933  2.7807  1.9686
 6137TIP3   OH239825   0.654   6.630   1.918  0.3868  0.3754  0.2709
 6137TIP3    H139826   0.667   6.699   1.984 -1.3767 -1.2958  2.5296
 6137TIP3    H239827   0.719   6.563   1.941  0.4042  0.1798 -0.3321
 6138TIP3   OH239828   3.510   4.645   4.595 -0.3344 -0.6483 -0.4983
 6138TIP3    H139829   3.558   4.727   4.600 -0.1015 -0.7064 -1.5518
 6138TIP3    H239830   3.576   4.577   4.609 -0.7661 -0.6750  1.9659
 6139TIP3   OH239831   3.818   3.153   4.725 -0.7010 -0.2178  0.1367
 6139TIP3    H139832   3.735   3.200   4.736 -0.4787  0.3051 -0.3800
 6139TIP3    H239833   3.802   3.091   4.654 -0.3024  0.7302 -0.8066
 6140TIP3   OH239834   1.553   3.435   6.548  0.3467  0.3466 -0.1058
 6140TIP3    H139835   1.489   3.458   6.616  0.1571  2.0365 -0.8195
 6140TIP3    H239836   1.536   3.342   6.530  0.2844 -0.1151  2.0054
 6141TIP3   OH239837   2.741   3.476   6.045  0.7420  0.1431 -0.0114
 6141TIP3    H139838   2.716   3.438   5.961 -0.2460  0.1562  0.2658
 6141TIP3    H239839   2.685   3.432   6.109 -0.1724  1.7706  0.3642
 6142TIP3   OH239840   4.829   6.745  16.862 -0.7940 -0.0910  0.0100
 6142TIP3    H139841   4.835   6.798  16.783 -0.2804 -0.3453 -0.1262
 6142TIP3    H239842   4.788   6.802  16.927 -1.1448  0.1469 -0.4105
 6143TIP3   OH239843   5.897   5.787  13.158  0.3595 -0.2294  0.6567
 6143TIP3    H139844   5.853   5.843  13.223 -2.6298 -0.6484 -0.8441
 6143TIP3    H239845   5.921   5.848  13.087 -0.7184 -0.4592  0.0814
 6144TIP3   OH239846   6.264   2.857  13.590  0.4474 -0.0630  0.1813
 6144TIP3    H139847   6.313   2.831  13.669 -1.1193 -1.7883  0.6600
 6144TIP3    H239848   6.173   2.834  13.610 -0.7309  3.3726 -0.5165
 6145TIP3   OH239849   3.491   6.261  14.372  0.3672  0.2860  0.2882
 6145TIP3    H139850   3.416   6.268  14.313  0.5860 -0.6138 -0.1161
 6145TIP3    H239851   3.460   6.294  14.456 -0.0840  1.1643 -0.2123
 6146TIP3   OH239852   1.123   4.148  17.042 -0.3736 -0.0982  0.3341
 6146TIP3    H139853   1.211   4.140  17.006 -0.8372  1.5892 -1.3600
 6146TIP3    H239854   1.134   4.136  17.136  1.5684 -0.4163  0.1081
 6147TIP3   OH239855   4.995   6.135   2.043 -0.1996 -0.4547  0.5110
 6147TIP3    H139856   4.957   6.223   2.039 -0.1126 -0.4478 -0.6903
 6147TIP3    H239857   4.919   6.077   2.047 -0.3488 -0.4051 -1.0427
 6148TIP3   OH239858   5.878   2.886  15.870  0.4415 -0.5966  0.0869
 6148TIP3    H139859   5.920   2.952  15.815 -0.1409  1.0799  1.5541
 6148TIP3    H239860   5.919   2.898  15.956 -0.4336 -1.4375  0.6339
 6149TIP3   OH239861   4.190   0.669  10.868 -0.3379  0.1490  0.3532
 6149TIP3    H139862   4.246   0.604  10.910  1.1682  2.2191  1.7395
 6149TIP3    H239863   4.165   0.629  10.785  2.0770 -1.4295  0.2884
 6150TIP3   OH239864   4.337   2.605   6.628  0.2134  0.5233 -0.3597
 6150TIP3    H139865   4.242   2.618   6.629  0.2289  0.6841 -0.6677
 6150TIP3    H239866   4.371   2.681   6.676  0.1863  0.4412 -0.2080
 6151TIP3   OH239867   0.972   2.843  12.281 -0.1289 -0.8104  0.0968
 6151TIP3    H139868   1.023   2.898  12.341 -0.5532  1.6933 -1.6628
 6151TIP3    H239869   0.928   2.780  12.338  1.3945 -0.1558  2.1195
 6152TIP3   OH239870   2.499   4.443  17.252  0.4202 -0.1491 -0.3736
 6152TIP3    H139871   2.514   4.456  17.345  0.3667  0.7932 -0.4859
 6152TIP3    H239872   2.572   4.488  17.209 -1.0740  2.0324 -0.8454
 6153TIP3   OH239873   1.851   2.477  11.890 -0.5936  0.2154  0.1266
 6153TIP3    H139874   1.834   2.390  11.927  0.8373  0.7983  2.2987
 6153TIP3    H239875   1.786   2.534  11.931 -1.6128  0.2237 -1.3922
 6154TIP3   OH239876   5.903   5.199  15.662 -0.3224  0.4534 -0.0231
 6154TIP3    H139877   5.940   5.173  15.747 -1.7876  0.3374  0.6041
 6154TIP3    H239878   5.812   5.171  15.666 -0.4581  0.6270 -1.5747
 6155TIP3   OH239879   2.528   2.232   5.734 -0.2750 -0.2274 -0.0002
 6155TIP3    H139880   2.505   2.141   5.715  0.5389 -0.6795  1.0555
 6155TIP3    H239881   2.599   2.252   5.673  0.4450 -0.7524  0.6432
 6156TIP3   OH239882   4.789   6.251  11.438  0.7427  0.2828 -0.0662
 6156TIP3    H139883   4.800   6.273  11.346 -2.1501 -2.4353 -1.2580
 6156TIP3    H239884   4.856   6.185  11.455  0.6952  0.1241 -0.4965
 6157TIP3   OH239885   4.036   5.472  12.481  0.7738 -0.5580  0.0283
 6157TIP3    H139886   4.031   5.460  12.386  0.8965 -1.2070  0.1010
 6157TIP3    H239887   4.065   5.387  12.514  1.5124 -0.1051  0.5778
 6158TIP3   OH239888   5.468   0.376  11.491 -0.6733  0.0751 -0.1757
 6158TIP3    H139889   5.467   0.472  11.487  0.0414  0.1179  0.3457
 6158TIP3    H239890   5.477   0.348  11.400  0.3888  0.5488 -0.2309
 6159TIP3   OH239891   1.335   1.027  12.363 -0.0374  0.4090 -0.2020
 6159TIP3    H139892   1.261   1.069  12.407 -0.3623 -1.0644  0.7331
 6159TIP3    H239893   1.323   1.049  12.270 -2.7223 -1.2047 -0.3648
 6160TIP3   OH239894   0.967   4.047  10.543  0.3025  0.5605  0.5688
 6160TIP3    H139895   0.954   4.077  10.453  0.4323  0.5342  0.5418
 6160TIP3    H239896   0.908   3.971  10.551  1.0202 -0.0508  0.1948
 6161TIP3   OH239897   2.791   1.777   1.522  0.5927 -0.0268  0.1135
 6161TIP3    H139898   2.835   1.762   1.438  0.7165  2.2114 -0.2654
 6161TIP3    H239899   2.806   1.869   1.541 -1.1540  0.0008  1.6045
 6162TIP3   OH239900   2.883   5.403   3.058  0.0447 -0.1371 -0.1413
 6162TIP3    H139901   2.844   5.474   3.109  0.1340 -0.7128  0.7499
 6162TIP3    H239902   2.860   5.324   3.105 -0.2723 -0.7334 -1.2743
 6163TIP3   OH239903   6.535   0.924   3.943  0.0813  0.2699  0.0149
 6163TIP3    H139904   6.568   1.012   3.959  2.2379 -0.9170  3.2861
 6163TIP3    H239905   6.610   0.867   3.960 -1.0107 -2.2306 -2.7296
 6164TIP3   OH239906   0.367   4.242   5.142 -0.1088 -0.0144  0.3441
 6164TIP3    H139907   0.350   4.156   5.182 -1.4210  0.1904  0.2431
 6164TIP3    H239908   0.428   4.222   5.070 -0.6936 -0.9322  0.0758
 6165TIP3   OH239909   0.152   1.683  15.567  0.5919 -0.1173  0.3534
 6165TIP3    H139910   0.084   1.623  15.599 -0.1650  1.5560  2.0904
 6165TIP3    H239911   0.232   1.654  15.612  0.3942 -0.2880  0.5987
 6166TIP3   OH239912   5.975   4.721  15.684  0.2090 -0.0679 -0.6324
 6166TIP3    H139913   5.942   4.639  15.721  0.8594 -0.4425 -0.8742
 6166TIP3    H239914   5.907   4.785  15.705  0.4019 -0.3349  0.9312
 6167TIP3   OH239915   0.634   3.539   5.932  0.2774  0.3185 -0.3248
 6167TIP3    H139916   0.645   3.484   5.855 -1.3178 -0.0986 -0.2868
 6167TIP3    H239917   0.540   3.542   5.947  0.4499  1.5521  0.7821
 6168TIP3   OH239918   5.014   2.912  13.441  0.1490  0.3230  0.1151
 6168TIP3    H139919   4.996   3.002  13.416  0.0041  0.5559  1.0065
 6168TIP3    H239920   5.086   2.918  13.504 -1.6279  0.1232  2.2899
 6169TIP3   OH239921   0.928   2.041   6.479 -0.2146 -0.1900  0.1069
 6169TIP3    H139922   0.977   1.958   6.480 -0.5664 -0.5446  3.7978
 6169TIP3    H239923   0.843   2.017   6.441 -0.0548 -1.3637  0.4301
 6170TIP3   OH239924   3.229   4.227   6.017 -0.3653  0.4472 -0.1804
 6170TIP3    H139925   3.188   4.268   6.093 -1.3801 -0.5452 -0.1467
 6170TIP3    H239926   3.171   4.249   5.944 -0.8312 -0.7269 -0.1890
 6171TIP3   OH239927   5.213   2.631   6.642 -0.4051  0.2466 -0.0324
 6171TIP3    H139928   5.278   2.642   6.573 -0.8476  0.8472 -0.3603
 6171TIP3    H239929   5.224   2.540   6.670  2.7771  1.1735  2.1778
 6172TIP3   OH239930   5.388   5.396  16.998  0.7366  0.0223 -0.2238
 6172TIP3    H139931   5.322   5.365  16.936 -0.5768 -0.6960  1.4349
 6172TIP3    H239932   5.362   5.485  17.019  0.2452 -0.2644  0.4384
 6173TIP3   OH239933   6.185   6.090  17.245 -0.3121  0.5060  0.3950
 6173TIP3    H139934   6.221   6.131  17.166  1.7241 -1.0804  0.4202
 6173TIP3    H239935   6.124   6.025  17.212  0.1892  0.1651  0.1163
 6174TIP3   OH239936   3.406   0.975   4.147  0.9803  0.1920  0.5421
 6174TIP3    H139937   3.412   1.059   4.192  1.5932 -0.5249  1.8510
 6174TIP3    H239938   3.438   0.992   4.059  0.2041  1.5281  0.4949
 6175TIP3   OH239939   2.933   5.476   0.425  0.6282  0.8154  0.8380
 6175TIP3    H139940   2.959   5.445   0.512 -0.0330 -1.4209  0.3074
 6175TIP3    H239941   2.837   5.467   0.424  0.5437  1.6521  0.1659
 6176TIP3   OH239942   1.656   4.739  14.669 -0.1859 -0.0531 -0.1581
 6176TIP3    H139943   1.694   4.802  14.731  0.1700  0.1255 -0.5592
 6176TIP3    H239944   1.723   4.727  14.602 -0.3570 -0.6606 -0.2260
 6177TIP3   OH239945   6.438   1.591  12.190 -0.4059  1.0220 -0.5594
 6177TIP3    H139946   6.442   1.662  12.255  0.6680  0.4376  0.0418
 6177TIP3    H239947   6.352   1.551  12.203  0.6965 -0.6955  2.2960
 6178TIP3   OH239948   1.270   0.645  10.684 -0.1387 -0.4242 -0.2726
 6178TIP3    H139949   1.309   0.558  10.686 -0.6399 -0.6415  0.0585
 6178TIP3    H239950   1.206   0.641  10.613 -0.5505 -0.4956  0.0990
 6179TIP3   OH239951   4.024   4.572   6.096 -0.1366 -0.2658  0.1169
 6179TIP3    H139952   4.007   4.630   6.170  0.7186 -1.7954  1.5856
 6179TIP3    H239953   3.981   4.490   6.118 -0.0693 -0.6866 -1.2058
 6180TIP3   OH239954   3.785   3.616   1.190 -0.1718  0.0770 -0.4947
 6180TIP3    H139955   3.796   3.531   1.233 -0.7824 -0.2956 -1.0445
 6180TIP3    H239956   3.866   3.663   1.208 -0.1571 -0.3166  0.5016
 6181TIP3   OH239957   2.074   4.969   1.301 -0.3521  0.0299 -1.1556
 6181TIP3    H139958   1.995   4.969   1.247  0.2830 -1.1327 -2.1414
 6181TIP3    H239959   2.084   4.878   1.329 -0.4012  0.5242  0.5688
 6182TIP3   OH239960   0.323   3.083  12.462  0.2688 -0.0549  0.2550
 6182TIP3    H139961   0.349   2.994  12.485 -0.7146 -1.1349 -2.4364
 6182TIP3    H239962   0.375   3.104  12.384  1.2694  2.2041  1.4300
 6183TIP3   OH239963   5.498   4.742   4.367 -0.1143 -0.2455  0.0897
 6183TIP3    H139964   5.529   4.672   4.311  2.3476  0.0382  0.9627
 6183TIP3    H239965   5.564   4.749   4.436 -0.7229  2.3295  0.5266
 6184TIP3   OH239966   0.684   3.516   3.309  0.2708 -0.2875 -0.3438
 6184TIP3    H139967   0.604   3.481   3.270 -0.9094  1.5338  0.3145
 6184TIP3    H239968   0.700   3.461   3.385 -0.5319 -0.5046 -0.3212
 6185TIP3   OH239969   6.765   6.170  14.304 -0.7434 -0.4347 -0.2558
 6185TIP3    H139970   6.691   6.138  14.253 -0.0706 -1.9709 -0.3319
 6185TIP3    H239971   6.748   6.263  14.316 -2.5898 -0.7131 -0.4219
 6186TIP3   OH239972   3.883   0.307  10.628 -0.3474  0.3504 -0.1186
 6186TIP3    H139973   3.853   0.391  10.663 -3.4092  0.2032 -1.9747
 6186TIP3    H239974   3.836   0.242  10.680  2.6487 -0.3812  1.8757
 6187TIP3   OH239975   6.658   0.169   2.346  0.1881  0.3558 -0.5267
 6187TIP3    H139976   6.609   0.093   2.314 -1.1334  1.1017 -0.3282
 6187TIP3    H239977   6.747   0.136   2.359 -0.6191 -1.4808  0.7357
 6188TIP3   OH239978   1.637   2.281  16.025  0.1650 -0.0463 -0.0289
 6188TIP3    H139979   1.580   2.324  15.961  0.0259  0.3287  0.3366
 6188TIP3    H239980   1.721   2.271  15.980  1.2107  3.4246  0.7951
 6189TIP3   OH239981   2.662   5.366   1.414  0.5099  0.1133  0.4369
 6189TIP3    H139982   2.590   5.318   1.456  2.7070 -4.0826 -0.0659
 6189TIP3    H239983   2.619   5.427   1.355 -2.6039 -0.7825  1.5840
 6190TIP3   OH239984   5.426   3.317  14.568  0.5754 -0.4360  0.3373
 6190TIP3    H139985   5.471   3.395  14.535  1.4552 -0.6862  0.9217
 6190TIP3    H239986   5.434   3.253  14.497  1.9463 -0.7747  0.7569
 6191TIP3   OH239987   1.543   1.991  12.611  0.3473  0.1615  0.1094
 6191TIP3    H139988   1.625   1.986  12.562  0.5635 -0.3646  0.5229
 6191TIP3    H239989   1.554   2.067  12.669 -0.7975  2.2694 -2.2421
 6192TIP3   OH239990   4.719   6.770   0.558  0.6664 -0.2195 -0.5409
 6192TIP3    H139991   4.720   6.859   0.524  2.0905 -0.2016 -0.4905
 6192TIP3    H239992   4.793   6.766   0.618  0.3626 -1.3195 -0.2124
 6193TIP3   OH239993   1.034   0.451  17.171  0.1439  0.5139  0.4867
 6193TIP3    H139994   0.998   0.394  17.103  0.5976  0.5452  0.2158
 6193TIP3    H239995   1.121   0.474  17.139  0.0630  1.1583  0.7071
 6194TIP3   OH239996   2.849   3.522   1.068  0.2883  0.0347 -0.8593
 6194TIP3    H139997   2.802   3.475   1.137  0.1277  0.0934 -0.9285
 6194TIP3    H239998   2.940   3.523   1.098  0.0506  0.9912 -0.1271
 6195TIP3   OH239999   2.229   1.303   4.711 -0.0714  0.2646 -0.2033
 6195TIP3    H140000   2.244   1.216   4.748  0.5732  0.6718  0.5324
 6195TIP3    H240001   2.152   1.293   4.655  0.0392 -0.7903 -0.1814
 6196TIP3   OH240002   5.359   3.333  14.830  0.2474 -0.2596  0.2700
 6196TIP3    H140003   5.376   3.313  14.738  3.2118  0.9018  0.4638
 6196TIP3    H240004   5.314   3.256  14.864  0.3346 -1.2831 -1.8163
 6197TIP3   OH240005   1.708   2.556   4.249  0.5851 -0.7340 -0.0124
 6197TIP3    H140006   1.638   2.511   4.295 -1.4303  1.7610 -0.3879
 6197TIP3    H240007   1.783   2.554   4.309 -0.8560 -0.6498  1.8500
 6198TIP3   OH240008   4.563   4.195   0.191  0.4661  0.2353  0.1770
 6198TIP3    H140009   4.560   4.203   0.096 -0.1071  0.7966  0.2375
 6198TIP3    H240010   4.474   4.217   0.220  0.8709  0.9665  0.9004
 6199TIP3   OH240011   5.081   4.031   3.206 -0.4148  0.9901 -0.1122
 6199TIP3    H140012   5.011   4.096   3.205 -0.2367  1.2034  0.7331
 6199TIP3    H240013   5.035   3.948   3.219 -0.5044  1.1598  0.7364
 6200TIP3   OH240014   4.958   0.901  12.284  0.1713 -0.2421  0.4215
 6200TIP3    H140015   5.018   0.826  12.278 -0.1614 -0.4118 -0.9616
 6200TIP3    H240016   5.015   0.976  12.298  0.6080 -0.5793  0.4705
 6201TIP3   OH240017   0.756   2.456  11.911 -0.2509 -0.1098 -0.0255
 6201TIP3    H140018   0.851   2.460  11.900 -0.0859 -1.1393  0.8488
 6201TIP3    H240019   0.737   2.364  11.928 -1.2893  0.2163  0.7579
 6202TIP3   OH240020   0.208   3.006  15.996 -0.1825 -0.1956  0.2592
 6202TIP3    H140021   0.286   3.045  15.958  0.2901 -0.1081  1.2997
 6202TIP3    H240022   0.238   2.923  16.034  0.3317  1.5739  4.1755
 6203TIP3   OH240023   1.698   0.199  15.757  0.1541 -0.2950 -0.0784
 6203TIP3    H140024   1.715   0.232  15.845 -0.5284 -0.0680 -0.0228
 6203TIP3    H240025   1.760   0.245  15.701  0.6004 -0.4504  0.2798
 6204TIP3   OH240026   2.750   2.839   6.156 -0.1528 -0.1005  0.5432
 6204TIP3    H140027   2.803   2.776   6.204  0.0185  0.7007  1.4200
 6204TIP3    H240028   2.765   2.922   6.200 -0.5310  0.5278 -0.4729
 6205TIP3   OH240029   0.137   6.672   1.455 -0.1978  0.2709 -0.0375
 6205TIP3    H140030   0.186   6.643   1.379 -1.1789 -0.3139 -0.4708
 6205TIP3    H240031   0.172   6.621   1.528 -1.6666 -1.8755 -0.7247
 6206TIP3   OH240032   5.512   1.670  15.710 -0.3745 -0.3795  0.1218
 6206TIP3    H140033   5.540   1.755  15.744 -0.9614 -0.1132 -0.0333
 6206TIP3    H240034   5.459   1.691  15.633 -1.2163 -0.8256  0.5536
 6207TIP3   OH240035   3.875   0.406  16.797 -0.2189 -0.1577  0.0683
 6207TIP3    H140036   3.824   0.469  16.847  0.0334 -0.7425  1.0978
 6207TIP3    H240037   3.850   0.321  16.833 -1.0853 -0.7363 -1.7672
 6208TIP3   OH240038   5.115   5.292   3.150  0.3962 -0.4468 -0.4592
 6208TIP3    H140039   5.134   5.374   3.196  1.3080 -0.3753 -0.9293
 6208TIP3    H240040   5.146   5.308   3.061 -1.0730 -0.6834 -1.0432
 6209TIP3   OH240041   1.982   4.577  16.824 -0.3018 -0.1402 -0.1571
 6209TIP3    H140042   1.993   4.483  16.815 -1.7959 -0.4536  0.8591
 6209TIP3    H240043   2.049   4.615  16.768  2.7725 -1.7433  2.1625
 6210TIP3   OH240044   0.983   5.755  11.270 -0.0461 -0.1070 -0.1099
 6210TIP3    H140045   1.033   5.680  11.238 -1.9824 -1.1922 -0.7738
 6210TIP3    H240046   0.962   5.805  11.191  0.1365  0.4246  0.1765
 6211TIP3   OH240047   4.466   4.604  15.353 -0.0319 -0.1751 -0.0659
 6211TIP3    H140048   4.491   4.615  15.261  1.3390  0.9040  0.4023
 6211TIP3    H240049   4.496   4.515  15.375  1.8208  0.4169 -0.0395
 6212TIP3   OH240050   0.659   0.727  12.796  0.0591  0.0691 -0.6519
 6212TIP3    H140051   0.691   0.816  12.811  2.0363 -0.2836 -2.2329
 6212TIP3    H240052   0.652   0.721  12.701 -0.5083 -1.3230 -0.5353
 6213TIP3   OH240053   0.194   2.115  14.004 -0.5115  0.3400  0.0757
 6213TIP3    H140054   0.289   2.122  13.997 -0.3762  0.0335  1.3519
 6213TIP3    H240055   0.162   2.205  13.998 -0.1821  0.4185 -0.6671
 6214TIP3   OH240056   3.302   6.480  16.194  0.3622 -0.2386  0.0581
 6214TIP3    H140057   3.283   6.493  16.101 -1.5081  1.2003  0.5736
 6214TIP3    H240058   3.233   6.422  16.225  0.8293 -0.5132  0.6060
 6215TIP3   OH240059   3.107   1.729  10.675  0.6000  0.4128  0.4013
 6215TIP3    H140060   3.048   1.659  10.704  0.5803 -0.1148 -0.8743
 6215TIP3    H240061   3.077   1.806  10.723  0.0820 -0.2555  1.1882
 6216TIP3   OH240062   1.883   2.239  16.653  0.1890  0.1029 -0.1668
 6216TIP3    H140063   1.799   2.197  16.633 -0.8509  1.6492  0.7533
 6216TIP3    H240064   1.949   2.176  16.623 -1.2817 -1.6192  0.0493
 6217TIP3   OH240065   4.942   3.513   3.170  0.3665  0.0657 -0.0523
 6217TIP3    H140066   5.001   3.556   3.108  1.3209 -0.1412  0.6838
 6217TIP3    H240067   4.907   3.438   3.122 -0.8587  1.3026 -1.1503
 6218TIP3   OH240068   5.124   1.834  16.359  0.1733  0.6620 -0.3526
 6218TIP3    H140069   5.129   1.848  16.265  0.5080  0.5986 -0.3461
 6218TIP3    H240070   5.033   1.809  16.375 -0.1024  1.5440 -0.5307
 6219TIP3   OH240071   5.917   1.635  11.198 -0.3803 -0.2682 -0.2337
 6219TIP3    H140072   5.986   1.701  11.208 -0.8610  0.0310  1.3745
 6219TIP3    H240073   5.917   1.588  11.281  0.5924 -2.9781 -1.6694
 6220TIP3   OH240074   0.453   5.777   4.494  0.2197  0.0076 -0.2157
 6220TIP3    H140075   0.400   5.853   4.521  0.4677 -0.0178  0.3700
 6220TIP3    H240076   0.456   5.722   4.572 -0.9666 -1.2084 -0.9909
 6221TIP3   OH240077   1.920   5.059   6.134 -0.1463  0.4521  0.2562
 6221TIP3    H140078   1.902   5.104   6.217 -0.2752  0.6339  0.1291
 6221TIP3    H240079   1.901   4.967   6.152  2.8030 -0.0517  1.3768
 6222TIP3   OH240080   4.919   2.854   1.640  0.2534 -0.7011  0.4707
 6222TIP3    H140081   4.916   2.940   1.598  0.3305 -0.9681 -0.1022
 6222TIP3    H240082   4.839   2.850   1.692  1.4023  0.6737  2.4975
 6223TIP3   OH240083   0.067   5.983   2.923 -0.1399 -0.1146  0.8779
 6223TIP3    H140084   0.008   5.996   2.997  0.0886  1.5094  0.8305
 6223TIP3    H240085   0.140   6.043   2.940  0.7277 -0.9236  0.1495
 6224TIP3   OH240086   5.066   2.720  11.689 -0.3223  0.2051 -0.1604
 6224TIP3    H140087   5.156   2.689  11.696 -0.0075  1.2401  0.8024
 6224TIP3    H240088   5.064   2.773  11.610 -0.8648 -2.1060 -1.8254
 6225TIP3   OH240089   2.771   2.332   4.350 -0.5267  0.3159 -0.1270
 6225TIP3    H140090   2.816   2.393   4.408  0.2177  0.2063 -0.5842
 6225TIP3    H240091   2.797   2.245   4.381 -1.4896  0.2101  0.4471
 6226TIP3   OH240092   0.156   5.181  10.609 -0.0904 -0.0136  0.0959
 6226TIP3    H140093   0.212   5.115  10.651 -0.4064  0.2656  0.9926
 6226TIP3    H240094   0.212   5.257  10.597 -0.5660  0.7984  2.3449
 6227TIP3   OH240095   5.485   4.691   3.646  0.2295 -0.3132 -0.2142
 6227TIP3    H140096   5.404   4.664   3.603  0.4772 -2.2263  0.4490
 6227TIP3    H240097   5.456   4.727   3.730 -0.0884  1.4374 -1.0326
 6228TIP3   OH240098   0.009   5.648  10.472  0.4135  0.3584 -0.0212
 6228TIP3    H140099   0.026   5.638  10.565  1.6766  3.0500  0.1384
 6228TIP3    H240100  -0.079   5.684  10.467  0.6085  0.8805  0.2050
 6229TIP3   OH240101   2.282   1.042  15.323 -0.5185  0.0960  0.7636
 6229TIP3    H140102   2.269   1.127  15.282  0.7279  0.1876  0.5383
 6229TIP3    H240103   2.291   0.981  15.250 -1.4100 -0.2516  0.9246
 6230TIP3   OH240104   2.635   0.889   5.968  0.4504 -0.0789 -0.1456
 6230TIP3    H140105   2.628   0.904   6.062 -0.3704  0.6687 -0.3079
 6230TIP3    H240106   2.695   0.815   5.959  0.8356  0.0943  0.9425
 6231TIP3   OH240107   6.393   2.690   1.463  0.1907 -0.0335  0.2621
 6231TIP3    H140108   6.360   2.772   1.426  1.1117 -0.0774 -0.6919
 6231TIP3    H240109   6.464   2.717   1.521 -0.1367 -0.0942  0.6961
 6232TIP3   OH240110   6.195   2.219   1.330  0.0405 -0.2946  0.2617
 6232TIP3    H140111   6.135   2.164   1.381 -0.4127 -0.9995 -0.9879
 6232TIP3    H240112   6.240   2.272   1.395 -1.5177 -0.1674  1.2900
 6233TIP3   OH240113   5.313   5.683   4.056  0.0759  0.4096  0.0750
 6233TIP3    H140114   5.353   5.611   4.008 -0.5680  0.2275 -0.2046
 6233TIP3    H240115   5.305   5.650   4.146 -0.7531 -0.1059 -0.1752
 6234TIP3   OH240116   1.602   4.072  13.505 -0.5707  0.2463 -0.0598
 6234TIP3    H140117   1.686   4.028  13.517 -0.2319  1.0405  0.5905
 6234TIP3    H240118   1.537   4.007  13.531 -0.2831 -0.9305 -2.0562
 6235TIP3   OH240119   4.901   2.312   0.561  0.4366  0.0635  0.3910
 6235TIP3    H140120   4.949   2.249   0.614  0.8810 -1.0602 -1.2544
 6235TIP3    H240121   4.831   2.260   0.520  0.2421  0.8384 -0.2854
 6236TIP3   OH240122   2.200   0.256  13.321  0.1411  0.1813  0.5096
 6236TIP3    H140123   2.165   0.343  13.338 -1.0841 -0.3224  0.6438
 6236TIP3    H240124   2.191   0.245  13.226 -0.7626 -0.2271  0.6341
 6237TIP3   OH240125   4.642   5.200  16.047  0.0970 -0.2163 -0.5365
 6237TIP3    H140126   4.617   5.229  16.135  1.3949  0.2716 -0.3122
 6237TIP3    H240127   4.582   5.246  15.989  0.4465  0.9321 -0.0161
 6238TIP3   OH240128   0.228   4.999   0.940 -0.6322  0.0245 -0.3325
 6238TIP3    H140129   0.154   4.938   0.946  0.3514 -1.1180  0.6056
 6238TIP3    H240130   0.208   5.052   0.863 -1.6935 -1.2426 -0.9841
 6239TIP3   OH240131   2.845   6.440  15.832  0.2377 -0.5985  0.4102
 6239TIP3    H140132   2.789   6.377  15.786 -0.6088 -1.2534  2.2486
 6239TIP3    H240133   2.850   6.515  15.773  1.5351 -2.4317 -2.0060
 6240TIP3   OH240134   3.960   2.809   5.027 -0.4614 -0.1338 -0.1842
 6240TIP3    H140135   3.977   2.847   4.942 -2.4529  1.9341  0.2450
 6240TIP3    H240136   3.927   2.721   5.008 -2.0045  0.7112 -1.6917
 6241TIP3   OH240137   4.712   6.697  11.755 -0.1182 -0.4616  0.1536
 6241TIP3    H140138   4.776   6.649  11.703  1.0077 -1.6430  2.4633
 6241TIP3    H240139   4.757   6.777  11.783  0.3991 -1.2277  1.6641
 6242TIP3   OH240140   3.829   0.645  14.073  0.5097  0.0988 -0.3508
 6242TIP3    H140141   3.851   0.738  14.084  0.2620  0.1408 -0.2011
 6242TIP3    H240142   3.858   0.603  14.154 -1.6338  0.4681  0.6921
 6243TIP3   OH240143   2.617   2.166  14.599 -0.5653  0.0377  0.3388
 6243TIP3    H140144   2.527   2.146  14.627 -0.5434 -0.7751 -0.1726
 6243TIP3    H240145   2.612   2.171  14.504  0.2711 -1.7466  0.1758
 6244TIP3   OH240146   6.029   0.475   2.172  0.1952 -0.1272 -0.0344
 6244TIP3    H140147   5.938   0.473   2.201 -0.1912  1.7107 -0.9630
 6244TIP3    H240148   6.080   0.474   2.253 -0.5126 -2.9697  0.4823
 6245TIP3   OH240149   5.865   1.921  12.456  1.0047 -0.5142 -0.3045
 6245TIP3    H140150   5.861   1.826  12.440 -0.4479 -0.8698  1.6861
 6245TIP3    H240151   5.810   1.960  12.389  0.1760 -1.2719 -0.0779
 6246TIP3   OH240152   1.721   0.773  13.158  0.1336 -0.1798 -0.7767
 6246TIP3    H140153   1.662   0.747  13.229 -1.3751  1.0254 -1.5182
 6246TIP3    H240154   1.690   0.723  13.082  0.7200 -0.2861 -0.9493
 6247TIP3   OH240155   0.035   5.846  14.834  0.1179  0.2076  0.4121
 6247TIP3    H140156  -0.058   5.848  14.856 -0.5494 -1.5016 -1.8866
 6247TIP3    H240157   0.074   5.916  14.888 -1.9346 -0.8531  3.5220
 6248TIP3   OH240158   0.743   0.972  12.971  0.1347  0.0742 -0.4779
 6248TIP3    H140159   0.654   1.005  12.971  1.0587  2.8450  0.4091
 6248TIP3    H240160   0.779   0.998  12.887 -0.4228 -2.9690 -1.7911
 6249TIP3   OH240161   2.200   0.782  15.839  0.5844  0.1535  0.4735
 6249TIP3    H140162   2.114   0.743  15.856  0.9698 -0.7786  0.3551
 6249TIP3    H240163   2.187   0.836  15.762  0.4545 -1.2748 -0.5504
 6250TIP3   OH240164   0.981   5.690  16.713 -0.6989 -0.1823 -0.8445
 6250TIP3    H140165   1.050   5.637  16.753 -2.1617 -0.7727  1.0112
 6250TIP3    H240166   0.899   5.650  16.741 -1.8623  2.0205 -0.8169
 6251TIP3   OH240167   3.875   3.598  11.320 -0.0808 -0.2390 -0.0942
 6251TIP3    H140168   3.815   3.540  11.366  0.6827 -0.1706  1.0387
 6251TIP3    H240169   3.962   3.558  11.335  0.3547  0.7198 -0.0073
 6252TIP3   OH240170   5.473   2.534   4.346  0.4953 -0.1272 -0.0171
 6252TIP3    H140171   5.415   2.465   4.378  0.2423  0.8939  1.8702
 6252TIP3    H240172   5.561   2.499   4.358  0.3496 -0.5766 -0.2130
 6253TIP3   OH240173   4.309   6.149  15.393 -0.1112 -0.5505  0.1314
 6253TIP3    H140174   4.268   6.088  15.331  2.0048 -0.1209 -1.8309
 6253TIP3    H240175   4.268   6.233  15.373  1.0148 -0.2842 -1.2324
 6254TIP3   OH240176   0.954   3.114  16.050 -0.1868  0.2327 -0.2357
 6254TIP3    H140177   1.017   3.128  16.120 -0.2021 -2.3332  0.3760
 6254TIP3    H240178   0.884   3.177  16.068 -0.5852 -0.8557  2.5875
 6255TIP3   OH240179   0.130   5.507   1.497 -0.0628  0.0641 -0.0973
 6255TIP3    H140180   0.137   5.441   1.566 -0.6168 -0.4090 -0.4788
 6255TIP3    H240181   0.129   5.456   1.415  0.8973  0.6345 -0.4798
 6256TIP3   OH240182   2.285   1.766   2.073  0.1664 -0.0697  0.5526
 6256TIP3    H140183   2.314   1.736   1.987 -0.8648  0.3253  0.0462
 6256TIP3    H240184   2.366   1.782   2.122  0.7568 -0.6198 -0.2255
 6257TIP3   OH240185   1.240   4.180  14.311  0.0172  0.0268  0.3222
 6257TIP3    H140186   1.145   4.178  14.320  0.0037 -0.8018  0.1112
 6257TIP3    H240187   1.271   4.233  14.385 -0.5329 -0.6162  1.0211
 6258TIP3   OH240188   6.125   5.650   1.959 -0.5963  0.5100 -0.0624
 6258TIP3    H140189   6.112   5.693   2.044  1.4151  1.2429 -0.0826
 6258TIP3    H240190   6.040   5.658   1.915 -1.8701 -0.3903  2.0559
 6259TIP3   OH240191   4.753   0.165  15.726  0.1049 -0.3607  0.4839
 6259TIP3    H140192   4.836   0.205  15.701  0.7213 -2.0138 -0.2789
 6259TIP3    H240193   4.706   0.152  15.644 -0.6293 -0.0598  0.8432
 6260TIP3   OH240194   2.977   2.146   4.640 -0.1401 -0.6342  0.0655
 6260TIP3    H140195   2.959   2.089   4.566 -0.4411  1.1761 -1.3263
 6260TIP3    H240196   2.895   2.193   4.655  0.9633  1.8645 -1.0917
 6261TIP3   OH240197   3.848   5.192  12.563 -0.0682 -0.1024 -0.8780
 6261TIP3    H140198   3.791   5.121  12.590 -2.2364  1.3211 -1.3937
 6261TIP3    H240199   3.818   5.214  12.475 -1.8988  3.5767  0.4424
 6262TIP3   OH240200   0.476   1.607   6.297  0.0248 -0.3069  0.3059
 6262TIP3    H140201   0.511   1.519   6.313 -1.1519 -0.7685  0.3974
 6262TIP3    H240202   0.554   1.662   6.288  0.8304 -1.5923 -1.1976
 6263TIP3   OH240203   2.735   0.643  13.813 -0.3005 -0.1291 -0.6903
 6263TIP3    H140204   2.826   0.670  13.825 -0.2037  0.2674 -2.2309
 6263TIP3    H240205   2.694   0.661  13.898  0.5985  1.5069 -0.5596
 6264TIP3   OH240206   2.910   2.954  14.473  0.0720 -0.2450  0.2251
 6264TIP3    H140207   2.968   2.878  14.474 -0.3535 -0.5767  0.8870
 6264TIP3    H240208   2.827   2.921  14.508 -0.1712  0.4763  0.3442
 6265TIP3   OH240209   4.697   6.305  16.030 -0.1235 -0.3916  0.0673
 6265TIP3    H140210   4.666   6.228  16.078  0.3629 -1.5606 -1.4087
 6265TIP3    H240211   4.660   6.379  16.078  1.1793 -1.3789  2.8746
 6266TIP3   OH240212   3.983   0.174   1.073  0.1959  0.0267  0.4618
 6266TIP3    H140213   4.075   0.194   1.058 -0.0067  0.9803  0.4414
 6266TIP3    H240214   3.953   0.240   1.135 -0.1973 -0.9693  1.3638
 6267TIP3   OH240215   4.385   4.849  16.243  0.1904 -0.2411  0.0288
 6267TIP3    H140216   4.362   4.834  16.151 -0.2454 -0.7350  0.2168
 6267TIP3    H240217   4.303   4.838  16.291  0.2724  0.7040  0.4143
 6268TIP3   OH240218   0.347   1.468   3.321 -0.3867 -0.0917 -0.0659
 6268TIP3    H140219   0.346   1.375   3.297 -1.7160 -0.2333  0.4778
 6268TIP3    H240220   0.383   1.469   3.410 -3.6617 -0.5358  1.4201
 6269TIP3   OH240221   3.882   1.007  12.645  0.4141 -0.7445 -0.1873
 6269TIP3    H140222   3.790   0.991  12.664 -0.4084  2.3219 -1.0240
 6269TIP3    H240223   3.894   0.976  12.556  0.0009 -0.5877 -0.2999
 6270TIP3   OH240224   3.920   1.314   0.828  0.1266  0.1540 -0.0755
 6270TIP3    H140225   3.929   1.409   0.837  1.6342  0.1438 -1.0306
 6270TIP3    H240226   3.845   1.302   0.771  0.0720  0.7838 -0.1454
 6271TIP3   OH240227   0.297   5.654   0.554 -0.1188  0.1869 -0.1167
 6271TIP3    H140228   0.338   5.706   0.485  0.6562 -0.2666 -0.0105
 6271TIP3    H240229   0.272   5.718   0.621  2.4682  0.3267  0.8516
 6272TIP3   OH240230   1.663   2.513   3.598  0.0335 -0.6592 -0.4280
 6272TIP3    H140231   1.734   2.538   3.657 -0.5869  0.6834 -0.2057
 6272TIP3    H240232   1.618   2.441   3.643 -1.3924  1.3377  1.5821
 6273TIP3   OH240233   3.900   4.651  16.931 -0.3494  0.6315 -0.1392
 6273TIP3    H140234   3.843   4.602  16.872 -0.3222 -0.0339  0.3713
 6273TIP3    H240235   3.863   4.635  17.018  2.1213 -2.0882  0.5742
 6274TIP3   OH240236   2.386   0.688   5.633 -0.0734 -0.3054 -0.2426
 6274TIP3    H140237   2.357   0.602   5.663  1.1220 -0.4116  0.6932
 6274TIP3    H240238   2.379   0.744   5.710  2.8686 -0.5448  0.3171
 6275TIP3   OH240239   2.014   4.437   5.602  0.5395  0.0532 -0.1882
 6275TIP3    H140240   2.011   4.508   5.538 -1.3923  0.0639 -0.1320
 6275TIP3    H240241   2.036   4.359   5.550 -1.5391 -0.0315 -1.0042
 6276TIP3   OH240242   1.276   2.072   6.365 -0.4855 -0.0498 -0.0336
 6276TIP3    H140243   1.257   1.979   6.370 -0.5613 -0.1526 -1.5748
 6276TIP3    H240244   1.363   2.077   6.325 -1.5196  0.5255 -2.4054
 6277TIP3   OH240245   4.179   0.794  10.097  0.2316  0.1381  0.4179
 6277TIP3    H140246   4.130   0.874  10.075  0.1543 -0.0028  0.0742
 6277TIP3    H240247   4.114   0.737  10.137  0.7270  1.0462  2.6463
 6278TIP3   OH240248   6.721   4.412  13.076  0.4576  0.3935 -0.7374
 6278TIP3    H140249   6.748   4.491  13.123 -0.8578  0.5169 -0.1386
 6278TIP3    H240250   6.676   4.445  12.998 -0.6065  0.2782 -0.1952
 6279TIP3   OH240251   4.875   5.942   5.897  0.6195  0.4340 -0.4125
 6279TIP3    H140252   4.866   5.849   5.915 -1.0099  0.7681  0.7113
 6279TIP3    H240253   4.940   5.973   5.959 -0.2981  0.3902  0.5962
 6280TIP3   OH240254   5.302   0.755  14.742 -0.2697  0.0056 -0.1269
 6280TIP3    H140255   5.288   0.850  14.737  1.6282  0.3568  0.6067
 6280TIP3    H240256   5.352   0.734  14.663  1.8359  0.1595  1.0912
 6281TIP3   OH240257   0.193   5.060  14.234  0.0167  0.2303  0.0184
 6281TIP3    H140258   0.154   5.016  14.309  1.4241 -0.5886  0.2962
 6281TIP3    H240259   0.191   5.153  14.258 -3.6557  0.5297 -0.8886
 6282TIP3   OH240260   1.162   4.721  16.345 -0.6398 -0.2184  0.0620
 6282TIP3    H140261   1.125   4.757  16.264 -2.4551 -0.5380  0.7060
 6282TIP3    H240262   1.118   4.638  16.356  0.6954 -0.8776  0.6294
 6283TIP3   OH240263   2.560   1.710   1.405  0.5597  0.5058 -0.2912
 6283TIP3    H140264   2.622   1.715   1.478  0.7473  0.2569 -0.4337
 6283TIP3    H240265   2.600   1.762   1.336 -0.4910  2.3328  0.4060
 6284TIP3   OH240266   5.532   1.120  14.385 -0.2192 -0.6341  0.0172
 6284TIP3    H140267   5.464   1.165  14.334  0.7549 -1.0136 -1.7051
 6284TIP3    H240268   5.545   1.175  14.462 -1.0227  0.5452 -0.6539
 6285TIP3   OH240269   6.313   3.260   4.850 -0.4847  0.4509  0.2280
 6285TIP3    H140270   6.363   3.227   4.775 -0.9099  0.3404 -0.0067
 6285TIP3    H240271   6.286   3.348   4.824  1.2342  1.2988  1.1211
 6286TIP3   OH240272   3.679   2.397  15.783  0.6138  0.2659  0.4739
 6286TIP3    H140273   3.756   2.443  15.816 -0.1130  0.2367  2.2980
 6286TIP3    H240274   3.625   2.381  15.860 -1.2514  0.2930 -0.7534
 6287TIP3   OH240275   3.187   2.906   1.981 -0.2894  0.1895  0.2025
 6287TIP3    H140276   3.261   2.958   2.012  1.3737 -1.2586 -1.1509
 6287TIP3    H240277   3.153   2.956   1.907 -0.1024  0.4434  0.2861
 6288TIP3   OH240278   6.545   4.459   6.119 -0.0066 -0.1471 -0.3142
 6288TIP3    H140279   6.632   4.419   6.121 -0.3903 -1.1479 -1.7907
 6288TIP3    H240280   6.494   4.409   6.182  0.7408  1.2304  1.4937
 6289TIP3   OH240281   5.857   1.849  13.884 -0.4612  0.2584  0.2311
 6289TIP3    H140282   5.946   1.868  13.914 -0.2700  0.6195 -0.5101
 6289TIP3    H240283   5.843   1.757  13.907 -0.2880  0.4803  1.2755
 6290TIP3   OH240284   1.978   1.168   3.748 -0.5365 -0.6256  0.5003
 6290TIP3    H140285   2.042   1.102   3.721 -0.5620 -0.1912 -0.6736
 6290TIP3    H240286   2.014   1.251   3.716 -1.4314 -0.3086  0.2869
 6291TIP3   OH240287   4.172   0.046  13.108  0.0223 -0.1828 -0.4287
 6291TIP3    H140288   4.183  -0.011  13.032  0.4661 -0.5230 -0.1191
 6291TIP3    H240289   4.245   0.108  13.102 -0.4690  0.3796 -0.7755
 6292TIP3   OH240290   5.983   3.801   0.406  0.9109  0.3132  0.1923
 6292TIP3    H140291   6.054   3.744   0.436  0.8246 -0.1501 -0.4658
 6292TIP3    H240292   5.967   3.860   0.480 -1.9039 -3.1829  2.6800
 6293TIP3   OH240293   1.544   5.716   2.155  0.0144 -0.1539 -0.2536
 6293TIP3    H140294   1.578   5.793   2.199  0.3021 -0.8192  0.7292
 6293TIP3    H240295   1.457   5.741   2.125  0.4012  0.7822 -0.6245
 6294TIP3   OH240296   3.342   4.426  11.249  0.2156  0.5378  0.5658
 6294TIP3    H140297   3.266   4.370  11.233  0.6639 -0.4838  1.8312
 6294TIP3    H240298   3.307   4.514  11.254 -0.9302  0.0654  1.3089
 6295TIP3   OH240299   0.734   6.549   2.235 -0.0677 -0.0070 -1.2693
 6295TIP3    H140300   0.703   6.461   2.256  0.7677  0.2763  1.6158
 6295TIP3    H240301   0.666   6.607   2.268  0.9002  0.4500  0.0601
 6296TIP3   OH240302   6.464   0.336  15.631  0.2142  0.2999  0.3092
 6296TIP3    H140303   6.453   0.352  15.724 -0.9960  0.2635  0.1836
 6296TIP3    H240304   6.504   0.249  15.626 -1.2732 -0.4304  0.7635
 6297TIP3   OH240305   1.972   5.704  12.816 -0.6832 -0.6866  0.3142
 6297TIP3    H140306   1.915   5.704  12.739  0.5410 -1.0140 -0.6201
 6297TIP3    H240307   1.925   5.758  12.880 -1.5722 -0.1162 -0.7714
 6298TIP3   OH240308   6.106   0.496   5.724 -0.0995  0.2573 -0.0564
 6298TIP3    H140309   6.195   0.481   5.691  0.0269  0.3923  0.2167
 6298TIP3    H240310   6.113   0.480   5.819 -0.5660 -0.6104 -0.1588
 6299TIP3   OH240311   1.249   2.385   4.208 -0.0612  0.1750  0.0016
 6299TIP3    H140312   1.281   2.429   4.129  0.7065 -0.8314 -0.2681
 6299TIP3    H240313   1.197   2.451   4.253  0.8230  1.2536 -0.5330
 6300TIP3   OH240314   2.260   3.818   3.852  0.4334 -0.4578  0.1056
 6300TIP3    H140315   2.233   3.878   3.782  1.7880 -0.5477 -0.5215
 6300TIP3    H240316   2.224   3.733   3.826 -0.6286 -0.1423  0.4788
 6301TIP3   OH240317   0.346   5.586  16.455  0.0222 -0.2748  0.6781
 6301TIP3    H140318   0.396   5.601  16.536 -0.5933 -0.7141  1.1504
 6301TIP3    H240319   0.297   5.506  16.472  0.7449 -1.0149 -0.5687
 6302TIP3   OH240320   3.709   2.088  13.810  0.1452 -0.0876 -0.2225
 6302TIP3    H140321   3.733   2.002  13.844  1.2195  0.2667 -0.0729
 6302TIP3    H240322   3.791   2.127  13.781 -0.1185  1.4135  0.9181
 6303TIP3   OH240323   4.786   2.028   2.330  0.1461  0.2146 -0.0307
 6303TIP3    H140324   4.761   2.080   2.254 -4.3232  0.2160  1.1042
 6303TIP3    H240325   4.795   1.939   2.296  0.2997  0.5394 -0.8634
 6304TIP3   OH240326   2.289   0.744  10.952  0.0910 -0.4715 -0.0987
 6304TIP3    H140327   2.381   0.772  10.954  0.4325 -1.1542 -2.4711
 6304TIP3    H240328   2.247   0.793  11.022  2.0544  0.6619  0.3614
 6305TIP3   OH240329   4.375   0.782  15.007 -0.2919 -0.4952  0.1171
 6305TIP3    H140330   4.364   0.838  14.930 -1.0781  1.8781  1.8210
 6305TIP3    H240331   4.297   0.726  15.007  0.6371 -1.8810 -1.7689
 6306TIP3   OH240332   0.809   2.879  13.860 -0.1001  0.4688 -0.0674
 6306TIP3    H140333   0.887   2.863  13.914 -0.2950 -1.3241 -0.2503
 6306TIP3    H240334   0.778   2.965  13.887  0.9114  0.4311  1.3054
 6307TIP3   OH240335   5.950   4.806   4.850  0.2236 -0.2001  0.7825
 6307TIP3    H140336   5.902   4.805   4.933 -2.1457  0.5383 -0.4583
 6307TIP3    H240337   5.989   4.893   4.846  0.8479 -0.4438  1.3516
 6308TIP3   OH240338   3.852   2.899   5.993 -0.1799 -0.1745  0.0490
 6308TIP3    H140339   3.945   2.883   6.011 -0.0420 -0.4378 -0.8219
 6308TIP3    H240340   3.814   2.921   6.078  1.0069  1.6125  0.1696
 6309TIP3   OH240341   2.981   3.601  14.344  0.3765  0.2365 -0.1726
 6309TIP3    H140342   3.047   3.531  14.348 -0.4107 -0.6821 -1.8583
 6309TIP3    H240343   2.925   3.576  14.270 -2.2480  0.6587  1.5413
 6310TIP3   OH240344   6.152   2.570   5.774 -0.1196 -0.2972  0.5378
 6310TIP3    H140345   6.233   2.569   5.724  0.9434 -0.6122  2.1946
 6310TIP3    H240346   6.174   2.618   5.855 -1.0896 -1.8271  1.7597
 6311TIP3   OH240347   2.759   1.419  16.718 -0.1608  0.3260 -0.3696
 6311TIP3    H140348   2.735   1.455  16.632  2.9836 -0.8374 -1.8955
 6311TIP3    H240349   2.758   1.494  16.777  0.8245  1.8712 -2.2063
 6312TIP3   OH240350   3.825   5.009   4.851 -0.3439 -0.4531  0.3436
 6312TIP3    H140351   3.739   5.050   4.863 -0.1181  0.0405  0.2861
 6312TIP3    H240352   3.825   4.936   4.913 -0.1376  0.5940  1.6183
 6313TIP3   OH240353   2.999   3.558  12.176  0.6270  0.1671  0.2710
 6313TIP3    H140354   2.960   3.500  12.111  1.7626  0.1728 -0.4555
 6313TIP3    H240355   2.928   3.580  12.236  0.2163 -2.1570  0.6995
 6314TIP3   OH240356   3.672   2.952   0.119 -0.1463 -0.4640 -0.0692
 6314TIP3    H140357   3.656   3.035   0.164 -3.0947  0.0711 -1.8349
 6314TIP3    H240358   3.698   2.977   0.030  0.9562 -1.4666 -0.0525
 6315TIP3   OH240359   5.738   2.188   2.599  0.5647  0.7029 -0.0160
 6315TIP3    H140360   5.773   2.218   2.683  0.5825  0.2420  0.1441
 6315TIP3    H240361   5.783   2.242   2.534  1.4724  0.2265  0.1967
 6316TIP3   OH240362   2.109   6.314  13.965  0.0411  0.1902  0.7343
 6316TIP3    H140363   2.039   6.256  13.996 -0.1748  0.1811  0.2481
 6316TIP3    H240364   2.071   6.401  13.967 -0.6705 -0.0155 -1.3495
 6317TIP3   OH240365   0.659   4.538   0.138  0.2429 -0.4196 -0.1361
 6317TIP3    H140366   0.614   4.607   0.187  0.6093 -1.9686  2.5867
 6317TIP3    H240367   0.750   4.567   0.133 -0.1936  0.8142 -2.0677
 6318TIP3   OH240368   1.397   5.724   2.879 -0.0748 -0.1915 -0.1055
 6318TIP3    H140369   1.383   5.665   2.954  1.1582 -2.3262 -1.4327
 6318TIP3    H240370   1.435   5.803   2.917 -2.9317  0.3885  1.9099
 6319TIP3   OH240371   0.419   4.040  12.523  0.0421 -0.3582 -0.8842
 6319TIP3    H140372   0.362   3.980  12.571  1.7985 -1.7809 -0.4745
 6319TIP3    H240373   0.407   4.124  12.567 -0.4417 -1.0293  0.3054
 6320TIP3   OH240374   0.378   3.119   6.019  0.2929  0.0068 -0.4896
 6320TIP3    H140375   0.286   3.137   5.999 -0.4778 -3.0164 -0.2871
 6320TIP3    H240376   0.421   3.112   5.934  0.0530  0.2472 -0.6314
 6321TIP3   OH240377   6.314   5.754  13.665  0.6506  0.0984 -0.1315
 6321TIP3    H140378   6.256   5.828  13.645 -1.0977 -1.4097 -0.8967
 6321TIP3    H240379   6.365   5.784  13.740  1.3354  2.7545 -1.5340
 6322TIP3   OH240380   6.187   5.624  12.749  0.0320 -0.2029  0.2807
 6322TIP3    H140381   6.273   5.633  12.790  0.5437 -0.9610 -0.5819
 6322TIP3    H240382   6.206   5.606  12.657 -1.0675  0.5890 -0.1299
 6323TIP3   OH240383   4.662   2.433  13.736 -0.6009 -0.2187 -0.9065
 6323TIP3    H140384   4.582   2.387  13.762  0.0153 -1.5783 -1.3087
 6323TIP3    H240385   4.710   2.448  13.818 -0.9251 -0.0627 -0.7454
 6324TIP3   OH240386   5.700   0.258   0.411  0.1462  0.0048  0.4088
 6324TIP3    H140387   5.761   0.185   0.416 -0.1679 -0.2364  0.8381
 6324TIP3    H240388   5.629   0.234   0.471  0.7596  1.3207  1.7253
 6325TIP3   OH240389   6.687   4.633   4.458 -0.3459  0.2160  0.1821
 6325TIP3    H140390   6.732   4.672   4.532 -0.3214  0.2125  0.1692
 6325TIP3    H240391   6.660   4.546   4.488 -1.3582  0.6514  0.5761
 6326TIP3   OH240392   4.523   1.240  13.076  0.1247  0.0672 -0.1916
 6326TIP3    H140393   4.431   1.215  13.070  0.1099 -0.3174  1.2858
 6326TIP3    H240394   4.554   1.240  12.985 -1.0448 -0.8745 -0.6087
 6327TIP3   OH240395   3.553   4.510  14.489  0.4471  0.1618  0.0646
 6327TIP3    H140396   3.571   4.501  14.396  3.3131 -0.0763  0.5632
 6327TIP3    H240397   3.635   4.543  14.527 -0.8985  1.0962  2.3874
 6328TIP3   OH240398   4.994   6.316   5.600 -0.1255  0.5042  0.1469
 6328TIP3    H140399   5.009   6.273   5.685  1.7492 -1.3422 -1.0118
 6328TIP3    H240400   4.908   6.286   5.573  0.8135 -2.0895 -0.2678
 6329TIP3   OH240401   0.733   1.675   2.758  0.1409 -0.1029  0.1645
 6329TIP3    H140402   0.764   1.750   2.708 -0.9555 -0.4751 -1.1492
 6329TIP3    H240403   0.677   1.713   2.826  1.4988  0.3957  1.0381
 6330TIP3   OH240404   0.324   6.022   1.800 -0.2316  0.2340  0.2853
 6330TIP3    H140405   0.235   5.995   1.820 -0.4866  0.7074 -0.1899
 6330TIP3    H240406   0.316   6.079   1.723  0.4103  0.7682  0.6018
 6331TIP3   OH240407   4.620   0.070   0.168 -0.1899  0.1701  0.1465
 6331TIP3    H140408   4.669   0.143   0.205 -0.4853 -0.0338  0.9478
 6331TIP3    H240409   4.670   0.045   0.090 -0.3629  1.5407 -0.4330
 6332TIP3   OH240410   1.328   3.266  11.921  0.5153 -0.3656  0.2736
 6332TIP3    H140411   1.236   3.269  11.949  0.8509  0.7906  1.3410
 6332TIP3    H240412   1.370   3.337  11.969  2.0358 -1.0425 -0.0003
 6333TIP3   OH240413   6.023   5.734  10.990  0.0328 -0.2997 -0.3148
 6333TIP3    H140414   6.020   5.827  10.966 -1.3362 -0.1548  0.3031
 6333TIP3    H240415   6.085   5.695  10.929  0.6580  1.0304 -0.5646
 6334TIP3   OH240416   0.458   0.147  15.863 -0.1417  0.7924 -0.0532
 6334TIP3    H140417   0.437   0.184  15.777 -0.4999  0.1323 -0.2603
 6334TIP3    H240418   0.393   0.185  15.922 -1.1948 -0.3016 -0.4652
 6335TIP3   OH240419   4.778   6.582   1.019  0.9803 -0.2826 -0.5013
 6335TIP3    H140420   4.824   6.500   1.036  1.4991 -0.2569 -1.6865
 6335TIP3    H240421   4.711   6.558   0.955  1.4250  0.2822 -1.1982
 6336TIP3   OH240422   3.086   6.212   6.215 -0.4712 -0.1738  0.1954
 6336TIP3    H140423   3.025   6.253   6.276 -0.2084  0.6601 -0.1014
 6336TIP3    H240424   3.156   6.275   6.204  0.3538 -1.0360  0.3622
 6337TIP3   OH240425   4.153   1.605   2.352  0.2722  0.1254 -0.0261
 6337TIP3    H140426   4.168   1.602   2.258 -1.1981 -0.4793 -0.2618
 6337TIP3    H240427   4.234   1.570   2.390  1.0818  0.8599 -1.0262
 6338TIP3   OH240428   3.009   4.793  13.147  0.2570 -0.5709  0.1247
 6338TIP3    H140429   2.993   4.875  13.194  0.9155  0.1194 -0.8261
 6338TIP3    H240430   2.973   4.808  13.060 -1.2810 -1.9666  0.4714
 6339TIP3   OH240431   0.540   1.968   1.924 -0.0115  0.0445  0.3457
 6339TIP3    H140432   0.534   2.034   1.855  0.7669 -0.8771 -0.6142
 6339TIP3    H240433   0.597   1.900   1.889 -0.7113 -1.1113  1.3548
 6340TIP3   OH240434   5.106   0.606   0.268  0.0752 -0.3736  0.0604
 6340TIP3    H140435   5.154   0.530   0.302  1.1193 -0.0162 -0.5697
 6340TIP3    H240436   5.164   0.680   0.283 -0.8483  0.2860  0.4841
 6341TIP3   OH240437   3.014   2.688  12.033 -0.8519 -0.8463 -0.1889
 6341TIP3    H140438   3.098   2.733  12.021 -1.3047  0.3865  0.9473
 6341TIP3    H240439   3.031   2.598  12.005  1.2284 -0.9732  1.2050
 6342TIP3   OH240440   0.232   2.624   0.984  0.3848  0.3479 -0.5045
 6342TIP3    H140441   0.150   2.602   1.027  0.3912 -0.2820 -0.8071
 6342TIP3    H240442   0.268   2.540   0.955  0.8207  0.6766 -0.9428
 6343TIP3   OH240443   3.386   2.721   3.478 -0.0178 -1.0622  0.0173
 6343TIP3    H140444   3.330   2.758   3.547 -0.8696  0.1592 -1.2759
 6343TIP3    H240445   3.459   2.681   3.526  0.5234  1.5174  1.5872
 6344TIP3   OH240446   6.005   3.598  13.897 -0.2049 -0.0928  0.2081
 6344TIP3    H140447   5.966   3.521  13.939 -0.2441  0.3094  0.9335
 6344TIP3    H240448   5.944   3.669  13.917  0.2633  0.2955  0.2784
 6345TIP3   OH240449   2.254   2.827   0.356 -0.5229  0.3435 -0.2980
 6345TIP3    H140450   2.160   2.812   0.347 -0.3623 -0.2620 -1.0307
 6345TIP3    H240451   2.291   2.739   0.368  0.1244  0.3981 -1.7436
 6346TIP3   OH240452   3.547   4.694   2.045 -0.2434 -0.2756 -0.2145
 6346TIP3    H140453   3.561   4.615   1.992 -0.7862  0.0846 -0.9140
 6346TIP3    H240454   3.613   4.755   2.013  1.0560 -0.8630  1.2388
 6347TIP3   OH240455   3.591   5.629   2.946 -0.3397  0.6282  0.1558
 6347TIP3    H140456   3.543   5.698   2.991  0.6369  0.1789  1.9649
 6347TIP3    H240457   3.627   5.574   3.016  0.3024 -0.7697 -1.1903
 6348TIP3   OH240458   2.025   4.404  12.956 -0.1293  0.3933 -0.3851
 6348TIP3    H140459   1.971   4.354  12.894  0.4972 -0.0453 -0.5866
 6348TIP3    H240460   2.107   4.354  12.962  0.6862  1.6342 -0.9373
 6349TIP3   OH240461   2.781   6.054   5.038  0.1247 -0.1307  0.5119
 6349TIP3    H140462   2.812   6.060   5.128 -1.8554  0.5094  1.2224
 6349TIP3    H240463   2.737   5.968   5.034  0.0733 -0.0915  0.2154
 6350TIP3   OH240464   1.861   2.623  16.382  0.1184  0.8156  0.2284
 6350TIP3    H140465   1.866   2.566  16.459 -0.8601 -0.5169 -0.6443
 6350TIP3    H240466   1.949   2.619  16.345  0.2162  0.3122  0.4904
 6351TIP3   OH240467   6.648   0.267   3.140 -0.2340 -0.7938  0.1487
 6351TIP3    H140468   6.707   0.200   3.175  2.1991  1.5608  0.9337
 6351TIP3    H240469   6.584   0.282   3.209 -0.5195 -1.9269  0.1507
 6352TIP3   OH240470   5.499   6.689   6.162 -0.2665  0.2168  0.0343
 6352TIP3    H140471   5.581   6.738   6.170  0.3092 -0.6551 -0.2876
 6352TIP3    H240472   5.495   6.635   6.241 -1.1734  1.1682  0.6531
 6353TIP3   OH240473   5.952   3.755   1.377  0.0699  0.0135 -0.2990
 6353TIP3    H140474   6.030   3.734   1.429 -0.3160 -1.3414 -0.2524
 6353TIP3    H240475   5.887   3.782   1.443 -0.1329 -0.8197 -0.1540
 6354TIP3   OH240476   1.917   0.174   2.149 -0.4584  0.3960  0.5098
 6354TIP3    H140477   1.904   0.098   2.206 -1.8322  0.6899  0.6152
 6354TIP3    H240478   1.906   0.140   2.061 -1.8152  0.5810  0.5842
 6355TIP3   OH240479   6.176   4.283   0.850  0.2302 -0.3569  0.3062
 6355TIP3    H140480   6.258   4.331   0.859 -0.0718  0.7769 -2.0687
 6355TIP3    H240481   6.202   4.193   0.832  0.8898 -0.4118  1.4799
 6356TIP3   OH240482   4.303   4.800   4.721  0.3121  0.3751 -0.1610
 6356TIP3    H140483   4.242   4.806   4.647  0.2667 -2.4596 -0.4927
 6356TIP3    H240484   4.248   4.814   4.798 -0.6342 -1.1890 -0.5073
 6357TIP3   OH240485   5.201   2.922   1.999 -0.3796 -0.0251 -0.4388
 6357TIP3    H140486   5.219   2.916   2.093 -2.8907 -2.6241  0.0110
 6357TIP3    H240487   5.174   3.012   1.985  0.7799  0.6218  1.1349
 6358TIP3   OH240488   0.341   4.865   3.283  0.3341 -0.1256 -0.5341
 6358TIP3    H140489   0.410   4.804   3.258  1.2242  0.7759 -0.3438
 6358TIP3    H240490   0.361   4.945   3.234  0.6965  0.8626  1.1405
 6359TIP3   OH240491   5.745   6.673  13.159 -0.0255  0.2585  0.3541
 6359TIP3    H140492   5.674   6.731  13.130  0.6234  0.4206 -1.0012
 6359TIP3    H240493   5.781   6.716  13.236 -1.7644 -0.1295  1.4329
 6360TIP3   OH240494   1.695   0.876   4.413  0.2732 -0.3046 -0.3024
 6360TIP3    H140495   1.680   0.911   4.325  1.4270  1.5885  0.1990
 6360TIP3    H240496   1.764   0.811   4.401  0.8812  0.3953 -0.7469
 6361TIP3   OH240497   6.600   4.878   2.664 -0.2585  0.0286 -0.4915
 6361TIP3    H140498   6.511   4.907   2.645 -1.2482 -1.9154  0.8067
 6361TIP3    H240499   6.604   4.875   2.760  0.6670 -1.3666 -0.5423
 6362TIP3   OH240500   3.998   4.189  15.835  0.0423  0.2267 -0.1403
 6362TIP3    H140501   3.960   4.147  15.912 -0.2347 -0.4798 -0.6526
 6362TIP3    H240502   3.965   4.138  15.761  0.1338  1.0193 -0.7437
 6363TIP3   OH240503   1.618   0.750  13.563 -0.0004 -0.4045  0.1388
 6363TIP3    H140504   1.606   0.746  13.468 -0.8331  0.1731  0.2163
 6363TIP3    H240505   1.643   0.661  13.587  0.8249 -0.4218 -0.6963
 6364TIP3   OH240506   2.348   2.081   1.514 -0.0248  0.1365 -0.7390
 6364TIP3    H140507   2.423   2.137   1.531  0.0918  0.8931 -3.2954
 6364TIP3    H240508   2.374   2.029   1.438 -1.8483 -0.0530 -1.2740
 6365TIP3   OH240509   5.068   5.610  16.789  0.4317  0.6789 -0.2808
 6365TIP3    H140510   4.997   5.665  16.754 -0.5359 -0.4843 -0.2142
 6365TIP3    H240511   5.143   5.630  16.734 -0.4921  0.4742 -1.6800
 6366TIP3   OH240512   3.374   1.739  15.175  0.2844 -0.4437  0.4669
 6366TIP3    H140513   3.431   1.775  15.244 -0.9762 -0.1527  1.3906
 6366TIP3    H240514   3.397   1.646  15.172 -0.3751 -0.6939  2.0631
 6367TIP3   OH240515   6.183   5.324   3.730 -0.5465  0.1765 -0.0123
 6367TIP3    H140516   6.112   5.265   3.758 -0.4982 -0.0916 -0.4575
 6367TIP3    H240517   6.236   5.272   3.670 -0.0629  0.4313  0.1905
 6368TIP3   OH240518   5.157   0.924   0.532  0.0464 -0.2519 -0.5450
 6368TIP3    H140519   5.166   0.829   0.535 -2.6636 -0.5722 -0.1016
 6368TIP3    H240520   5.175   0.953   0.622 -0.9060 -0.5615 -0.2513
 6369TIP3   OH240521   3.394   2.001  13.182  0.0843 -0.6794 -0.4130
 6369TIP3    H140522   3.443   1.942  13.241  0.0459 -0.3933 -0.0962
 6369TIP3    H240523   3.337   2.051  13.240  0.3377 -0.1089 -0.6483
 6370TIP3   OH240524   3.402   4.285   2.748  0.0503 -0.3889 -0.1152
 6370TIP3    H140525   3.363   4.350   2.807  1.1828 -0.7552  1.1065
 6370TIP3    H240526   3.446   4.337   2.681  0.5320  0.1258  0.5715
 6371TIP3   OH240527   6.009   5.638  14.779 -0.8783 -0.1700  0.5117
 6371TIP3    H140528   5.938   5.644  14.842  0.2026  2.0387  1.6285
 6371TIP3    H240529   6.085   5.612  14.831 -0.4032 -0.3428 -0.2546
 6372TIP3   OH240530   1.847   4.337  11.226  0.0508  0.6174 -0.5222
 6372TIP3    H140531   1.860   4.251  11.187  0.2706  0.5782 -0.3711
 6372TIP3    H240532   1.909   4.394  11.179 -0.8209  0.9179 -1.3286
 6373TIP3   OH240533   0.057   2.173  17.287 -0.7536  0.1763 -0.3412
 6373TIP3    H140534   0.017   2.177  17.374 -1.7341 -0.2741 -0.7658
 6373TIP3    H240535   0.047   2.261  17.251  0.0488  0.4871  0.1568
 6374TIP3   OH240536   0.499   4.386  16.418 -0.2220 -0.0261  0.4127
 6374TIP3    H140537   0.556   4.387  16.341  0.1952  2.7240  0.6710
 6374TIP3    H240538   0.558   4.366  16.491  0.1060  0.9256  0.4305
 6375TIP3   OH240539   3.067   2.286  13.104  0.3034 -0.7356  0.1077
 6375TIP3    H140540   3.125   2.226  13.151 -0.1066 -0.7621  0.5955
 6375TIP3    H240541   3.059   2.362  13.162 -0.6994 -1.0323  0.3774
 6376TIP3   OH240542   3.920   5.242  14.060 -0.0545 -0.6527  0.0913
 6376TIP3    H140543   3.980   5.307  14.098  0.1628 -0.5826 -0.3706
 6376TIP3    H240544   3.867   5.212  14.135 -0.5263  0.4468  0.2228
 6377TIP3   OH240545   5.832   3.057   0.109 -0.1345 -0.5865 -0.9023
 6377TIP3    H140546   5.789   3.032   0.191 -0.1360 -0.5263 -0.8855
 6377TIP3    H240547   5.917   3.091   0.136 -1.0940  1.8575 -0.7167
 6378TIP3   OH240548   4.143   4.161   0.696  0.5036 -0.2320  0.0097
 6378TIP3    H140549   4.070   4.202   0.650 -0.1205 -0.1854  1.0081
 6378TIP3    H240550   4.102   4.115   0.769  1.5097  0.0888  0.7949
 6379TIP3   OH240551   2.936   4.558   1.302 -0.5551  0.5766 -0.3350
 6379TIP3    H140552   2.938   4.576   1.208  0.7684  0.6033 -0.3271
 6379TIP3    H240553   2.845   4.535   1.321 -0.9453  1.0969 -1.5198
 6380TIP3   OH240554   4.603   2.068  14.088 -0.0376  0.3482  0.0988
 6380TIP3    H140555   4.614   1.990  14.143  0.9443 -1.5699 -2.6180
 6380TIP3    H240556   4.657   2.135  14.130 -0.3758 -0.5798  2.1388
 6381TIP3   OH240557   6.624   5.651   5.637  0.1540  0.2806 -0.3012
 6381TIP3    H140558   6.713   5.617   5.629 -0.8056 -2.1823 -1.2469
 6381TIP3    H240559   6.600   5.678   5.549 -0.4637 -0.2067 -0.2861
 6382TIP3   OH240560   1.350   2.881  12.136  0.2600  0.1703 -0.2872
 6382TIP3    H140561   1.326   2.964  12.176 -0.6080 -0.6151  0.8711
 6382TIP3    H240562   1.339   2.896  12.042 -1.1663  0.9687 -0.0148
 6383TIP3   OH240563   5.852   5.081   3.143  0.3691  0.2572 -0.2959
 6383TIP3    H140564   5.924   5.142   3.156 -1.5814  2.3730  1.4324
 6383TIP3    H240565   5.837   5.042   3.230 -1.5573  1.1057 -0.1939
 6384TIP3   OH240566   2.560   0.693  14.013 -0.3471  0.4916 -0.5543
 6384TIP3    H140567   2.530   0.781  14.038  1.8771  1.3632 -0.6544
 6384TIP3    H240568   2.575   0.649  14.097 -1.5207  0.1723 -0.5039
 6385TIP3   OH240569   5.328   2.170  11.199 -0.0055  0.3570 -0.6028
 6385TIP3    H140570   5.252   2.167  11.258 -1.8532 -3.0981 -2.8228
 6385TIP3    H240571   5.314   2.248  11.146 -2.0051 -0.1179 -0.8525
 6386TIP3   OH240572   6.022   0.028   4.328  0.1906 -0.2150  0.2756
 6386TIP3    H140573   5.997  -0.036   4.262 -0.1000 -0.6627  0.8127
 6386TIP3    H240574   6.056  -0.024   4.401 -0.1921  0.2240  0.7807
 6387TIP3   OH240575   3.882   3.038   1.332 -0.0005  0.1991  0.0285
 6387TIP3    H140576   3.792   3.060   1.306  0.4659  1.0771 -0.8667
 6387TIP3    H240577   3.932   3.041   1.251  1.2664  1.8460  0.8276
 6388TIP3   OH240578   6.272   5.702  17.102 -0.0421  0.6573  0.4503
 6388TIP3    H140579   6.283   5.797  17.104  1.2616  0.5130  1.0677
 6388TIP3    H240580   6.330   5.669  17.171 -2.2382 -0.4349  1.8890
 6389TIP3   OH240581   1.560   4.086  15.764  0.3284 -0.4888  0.0075
 6389TIP3    H140582   1.636   4.113  15.817  1.2187 -0.7601 -1.0983
 6389TIP3    H240583   1.485   4.128  15.807  1.0669 -0.4052  1.2624
 6390TIP3   OH240584   3.160   1.603   1.161  0.5630 -0.2295 -0.1519
 6390TIP3    H140585   3.132   1.583   1.071  0.9327  1.4697 -0.6769
 6390TIP3    H240586   3.237   1.659   1.150  0.5277  0.1107  1.2275
 6391TIP3   OH240587   1.619   3.133  15.042  0.5179 -0.6721 -0.1190
 6391TIP3    H140588   1.672   3.171  15.112  1.8724 -0.1804 -1.3503
 6391TIP3    H240589   1.537   3.182  15.045  0.6089 -0.5518  0.9984
 6392TIP3   OH240590   4.394   2.728   3.721  0.3424  0.6737  0.0960
 6392TIP3    H140591   4.433   2.728   3.633  2.0038  0.2530  0.8130
 6392TIP3    H240592   4.460   2.768   3.777  0.2892 -1.1694  1.5623
 6393TIP3   OH240593   4.945   3.412   2.019 -0.1467 -0.1327 -0.2509
 6393TIP3    H140594   4.855   3.440   2.033  0.3789  1.4139  0.3139
 6393TIP3    H240595   4.941   3.352   1.945 -1.5558  0.3824 -0.6187
 6394TIP3   OH240596   4.055   6.436  13.659  0.2907 -0.4803  0.2911
 6394TIP3    H140597   4.102   6.517  13.680  0.2955 -0.4357  0.1076
 6394TIP3    H240598   3.966   6.463  13.637 -0.1694 -0.6709  1.8035
 6395TIP3   OH240599   5.006   5.720   2.571  0.1090 -0.3027 -0.2657
 6395TIP3    H140600   5.095   5.739   2.540  0.1952 -1.0566 -0.5014
 6395TIP3    H240601   5.010   5.733   2.665  0.0199  1.3674 -0.4718
 6396TIP3   OH240602   4.784   3.049  15.695  0.0616 -0.3349  0.0602
 6396TIP3    H140603   4.827   3.002  15.767 -1.9995 -0.1070  1.5411
 6396TIP3    H240604   4.803   2.997  15.617  1.6025 -1.1080  0.9105
 6397TIP3   OH240605   5.343   0.912   2.425  0.3834  0.4618 -0.2612
 6397TIP3    H140606   5.262   0.862   2.429  0.9619 -0.6847 -1.6192
 6397TIP3    H240607   5.412   0.848   2.445  0.9407  1.6179  1.8244
 6398TIP3   OH240608   0.158   1.452  11.519 -0.4546 -0.7502 -0.0958
 6398TIP3    H140609   0.120   1.365  11.533  0.5422 -1.0989  0.5626
 6398TIP3    H240610   0.120   1.506  11.588 -1.2046 -0.6062 -0.6071
 6399TIP3   OH240611   3.112   5.086  11.494 -0.3006 -0.3585 -0.1790
 6399TIP3    H140612   3.108   5.096  11.399 -0.1304 -0.1920 -0.1708
 6399TIP3    H240613   3.194   5.040  11.510 -0.0338  0.1441 -0.0760
 6400TIP3   OH240614   3.915   1.242  11.074  0.3110  0.3356 -0.2506
 6400TIP3    H140615   3.935   1.227  10.982 -0.1776  1.0936 -0.4939
 6400TIP3    H240616   3.879   1.331  11.077 -0.8886 -0.1388  0.4815
 6401TIP3   OH240617   0.670   2.234   5.447  0.0911 -0.4800  0.6028
 6401TIP3    H140618   0.700   2.178   5.519  0.1315  0.9160  1.7255
 6401TIP3    H240619   0.575   2.223   5.447  0.2779 -2.9556 -1.3022
 6402TIP3   OH240620   3.997   4.307   1.921  0.1257  0.4207  0.1148
 6402TIP3    H140621   4.058   4.338   1.854 -0.2717 -1.8569 -1.4219
 6402TIP3    H240622   4.024   4.351   2.001  3.1503  0.2705 -0.7251
 6403TIP3   OH240623   5.634   3.798   0.002  0.6115 -0.4050 -0.3188
 6403TIP3    H140624   5.662   3.771   0.090  1.2194  2.6833  0.5286
 6403TIP3    H240625   5.538   3.790   0.005  0.4545  1.3936  1.3325
 6404TIP3   OH240626   0.955   0.041  11.620 -0.1952 -0.3758  0.0571
 6404TIP3    H140627   0.910   0.087  11.550  0.3295 -0.2342 -0.1891
 6404TIP3    H240628   0.901  -0.038  11.636 -1.8399  0.9293  1.3783
 6405TIP3   OH240629   2.452   6.547   5.385 -0.2850 -0.3593 -0.2158
 6405TIP3    H140630   2.544   6.521   5.392 -0.7968 -2.2981 -0.0496
 6405TIP3    H240631   2.452   6.618   5.321  1.5473  1.1363  1.3131
 6406TIP3   OH240632   2.799   0.067   4.956 -0.2008  0.3416  0.6701
 6406TIP3    H140633   2.866   0.116   4.909 -1.0668  0.2744 -0.6829
 6406TIP3    H240634   2.785   0.118   5.037  0.2393  1.3031  0.1604
 6407TIP3   OH240635   1.209   1.017   5.584  0.0524  0.3072  0.2710
 6407TIP3    H140636   1.300   1.015   5.613 -0.1001  0.1098  0.7580
 6407TIP3    H240637   1.164   0.955   5.642 -0.2111 -0.3491 -0.6165
 6408TIP3   OH240638   0.580   4.686   1.140  0.2165 -0.2034  0.0053
 6408TIP3    H140639   0.552   4.694   1.231 -1.0638  0.7098 -0.4313
 6408TIP3    H240640   0.669   4.721   1.138 -0.2301  1.0361  0.6882
 6409TIP3   OH240641   5.828   0.584  12.872  0.1800  0.0599  0.1398
 6409TIP3    H140642   5.898   0.519  12.871  0.2249  0.0479 -2.0374
 6409TIP3    H240643   5.872   0.668  12.859  0.0730  0.5250  2.4015
 6410TIP3   OH240644   3.861   6.713   3.252 -0.1391  0.3109  0.3979
 6410TIP3    H140645   3.779   6.757   3.232  0.2639  1.6277  1.5057
 6410TIP3    H240646   3.839   6.650   3.321 -0.4114 -0.0594 -0.0285
 6411TIP3   OH240647   4.641   2.880  15.023  0.1357  0.3854  0.5514
 6411TIP3    H140648   4.572   2.934  14.985  0.2832  1.7871  2.1485
 6411TIP3    H240649   4.595   2.801  15.053 -0.3881  0.3585 -0.2823
 6412TIP3   OH240650   6.206   4.349   6.919 -0.3117 -0.5375  0.1594
 6412TIP3    H140651   6.301   4.357   6.914 -0.3499 -0.5498 -1.2566
 6412TIP3    H240652   6.179   4.337   6.828 -1.7815  0.8610  0.3513
 6413TIP3   OH240653   1.209   1.165   2.074 -0.3594 -0.0690 -0.3032
 6413TIP3    H140654   1.271   1.094   2.054  2.4834  1.5484  1.9414
 6413TIP3    H240655   1.206   1.217   1.994  2.5870  0.6352 -0.0983
 6414TIP3   OH240656   2.842   6.700  13.230  0.2757 -0.2240 -0.3979
 6414TIP3    H140657   2.936   6.693  13.244  0.3371  1.4983  0.3307
 6414TIP3    H240658   2.831   6.782  13.183 -0.9005 -0.0972  0.0622
 6415TIP3   OH240659   5.557   1.020   1.100 -0.6076 -0.5516 -0.3883
 6415TIP3    H140660   5.643   1.029   1.060  0.2487 -0.9257  1.2813
 6415TIP3    H240661   5.498   1.069   1.042  0.9045  0.6726 -0.9631
 6416TIP3   OH240662   2.239   1.783   0.622 -0.0832 -0.1848 -0.1829
 6416TIP3    H140663   2.266   1.743   0.705 -3.3841 -0.9708  0.6398
 6416TIP3    H240664   2.245   1.877   0.637  0.9725 -0.3138  0.3207
 6417TIP3   OH240665   3.985   3.403   3.136 -0.3362  0.5041  0.2446
 6417TIP3    H140666   3.983   3.498   3.120  1.0226  0.8489  1.8428
 6417TIP3    H240667   4.077   3.383   3.146 -0.6328 -0.9755  0.1360
 6418TIP3   OH240668   0.175   5.858   1.105  0.4711  0.0948  0.2678
 6418TIP3    H140669   0.085   5.879   1.078  0.4956 -1.1908 -0.9125
 6418TIP3    H240670   0.169   5.845   1.199 -0.7444 -0.6462  0.1186
 6419TIP3   OH240671   4.498   1.892   1.208  0.0274 -0.2979 -0.8984
 6419TIP3    H140672   4.449   1.821   1.165 -1.8806  0.1112  0.4952
 6419TIP3    H240673   4.461   1.898   1.295  2.4960  0.2010  0.2025
 6420TIP3   OH240674   5.929   5.127  11.182 -0.4849 -0.3065  0.1595
 6420TIP3    H140675   5.896   5.038  11.170  0.2604 -0.5748  0.0266
 6420TIP3    H240676   5.990   5.119  11.256 -0.8475  0.2093  0.5158
 6421TIP3   OH240677   1.355   5.083  16.719  0.3672  0.4807 -0.4512
 6421TIP3    H140678   1.338   5.036  16.800 -1.3887 -0.6528 -1.3865
 6421TIP3    H240679   1.338   5.019  16.650  2.3464  1.2417 -1.7304
 6422TIP3   OH240680   4.528   1.675  15.226  0.3576  0.1047  0.5669
 6422TIP3    H140681   4.561   1.705  15.311 -0.0190  0.7451  0.4959
 6422TIP3    H240682   4.446   1.724  15.214  0.8098  0.6266 -0.5259
 6423TIP3   OH240683   1.021   4.904  14.737  0.0573  0.2878 -0.5400
 6423TIP3    H140684   0.974   4.985  14.758 -0.6189 -0.2849  0.2889
 6423TIP3    H240685   1.002   4.847  14.812  1.5809 -0.1899 -0.4971
 6424TIP3   OH240686   1.650   0.668  14.548 -0.1168 -0.3102 -0.3194
 6424TIP3    H140687   1.675   0.757  14.570  0.1506 -0.5238  0.2555
 6424TIP3    H240688   1.680   0.656  14.458  1.0377 -0.2577  0.0533
 6425TIP3   OH240689   6.762   3.624  13.324  0.2467 -0.1991  0.0860
 6425TIP3    H140690   6.717   3.624  13.240 -1.4081 -0.6947  0.9398
 6425TIP3    H240691   6.792   3.534  13.337 -1.3709 -0.6404  0.9612
 6426TIP3   OH240692   0.591   6.444   5.166  0.0926 -0.1017  0.1725
 6426TIP3    H140693   0.685   6.430   5.166  0.1236 -0.0835 -1.4850
 6426TIP3    H240694   0.581   6.539   5.157 -0.0207 -0.2942 -2.4941
 6427TIP3   OH240695   1.415   2.555   2.842  0.0644  0.0492  0.0972
 6427TIP3    H140696   1.335   2.506   2.859  0.9173 -1.9337 -1.2420
 6427TIP3    H240697   1.389   2.623   2.779 -0.8439  0.3821  0.8190
 6428TIP3   OH240698   3.642   4.491  13.686  0.3215 -0.0754  0.4684
 6428TIP3    H140699   3.666   4.578  13.718  0.5137 -0.3940  1.2211
 6428TIP3    H240700   3.600   4.507  13.602  1.2084  0.6747  0.1423
 6429TIP3   OH240701   4.851   4.212  17.240  0.5195  1.0326 -0.1192
 6429TIP3    H140702   4.755   4.216  17.236  0.5129  0.7909 -0.2130
 6429TIP3    H240703   4.871   4.223  17.333  0.3641  0.3758 -0.0034
 6430TIP3   OH240704   6.696   1.008  15.038 -0.1065  0.2980 -0.5503
 6430TIP3    H140705   6.783   0.969  15.041  0.1072  0.8311  1.0471
 6430TIP3    H240706   6.703   1.075  14.969 -0.0017 -1.2831 -2.1327
 6431TIP3   OH240707   4.728   0.288   4.541 -0.0405 -0.2308 -0.0131
 6431TIP3    H140708   4.683   0.310   4.460  0.6182 -0.9941 -0.6100
 6431TIP3    H240709   4.761   0.199   4.526  1.0886  0.0620  0.6516
 6432TIP3   OH240710   1.801   1.620   5.254 -0.3218  0.0436  0.6319
 6432TIP3    H140711   1.855   1.688   5.293  0.6075 -0.6373  0.5725
 6432TIP3    H240712   1.814   1.543   5.310 -0.9565 -0.2294  0.4175
 6433TIP3   OH240713   2.407   2.101  12.471  0.5862 -0.4749  0.3816
 6433TIP3    H140714   2.367   2.189  12.472  0.4139 -0.5572  0.8529
 6433TIP3    H240715   2.494   2.114  12.508  0.9193 -0.3410 -0.4143
 6434TIP3   OH240716   1.486   6.195   1.798 -0.1622 -0.2399 -0.4884
 6434TIP3    H140717   1.463   6.120   1.852  0.7526 -0.4541 -0.3823
 6434TIP3    H240718   1.409   6.210   1.743  0.1945 -2.2404 -1.6303
 6435TIP3   OH240719   0.557   5.974  14.138  0.3482  0.3658  0.1117
 6435TIP3    H140720   0.647   6.004  14.152  0.6897 -0.7636  0.4311
 6435TIP3    H240721   0.505   6.025  14.200  0.6809  1.4652 -0.5055
 6436TIP3   OH240722   3.982   4.299   5.382 -0.1489 -0.0830  0.5298
 6436TIP3    H140723   3.920   4.266   5.317  2.1556  1.4944 -2.7601
 6436TIP3    H240724   3.953   4.388   5.401  0.0460 -0.0101  0.4873
 6437TIP3   OH240725   6.756   2.991   5.453  0.0983  0.2236 -0.3244
 6437TIP3    H140726   6.815   2.948   5.391 -0.0233  0.8499 -0.8802
 6437TIP3    H240727   6.675   2.940   5.448  0.5547 -0.6135  0.4128
 6438TIP3   OH240728   2.992   6.586   6.094 -0.8631  0.1784  0.3353
 6438TIP3    H140729   2.951   6.630   6.020 -1.3759  0.0702  0.5527
 6438TIP3    H240730   2.921   6.570   6.156 -0.7462 -1.1835  0.1499
 6439TIP3   OH240731   1.489   1.583   5.999  0.3020  0.0166  0.4544
 6439TIP3    H140732   1.463   1.628   6.079 -2.7959 -0.8291  0.0788
 6439TIP3    H240733   1.487   1.651   5.931 -2.3343 -0.1451  0.2553
 6440TIP3   OH240734   5.951   3.085   2.131 -0.0563  0.1843  0.0915
 6440TIP3    H140735   5.896   3.031   2.075  0.8109  0.5585 -1.1914
 6440TIP3    H240736   5.895   3.159   2.157 -0.5147 -0.0705 -0.1677
 6441TIP3   OH240737   1.687   1.698  13.539 -0.5586  0.1238  0.4345
 6441TIP3    H140738   1.767   1.683  13.589 -0.0802 -0.4704 -0.4883
 6441TIP3    H240739   1.665   1.790  13.557 -0.4778 -0.1090  1.8146
 6442TIP3   OH240740   4.888   1.185   5.872 -0.2222  0.3740  0.0919
 6442TIP3    H140741   4.799   1.175   5.906 -0.7451  0.6813 -1.1223
 6442TIP3    H240742   4.903   1.107   5.820  0.4284  0.0793  0.7109
 6443TIP3   OH240743   2.518   6.683   5.684  0.2862 -0.1197  0.6491
 6443TIP3    H140744   2.457   6.628   5.636  0.4668  0.6426 -0.4778
 6443TIP3    H240745   2.473   6.702   5.767 -1.4896  1.2673 -0.5586
 6444TIP3   OH240746   0.806   0.873   0.008  0.0283  0.3051  0.2209
 6444TIP3    H140747   0.868   0.801   0.002  1.1940  1.1348  1.6497
 6444TIP3    H240748   0.815   0.919  -0.075 -1.2696 -1.5367 -1.0326
 6445TIP3   OH240749   0.931   6.678   2.092  0.1571  0.0384 -0.6338
 6445TIP3    H140750   0.882   6.630   2.158  0.8152  0.7949  0.4529
 6445TIP3    H240751   0.938   6.767   2.128 -0.1851  0.6952 -2.1234
 6446TIP3   OH240752   6.386   1.131  13.449 -0.3747  0.5478  0.2431
 6446TIP3    H140753   6.299   1.167  13.432 -1.2767 -1.8525 -0.6613
 6446TIP3    H240754   6.398   1.064  13.382  2.0733  0.6014  0.5375
 6447TIP3   OH240755   3.390   5.295   3.353  0.1589 -0.1474  0.1914
 6447TIP3    H140756   3.380   5.294   3.448 -0.9935 -1.9387  0.1064
 6447TIP3    H240757   3.456   5.362   3.336  1.1389 -0.4849  2.3260
 6448TIP3   OH240758   0.749   6.642   3.940  0.1516  0.1374  0.1440
 6448TIP3    H140759   0.761   6.686   4.024 -1.0128  0.3102  0.2390
 6448TIP3    H240760   0.828   6.663   3.890 -0.5027  2.7234  0.0325
 6449TIP3   OH240761   6.483   4.911  11.993  0.8427  0.0406  0.1623
 6449TIP3    H140762   6.407   4.886  11.940  1.2795  0.2154 -0.5578
 6449TIP3    H240763   6.520   4.828  12.024  0.9652 -0.0945 -0.3452
 6450TIP3   OH240764   5.938   2.684   5.638  0.2961  0.5103 -0.1664
 6450TIP3    H140765   6.013   2.639   5.677 -0.7265 -0.2173  1.0832
 6450TIP3    H240766   5.897   2.730   5.711 -1.3088 -0.3452 -0.4580
 6451TIP3   OH240767   3.672   6.173  11.602  0.3001 -0.1050  0.4037
 6451TIP3    H140768   3.641   6.112  11.669 -0.5814 -0.0231  0.0723
 6451TIP3    H240769   3.657   6.127  11.520 -0.8344  0.7483  0.1153
 6452TIP3   OH240770   3.048   0.747   1.900  0.1599  0.0449 -0.4139
 6452TIP3    H140771   3.034   0.662   1.942  1.7681 -0.5402 -1.0100
 6452TIP3    H240772   3.046   0.729   1.806 -3.1897  1.3123 -0.7428
 6453TIP3   OH240773   6.011   4.273   5.804 -0.0470 -0.6013  1.2445
 6453TIP3    H140774   5.941   4.217   5.837  0.8306 -1.7050  1.2459
 6453TIP3    H240775   6.020   4.248   5.712  0.6996 -0.8295  1.3766
 6454TIP3   OH240776   3.172   6.258  11.547 -0.0664 -0.4788 -0.2659
 6454TIP3    H140777   3.216   6.339  11.574  0.6934 -1.4062  1.4215
 6454TIP3    H240778   3.157   6.270  11.453 -0.8925  2.0250  0.1037
 6455TIP3   OH240779   6.347   4.439  12.594  0.4835  0.4003  0.4402
 6455TIP3    H140780   6.325   4.427  12.502  1.4403  0.9905  0.1226
 6455TIP3    H240781   6.417   4.504  12.594  2.8695 -1.9966  1.3388
 6456TIP3   OH240782   0.800   0.887   0.403  0.3217  0.2033  0.7357
 6456TIP3    H140783   0.755   0.835   0.470 -0.2747  0.6611  0.7027
 6456TIP3    H240784   0.873   0.833   0.376 -1.0811 -1.2766 -0.3099
 6457TIP3   OH240785   2.808   0.433   0.274  0.2919 -0.3790 -0.2403
 6457TIP3    H140786   2.792   0.442   0.180 -2.5151 -0.4706  0.1307
 6457TIP3    H240787   2.851   0.349   0.283  2.5267  0.5344 -1.5580
 6458TIP3   OH240788   2.321   0.745   2.357 -0.1628  0.0676  0.0519
 6458TIP3    H140789   2.342   0.712   2.270  1.0109 -0.9695  0.6901
 6458TIP3    H240790   2.281   0.672   2.403 -1.0970  0.7093  0.2882
 6459TIP3   OH240791   1.817   2.399   2.303 -0.4316 -0.0239  0.5534
 6459TIP3    H140792   1.865   2.403   2.385  2.5209 -0.6974 -0.9913
 6459TIP3    H240793   1.793   2.307   2.294  0.4831 -0.2186  0.0366
 6460TIP3   OH240794   6.634   6.757   1.407  0.2356 -0.4710 -0.0740
 6460TIP3    H140795   6.610   6.782   1.497  0.1550 -0.4327 -0.1060
 6460TIP3    H240796   6.728   6.740   1.411  0.8077  2.0628 -0.5309
 6461TIP3   OH240797   1.744   1.367   4.010 -0.1914  0.0289 -0.3183
 6461TIP3    H140798   1.808   1.296   4.007 -0.9645 -0.6420 -1.3966
 6461TIP3    H240799   1.761   1.410   4.094  1.8393  0.0471 -0.6921
 6462TIP3   OH240800   3.288   5.065   5.846  0.3258 -0.1303 -0.1070
 6462TIP3    H140801   3.347   5.075   5.771  0.7258 -2.0865 -0.0881
 6462TIP3    H240802   3.280   5.154   5.881 -1.0100  1.1297 -3.2725
 6463TIP3   OH240803   1.559   0.200  14.169 -0.4156  0.5697 -0.1082
 6463TIP3    H140804   1.578   0.273  14.110 -1.1529  0.6389 -0.2636
 6463TIP3    H240805   1.467   0.211  14.192 -0.3038  0.1742  0.5493
 6464TIP3   OH240806   2.565   0.589  16.370  0.3988 -0.3891 -0.3418
 6464TIP3    H140807   2.623   0.597  16.446 -1.0076  1.9300  0.6195
 6464TIP3    H240808   2.620   0.614  16.295  1.1754 -0.2788  0.2518
 6465TIP3   OH240809   6.128   6.129  14.685 -0.0384 -0.1230 -0.7047
 6465TIP3    H140810   6.181   6.123  14.605 -0.4828  0.2902 -1.0395
 6465TIP3    H240811   6.095   6.219  14.685 -0.2522 -0.1979 -0.1869
 6466TIP3   OH240812   0.310   6.192  12.402 -0.1456  0.4321 -0.3156
 6466TIP3    H140813   0.275   6.106  12.428 -0.5092  0.8452  0.6021
 6466TIP3    H240814   0.324   6.184  12.308  2.7151 -1.6586  0.1429
 6467TIP3   OH240815   0.376   1.765   5.290  0.0505  0.7285 -0.1102
 6467TIP3    H140816   0.337   1.697   5.235 -0.3855 -2.0698  3.3074
 6467TIP3    H240817   0.465   1.735   5.308 -0.4671  0.3927  2.2622
 6468TIP3   OH240818   4.136   2.341  11.906 -0.0476 -0.0987 -0.3017
 6468TIP3    H140819   4.168   2.431  11.910 -0.7325  0.1265  0.4198
 6468TIP3    H240820   4.196   2.296  11.847  0.9210  0.5801  0.1493
 6469TIP3   OH240821   6.060   0.005  15.373  0.4490 -0.1739  0.3171
 6469TIP3    H140822   6.142   0.028  15.418  1.3929  0.2679 -1.5393
 6469TIP3    H240823   5.994   0.006  15.443  2.2607 -2.2603  2.2163
 6470TIP3   OH240824   1.687   3.960   4.925  0.4868 -0.3106 -0.1808
 6470TIP3    H140825   1.706   4.053   4.936 -0.7852 -0.2164  1.4315
 6470TIP3    H240826   1.751   3.931   4.859  1.3536  1.5308 -0.2159
 6471TIP3   OH240827   5.007   4.039  15.166  0.1628  0.5072  0.8187
 6471TIP3    H140828   4.976   3.951  15.190  1.2186  0.5889  2.6549
 6471TIP3    H240829   4.945   4.099  15.209  0.5761  0.6555  1.2141
 6472TIP3   OH240830   3.832   6.374  11.412 -0.6376 -0.2599 -0.2175
 6472TIP3    H140831   3.827   6.302  11.476  0.1580 -1.2526 -1.2372
 6472TIP3    H240832   3.922   6.371  11.380 -0.2334  1.9391  0.5235
 6473TIP3   OH240833   6.617   3.308  13.504 -0.1928 -0.1086 -0.2019
 6473TIP3    H140834   6.562   3.259  13.565  0.0914  0.0409  0.1830
 6473TIP3    H240835   6.642   3.386  13.553  0.5431 -0.2829 -0.2847
 6474TIP3   OH240836   5.825   2.230  15.988  0.3071 -0.4921  0.5910
 6474TIP3    H140837   5.911   2.215  16.027  2.0873  3.8709 -0.9690
 6474TIP3    H240838   5.770   2.258  16.061  1.8385  1.6605  1.0455
 6475TIP3   OH240839   0.550   1.028  13.906  0.2624 -0.1938  0.2533
 6475TIP3    H140840   0.603   1.085  13.961 -0.7700 -1.0374  2.2093
 6475TIP3    H240841   0.542   0.947  13.955  4.7104 -3.7731 -3.8495
 6476TIP3   OH240842   5.714   3.673  15.293 -0.1487  0.0839  0.1549
 6476TIP3    H140843   5.724   3.767  15.310 -1.3048  0.5003 -1.2759
 6476TIP3    H240844   5.774   3.632  15.355 -0.3177  1.7034  1.4934
 6477TIP3   OH240845   1.186   0.302   1.153 -0.1640 -0.3756  0.4575
 6477TIP3    H140846   1.094   0.306   1.126 -0.0819 -3.7881 -0.8467
 6477TIP3    H240847   1.235   0.319   1.073  0.4352  1.8968  1.2413
 6478TIP3   OH240848   3.175   2.784  10.551  0.0788  0.5122 -0.4910
 6478TIP3    H140849   3.183   2.688  10.553  1.3771  0.5931 -0.9556
 6478TIP3    H240850   3.089   2.801  10.589 -0.6804 -0.9044 -1.4569
 6479TIP3   OH240851   3.814   3.708   1.552 -0.2424 -0.4421 -0.1764
 6479TIP3    H140852   3.890   3.650   1.540 -0.5760 -0.6575 -1.4888
 6479TIP3    H240853   3.783   3.689   1.640  1.3437 -0.1965  0.4727
 6480TIP3   OH240854   1.659   5.991   2.824  0.8463  0.4556  0.2463
 6480TIP3    H140855   1.690   6.058   2.885  1.3954  0.2782  0.1667
 6480TIP3    H240856   1.570   6.018   2.803  1.0522  1.1487  0.2348
 6481TIP3   OH240857   3.081   5.971   5.825  0.1313 -0.3877 -0.2799
 6481TIP3    H140858   3.079   6.044   5.763 -0.7130 -0.2974 -0.1662
 6481TIP3    H240859   3.125   5.900   5.778  5.6975  1.5329  1.2221
 6482TIP3   OH240860   0.514   2.087   2.441  0.1898  0.0734  0.0940
 6482TIP3    H140861   0.477   2.038   2.368  0.9143  0.1890 -0.3594
 6482TIP3    H240862   0.439   2.106   2.497 -0.6859  1.4746 -1.4598
 6483TIP3   OH240863   5.829   6.770  15.903  0.0374  0.2289  0.0928
 6483TIP3    H140864   5.903   6.715  15.929  0.8196  0.9310 -0.5775
 6483TIP3    H240865   5.780   6.785  15.984 -0.2091 -1.4333  0.2961
 6484TIP3   OH240866   0.563   1.203  15.074  0.0543 -0.1637 -1.1225
 6484TIP3    H140867   0.475   1.178  15.103  0.3924 -1.6503 -1.2893
 6484TIP3    H240868   0.562   1.299  15.074 -0.7490 -0.0913  1.3577
 6485TIP3   OH240869   5.423   5.003  15.959  0.5469 -0.1175 -0.3178
 6485TIP3    H140870   5.430   4.956  16.043 -1.8936 -2.4174 -1.2561
 6485TIP3    H240871   5.418   5.095  15.984  0.6176 -0.6755  2.0307
 6486TIP3   OH240872   2.828   1.772   6.728  0.2270  0.4147  0.4880
 6486TIP3    H140873   2.869   1.687   6.715 -0.7143  0.0126  0.1092
 6486TIP3    H240874   2.873   1.830   6.667  1.0219  0.2505  0.9028
 6487TIP3   OH240875   5.518   2.646   1.093 -0.6303  0.2875 -0.0249
 6487TIP3    H140876   5.538   2.569   1.040 -2.1873  0.4295 -0.8764
 6487TIP3    H240877   5.505   2.611   1.182  0.8139 -0.1140  0.0453
 6488TIP3   OH240878   5.011   3.064  13.090  0.3091 -0.1036  0.3177
 6488TIP3    H140879   5.092   3.039  13.133  0.8728  2.9429  1.2367
 6488TIP3    H240880   5.029   3.149  13.051 -1.9408 -0.1483 -1.0406
 6489TIP3   OH240881   2.518   3.046   5.509 -0.0856  0.6470 -0.5488
 6489TIP3    H140882   2.465   3.119   5.477  1.5701  1.9979 -0.3512
 6489TIP3    H240883   2.522   2.986   5.435 -0.6282  1.2277 -1.0665
 6490TIP3   OH240884   1.181   0.058   0.082 -0.1098  0.4189  0.0660
 6490TIP3    H140885   1.143  -0.020   0.122  0.0224  0.3041 -0.0316
 6490TIP3    H240886   1.105   0.110   0.054 -0.2345 -0.7039 -1.8712
 6491TIP3   OH240887   1.047   0.720   4.309 -0.4307 -0.0438 -0.3596
 6491TIP3    H140888   0.985   0.648   4.296  0.1565 -0.3488 -1.6738
 6491TIP3    H240889   1.074   0.711   4.400 -2.3170  0.1254  0.2701
 6492TIP3   OH240890   5.634   3.047   3.287  0.2021 -0.3972  0.2392
 6492TIP3    H140891   5.584   3.084   3.214 -2.1569 -1.4973  1.1988
 6492TIP3    H240892   5.624   3.111   3.357 -1.5323 -1.4632  1.0217
 6493TIP3   OH240893   1.461   2.346   1.866 -0.0062 -0.1873  0.1837
 6493TIP3    H140894   1.426   2.376   1.782 -1.3639  0.3967  0.9363
 6493TIP3    H240895   1.436   2.414   1.929 -2.1729 -2.2535  1.7296
 6494TIP3   OH240896   1.000   5.651  13.139 -0.5295  0.2233  0.3600
 6494TIP3    H140897   0.917   5.604  13.153 -0.3823 -0.0950  0.1748
 6494TIP3    H240898   1.054   5.626  13.214 -0.1454 -0.5891 -0.1706
 6495TIP3   OH240899   1.438   6.170   5.742  0.3978 -0.0614 -0.4943
 6495TIP3    H140900   1.504   6.117   5.697  1.9893  0.9090  0.5960
 6495TIP3    H240901   1.484   6.208   5.816 -1.2359  1.2058 -0.0609
 6496TIP3   OH240902   3.632   5.917   1.402 -0.3739  0.3194  0.2796
 6496TIP3    H140903   3.653   5.877   1.318  0.5596 -0.2785  0.7828
 6496TIP3    H240904   3.584   5.997   1.379 -0.8894 -0.2687 -0.7829
 6497TIP3   OH240905   0.115   4.267   5.041 -0.3837 -0.1354 -0.0892
 6497TIP3    H140906   0.208   4.280   5.059 -0.5851  0.1778  0.7884
 6497TIP3    H240907   0.091   4.189   5.092 -0.8820  0.5421  0.7466
 6498TIP3   OH240908   3.178   4.561  16.647  0.0480 -0.1451 -0.0752
 6498TIP3    H140909   3.103   4.555  16.706  1.3600 -1.0374  1.6152
 6498TIP3    H240910   3.213   4.472  16.643 -0.2007 -0.1866 -2.5641
 6499TIP3   OH240911   4.918   1.617  17.294  0.3443 -0.2166 -0.5574
 6499TIP3    H140912   4.947   1.580  17.378  2.1191  2.9120  0.3921
 6499TIP3    H240913   5.000   1.640  17.249 -0.6108  0.8355 -1.8254
 6500TIP3   OH240914   4.589   4.937  17.261  1.0033 -0.0390  0.4392
 6500TIP3    H140915   4.526   4.886  17.313 -0.3807 -0.7698 -1.7905
 6500TIP3    H240916   4.666   4.881  17.254  2.7015  1.4454  4.4347
 6501TIP3   OH240917   6.553   2.633   5.089  0.4430  0.1437  0.1837
 6501TIP3    H140918   6.578   2.615   4.998  1.1411  2.1413 -0.0774
 6501TIP3    H240919   6.632   2.617   5.140  0.4944  0.4778  0.2141
 6502TIP3   OH240920   4.429   3.064  13.738  0.3210  0.2858 -0.1873
 6502TIP3    H140921   4.413   3.091  13.648  0.8445  0.5494 -0.2026
 6502TIP3    H240922   4.522   3.044  13.741  0.4612  0.9941  0.4751
 6503TIP3   OH240923   5.767   1.462   4.586 -0.5316  0.2846  0.1703
 6503TIP3    H140924   5.690   1.476   4.532 -0.6120  2.4815  0.7776
 6503TIP3    H240925   5.840   1.495   4.533 -0.4623  1.3589  0.9119
 6504TIP3   OH240926   6.650   1.621  11.398 -0.0401 -0.8323  0.1080
 6504TIP3    H140927   6.658   1.708  11.359  0.9416 -2.2813 -3.2504
 6504TIP3    H240928   6.720   1.618  11.464 -0.2565  0.9402  0.4786
 6505TIP3   OH240929   1.467   4.265   5.035  0.1267  0.2435 -0.5481
 6505TIP3    H140930   1.547   4.255   4.983 -0.5244 -0.1239 -1.5143
 6505TIP3    H240931   1.447   4.176   5.065  0.4983  0.4552  0.3453
 6506TIP3   OH240932   0.645   3.861  13.612 -0.5975 -0.4405 -0.1058
 6506TIP3    H140933   0.622   3.795  13.547 -2.2257  2.2067 -2.4574
 6506TIP3    H240934   0.561   3.888  13.650 -0.2392  1.4812 -0.5359
 6507TIP3   OH240935   2.134   6.104  12.391  0.0468  0.6012  0.3693
 6507TIP3    H140936   2.090   6.054  12.460  0.5591  0.2251  0.4334
 6507TIP3    H240937   2.173   6.178  12.436 -0.0281  0.6191  0.4058
 6508TIP3   OH240938   0.438   2.406   0.961 -0.0533 -0.3392 -0.1575
 6508TIP3    H140939   0.371   2.357   1.008 -0.7108  0.9430  0.2711
 6508TIP3    H240940   0.521   2.371   0.995 -0.4543 -2.1263 -0.8949
 6509TIP3   OH240941   6.212   5.267   2.232 -0.0846  0.2902  0.0609
 6509TIP3    H140942   6.154   5.211   2.282 -0.5386  0.4685 -0.2502
 6509TIP3    H240943   6.253   5.324   2.297  1.7903 -1.5914  0.6104
 6510TIP3   OH240944   5.179   4.556  12.607 -0.2928 -0.4674  0.2422
 6510TIP3    H140945   5.241   4.545  12.535  0.3164  0.4944  0.6011
 6510TIP3    H240946   5.204   4.489  12.671  0.7854  0.3068  0.6515
 6511TIP3   OH240947   1.458   3.593   0.403  0.0194 -0.0956 -0.1203
 6511TIP3    H140948   1.519   3.523   0.381  0.4068  1.0310 -3.2461
 6511TIP3    H240949   1.512   3.662   0.439  0.4207  0.2823 -1.3757
 6512TIP3   OH240950   5.634   0.332   3.901 -0.3130 -0.7023  0.1225
 6512TIP3    H140951   5.576   0.408   3.905  0.7897  0.1149  2.3438
 6512TIP3    H240952   5.693   0.343   3.976  0.2546 -3.4652  0.1776
 6513TIP3   OH240953   1.235   4.049   0.702  0.3523 -0.5369 -0.5272
 6513TIP3    H140954   1.276   4.003   0.775 -0.1885  1.3027  1.0453
 6513TIP3    H240955   1.142   4.031   0.711  0.1276  0.8521  0.1517
 6514TIP3   OH240956   1.889   5.721   3.154  0.3087 -0.2093 -0.1648
 6514TIP3    H140957   1.934   5.702   3.236  1.4917 -1.1441 -0.9970
 6514TIP3    H240958   1.827   5.790   3.176  1.3639  0.3228  1.2713
 6515TIP3   OH240959   2.505   2.924  14.740  0.4077 -0.0509  0.1604
 6515TIP3    H140960   2.521   2.938  14.834  0.4065  1.9568 -0.0858
 6515TIP3    H240961   2.411   2.908  14.734  0.2342  0.7820  0.4415
 6516TIP3   OH240962   2.701   1.443   1.489 -0.2878 -0.1178  0.5410
 6516TIP3    H140963   2.740   1.471   1.406 -0.6356  1.6377  0.9473
 6516TIP3    H240964   2.759   1.479   1.556  0.5399 -2.3312  1.1007
 6517TIP3   OH240965   4.276   4.645  15.032 -0.2753  0.0496 -0.1671
 6517TIP3    H140966   4.216   4.602  15.093  0.4560  0.4576  0.8828
 6517TIP3    H240967   4.362   4.635  15.073 -0.1305  3.2053  0.5767
 6518TIP3   OH240968   2.694   2.850   5.863  0.5993 -0.0279  0.1012
 6518TIP3    H140969   2.701   2.760   5.831  0.6542 -1.1415  2.9410
 6518TIP3    H240970   2.690   2.841   5.958  1.5401  3.0592  0.5323
 6519TIP3   OH240971   1.433   5.419  15.396  0.1092 -0.4274 -0.7806
 6519TIP3    H140972   1.480   5.458  15.322  0.9593  2.1567  0.9927
 6519TIP3    H240973   1.341   5.439  15.378  0.3569  0.6439 -0.9173
 6520TIP3   OH240974   4.002   5.142  13.824  0.3343  0.4296 -0.3385
 6520TIP3    H140975   3.947   5.172  13.896  2.0493  1.7683  0.4645
 6520TIP3    H240976   4.036   5.222  13.784  1.8812 -0.3424 -0.6460
 6521TIP3   OH240977   1.175   6.434   3.998  0.1505  0.1370 -0.0589
 6521TIP3    H140978   1.253   6.397   3.956 -0.5016  0.1336 -1.3166
 6521TIP3    H240979   1.164   6.519   3.957 -0.1297  0.4219  0.5988
 6522TIP3   OH240980   2.898   0.216  16.648 -0.0666 -0.9932  0.3485
 6522TIP3    H140981   2.908   0.305  16.683 -3.5184 -0.0726 -0.5687
 6522TIP3    H240982   2.978   0.201  16.597  0.1444  2.1229 -0.4635
 6523TIP3   OH240983   4.879   3.123   3.911 -0.2140 -0.2670  0.3013
 6523TIP3    H140984   4.844   3.034   3.916  0.9909 -0.7934 -0.3810
 6523TIP3    H240985   4.859   3.153   3.823  1.6883 -0.8798 -0.3887
 6524TIP3   OH240986   6.399   5.776  15.284 -0.2086  0.3136  0.3074
 6524TIP3    H140987   6.456   5.710  15.323 -1.1108 -0.7721 -0.1737
 6524TIP3    H240988   6.455   5.821  15.220  0.4626  0.1278  0.7561
 6525TIP3   OH240989   3.381   1.492   0.383  0.0327 -0.2375  0.2925
 6525TIP3    H140990   3.302   1.442   0.402 -0.3781  0.7161  1.1636
 6525TIP3    H240991   3.356   1.583   0.395  1.8492  0.0254  3.0788
 6526TIP3   OH240992   4.082   5.522  14.600 -0.0914  0.3716  0.2860
 6526TIP3    H140993   4.015   5.588  14.581  0.7782  1.1961 -0.0184
 6526TIP3    H240994   4.086   5.467  14.522  0.4134  1.0654 -0.1910
 6527TIP3   OH240995   0.434   5.679  16.737 -0.8318 -0.1256 -0.4288
 6527TIP3    H140996   0.456   5.770  16.718 -0.2206 -0.5011 -1.6504
 6527TIP3    H240997   0.517   5.638  16.760 -0.5611 -0.9929 -2.6826
 6528TIP3   OH240998   0.091   3.563  15.301  0.5872  0.1794  0.1779
 6528TIP3    H140999   0.131   3.603  15.378  2.5729  1.0408 -1.2123
 6528TIP3    H241000   0.152   3.582  15.230 -1.3415 -0.2628 -1.6940
 6529TIP3   OH241001   2.770   5.500   5.761 -1.0990 -0.2879 -0.1729
 6529TIP3    H141002   2.801   5.581   5.720 -0.3541 -0.8867 -0.8130
 6529TIP3    H241003   2.822   5.431   5.721 -0.6406 -0.9488  1.4563
 6530TIP3   OH241004   1.921   3.326   0.662  0.1831 -0.5550  0.6630
 6530TIP3    H141005   1.997   3.334   0.720  0.5375  1.5271 -0.0042
 6530TIP3    H241006   1.958   3.331   0.574 -0.5933 -1.2361  0.2847
 6531TIP3   OH241007   5.549   3.005  17.211 -0.3418  0.2372  0.6995
 6531TIP3    H141008   5.471   2.974  17.165  0.0596  2.2263 -1.4788
 6531TIP3    H241009   5.515   3.059  17.282 -0.9591  0.7321  0.0358
 6532TIP3   OH241010   4.032   0.217  12.133  0.1169 -0.1030  0.1921
 6532TIP3    H141011   4.000   0.246  12.219 -0.6717  1.4560 -0.5784
 6532TIP3    H241012   3.983   0.137  12.115  1.6872 -1.5621  1.9981
 6533TIP3   OH241013   0.960   6.676   5.874 -0.6219 -0.0572  0.1605
 6533TIP3    H141014   0.962   6.761   5.831 -1.2361  0.3858  0.9733
 6533TIP3    H241015   0.940   6.696   5.966  1.0095 -0.9393  0.7424
 6534TIP3   OH241016   4.581   4.433   0.744  0.7034  0.2970  0.2427
 6534TIP3    H141017   4.646   4.490   0.702  1.5360 -2.3797 -2.5275
 6534TIP3    H241018   4.632   4.367   0.790 -0.1326 -0.0972  0.6398
 6535TIP3   OH241019   2.899   5.093   2.384  0.1933 -0.4559  0.6252
 6535TIP3    H141020   2.962   5.159   2.353  0.5796 -1.7235 -1.4609
 6535TIP3    H241021   2.821   5.143   2.404  0.6144  0.7239 -0.5093
 6536TIP3   OH241022   4.199   6.158  17.195  0.1828  0.3278  0.0045
 6536TIP3    H141023   4.198   6.253  17.210  0.3446  0.6128 -1.5841
 6536TIP3    H241024   4.129   6.144  17.132  0.9100 -0.4451 -0.6401
 6537TIP3   OH241025   6.098   4.854   3.120 -0.1257  0.0422 -0.3023
 6537TIP3    H141026   6.108   4.946   3.144  0.4411 -0.1586  0.2513
 6537TIP3    H241027   6.024   4.824   3.174  0.8030 -0.2688  0.8408
 6538TIP3   OH241028   0.079   0.905  17.325 -0.7199  0.1656  0.6437
 6538TIP3    H141029   0.130   0.825  17.339 -4.6127 -2.5975  0.5551
 6538TIP3    H241030   0.097   0.930  17.234  0.6313 -0.5030  0.7027
 6539TIP3   OH241031   5.153   3.151   2.732 -0.1722  0.6722  0.5342
 6539TIP3    H141032   5.102   3.227   2.702 -1.3559 -0.2110  0.2477
 6539TIP3    H241033   5.103   3.117   2.806  0.1221 -0.0858  0.3887
 6540TIP3   OH241034   1.235   3.458  11.516 -0.2323  0.6520 -0.0956
 6540TIP3    H141035   1.165   3.456  11.452  0.1803 -0.7511 -0.5605
 6540TIP3    H241036   1.304   3.510  11.475 -0.2300  0.3244 -0.5185
 6541TIP3   OH241037   5.306   3.927   5.088 -0.0366  0.1899 -0.0417
 6541TIP3    H141038   5.325   3.932   5.181  1.0110 -0.1848 -0.2166
 6541TIP3    H241039   5.380   3.970   5.046 -0.0760 -0.3765 -0.7249
 6542TIP3   OH241040   5.834   6.269  15.017 -0.6307  0.0711 -0.1032
 6542TIP3    H141041   5.853   6.209  14.945 -1.1078 -0.7736  0.4598
 6542TIP3    H241042   5.915   6.273  15.067 -1.1568 -1.6909  0.9737
 6543TIP3   OH241043   2.668   5.168   0.125 -0.0165  0.2510 -0.1440
 6543TIP3    H141044   2.667   5.249   0.074  1.2411 -0.5363 -1.4761
 6543TIP3    H241045   2.589   5.174   0.180 -0.2448  2.1077 -0.5959
 6544TIP3   OH241046   0.788   6.346   5.569 -0.0624 -0.4132 -0.2033
 6544TIP3    H141047   0.819   6.256   5.575 -0.7114 -0.6668 -0.5520
 6544TIP3    H241048   0.699   6.338   5.535 -1.1658  0.2032  2.3362
 6545TIP3   OH241049   1.455   3.180  16.662 -0.2621  0.0103 -0.5118
 6545TIP3    H141050   1.448   3.180  16.758  0.5671 -0.7644 -0.4445
 6545TIP3    H241051   1.393   3.113  16.634 -0.3968  0.1348 -0.5158
 6546TIP3   OH241052   6.573   4.295  15.420  0.0392  0.1611  0.1084
 6546TIP3    H141053   6.529   4.253  15.346  0.9787  1.6352 -1.3697
 6546TIP3    H241054   6.607   4.377  15.384  0.7549  0.8186  2.1326
 6547TIP3   OH241055   5.349   2.855  14.420  0.6760 -0.5272 -0.6176
 6547TIP3    H141056   5.384   2.889  14.503  0.1782  0.2750 -0.7189
 6547TIP3    H241057   5.267   2.903  14.408  0.0350 -1.6669 -0.8717
 6548TIP3   OH241058   1.234   4.632  14.240  0.4385 -0.0391 -0.0377
 6548TIP3    H141059   1.251   4.615  14.332  1.1870 -2.3751 -0.5468
 6548TIP3    H241060   1.320   4.632  14.199  0.0780  0.4795 -0.8196
 6549TIP3   OH241061   4.639   1.783   4.128 -0.1110  0.2304  0.3942
 6549TIP3    H141062   4.619   1.871   4.159  0.3449  0.8547 -1.0130
 6549TIP3    H241063   4.601   1.779   4.040 -1.4802 -1.5236  0.9838
 6550TIP3   OH241064   2.744   2.215   1.001 -0.0542 -0.0669  0.1917
 6550TIP3    H141065   2.816   2.253   1.051 -1.5275  0.0491  2.3717
 6550TIP3    H241066   2.761   2.120   1.003  2.3124  0.1153 -3.1660
 6551TIP3   OH241067   1.506   0.300  10.889 -0.2222  0.3571 -0.6514
 6551TIP3    H141068   1.512   0.340  10.976  1.3562  0.2807 -0.6964
 6551TIP3    H241069   1.553   0.361  10.832 -0.0704 -0.2745 -1.2083
 6552TIP3   OH241070   1.352   3.642   1.637 -1.1896 -0.4804  0.3103
 6552TIP3    H141071   1.372   3.571   1.577 -0.3638 -0.0231  0.0313
 6552TIP3    H241072   1.416   3.632   1.708  0.3690  1.2229 -0.7754
 6553TIP3   OH241073   2.070   2.971   2.515  0.3555 -0.0963 -1.0206
 6553TIP3    H141074   2.096   2.879   2.523 -1.3702 -0.6013 -0.8555
 6553TIP3    H241075   2.098   3.011   2.597 -0.0283 -0.7931 -0.5356
 6554TIP3   OH241076   1.370   0.012  12.179 -0.6922  0.4766 -0.0167
 6554TIP3    H141077   1.424   0.016  12.099  1.8437  2.8834  1.6101
 6554TIP3    H241078   1.288   0.053  12.153  0.2600  1.6976 -1.3260
 6555TIP3   OH241079   5.476   6.266  13.452 -0.3103  0.7149  0.0514
 6555TIP3    H141080   5.464   6.295  13.362 -0.7878  1.0123  0.2085
 6555TIP3    H241081   5.521   6.339  13.495 -0.3986  0.7158  0.1417
 6556TIP3   OH241082   0.632   0.145   2.728 -0.0736 -0.3948 -0.1550
 6556TIP3    H141083   0.658   0.193   2.649  1.3243  0.1468  0.6014
 6556TIP3    H241084   0.714   0.116   2.767 -0.8362 -2.6942 -0.0943
 6557TIP3   OH241085   1.086   2.890  15.361 -0.5594 -0.0332 -0.1391
 6557TIP3    H141086   1.038   2.856  15.436 -1.0281 -2.2556 -1.3465
 6557TIP3    H241087   1.021   2.898  15.292  0.2851 -0.3657 -0.9987
 6558TIP3   OH241088   6.383   1.541   4.182  0.9196 -0.0403 -0.0564
 6558TIP3    H141089   6.451   1.604   4.204  2.2493 -0.4692 -2.5925
 6558TIP3    H241090   6.312   1.561   4.243  3.1541  0.5777  2.5749
 6559TIP3   OH241091   1.094   4.513   6.224  0.0102 -0.3372  0.0420
 6559TIP3    H141092   1.063   4.598   6.192  1.6767  0.5663  0.7066
 6559TIP3    H241093   1.125   4.531   6.313  1.2689 -1.4266 -0.1459
 6560TIP3   OH241094   0.983   4.968  13.088 -0.1108 -0.3832  0.4648
 6560TIP3    H141095   0.985   4.923  13.003  0.0510 -0.7682  0.6689
 6560TIP3    H241096   1.025   5.052  13.072  1.2721 -1.0492  0.4975
 6561TIP3   OH241097   5.295   1.331   3.845 -0.3387  0.0947  0.4167
 6561TIP3    H141098   5.388   1.329   3.825 -0.6603  0.7616 -1.3861
 6561TIP3    H241099   5.274   1.242   3.873  0.6956 -0.2766  0.0558
 6562TIP3   OH241100   2.975   2.660  13.067  0.1909  0.2492  0.2169
 6562TIP3    H141101   3.039   2.649  12.996  1.3678  1.9511  0.9245
 6562TIP3    H241102   3.001   2.597  13.134 -0.1732 -0.5154 -0.3548
 6563TIP3   OH241103   4.521   0.616  15.269 -0.0655 -0.3698  0.0874
 6563TIP3    H141104   4.510   0.675  15.195 -0.8515  0.0631  0.5340
 6563TIP3    H241105   4.452   0.641  15.330  0.0138 -1.3076  0.5812
 6564TIP3   OH241106   4.593   2.574  12.211 -0.3066  0.2214  0.2494
 6564TIP3    H141107   4.607   2.530  12.127 -0.3710  1.6324 -0.5261
 6564TIP3    H241108   4.505   2.549  12.237 -1.0187  1.2656 -1.0612
 6565TIP3   OH241109   2.190   3.216   2.447  0.7992  0.4604 -0.1999
 6565TIP3    H141110   2.128   3.144   2.460 -1.3881  2.4327  1.0811
 6565TIP3    H241111   2.151   3.268   2.377  0.0251  2.6316  1.7252
 6566TIP3   OH241112   4.959   5.683  10.784  0.4637 -0.2263 -0.2628
 6566TIP3    H141113   5.048   5.715  10.771  0.3368 -0.5130 -2.0521
 6566TIP3    H241114   4.956   5.599  10.738 -0.3879 -0.8367  0.8478
 6567TIP3   OH241115   0.711   2.383   1.032 -0.2194  0.2307  0.0772
 6567TIP3    H141116   0.762   2.329   1.091 -1.3423 -0.7871  0.1559
 6567TIP3    H241117   0.737   2.355   0.944  0.8110  1.1366  0.0702
 6568TIP3   OH241118   2.638   1.007   4.287  0.0121  0.8259 -0.0309
 6568TIP3    H141119   2.730   1.012   4.260  0.3774  2.5834  1.3546
 6568TIP3    H241120   2.634   0.930   4.344  1.3112  2.2825  2.1338
 6569TIP3   OH241121   5.462   3.460   0.502  0.2974 -0.0985 -0.3643
 6569TIP3    H141122   5.547   3.416   0.503 -0.8740 -2.5415  0.5416
 6569TIP3    H241123   5.414   3.416   0.431  0.0527  1.8765 -1.4794
 6570TIP3   OH241124   2.966   2.887   3.443  0.1390  0.1544 -0.0188
 6570TIP3    H141125   2.965   2.791   3.444 -0.3636  0.0472 -2.7446
 6570TIP3    H241126   2.887   2.911   3.394  0.1071  1.9972  0.8555
 6571TIP3   OH241127   6.503   4.589  15.803 -0.5738  0.1701 -0.1897
 6571TIP3    H141128   6.593   4.594  15.770  0.6116  2.2394  2.9057
 6571TIP3    H241129   6.495   4.501  15.840  0.5301  0.2873  0.3587
 6572TIP3   OH241130   0.527   5.973   1.476  0.1686  0.4763 -0.0933
 6572TIP3    H141131   0.496   5.947   1.389 -0.1318 -1.4243  0.5462
 6572TIP3    H241132   0.511   6.068   1.479 -0.7034  0.4281 -1.7405
 6573TIP3   OH241133   6.375   6.051   1.995  0.0397  0.0642  0.0407
 6573TIP3    H141134   6.332   5.982   1.946 -1.2099 -0.0567  1.2156
 6573TIP3    H241135   6.309   6.121   2.001 -0.9645 -0.9449  3.6880
 6574TIP3   OH241136   6.434   5.681  13.438  0.0788  0.0773 -0.1039
 6574TIP3    H141137   6.400   5.688  13.527  3.5850 -0.0585  1.4433
 6574TIP3    H241138   6.446   5.772  13.410 -0.5209  0.1204 -0.2274
 6575TIP3   OH241139   4.288   3.291   0.191  0.0380  0.2912  0.3188
 6575TIP3    H141140   4.222   3.355   0.218  0.8944  1.3247  0.0210
 6575TIP3    H241141   4.268   3.212   0.242 -1.5088  0.5287  0.1189
 6576TIP3   OH241142   6.540   4.918  12.399  0.1223 -0.2143 -0.2414
 6576TIP3    H141143   6.534   5.013  12.385  0.9235  0.0846  1.2085
 6576TIP3    H241144   6.465   4.882  12.353  0.2175  1.0540 -1.4432
 6577TIP3   OH241145   6.272   3.868   2.891  0.0087  0.4895 -0.3404
 6577TIP3    H141146   6.243   3.927   2.821 -0.3691 -0.1441 -0.7243
 6577TIP3    H241147   6.312   3.794   2.845 -0.5284 -0.0818  0.0968
 6578TIP3   OH241148   0.053   6.418  12.059 -0.0532 -0.2538  0.4557
 6578TIP3    H141149   0.012   6.464  12.132 -0.5641 -1.3230  0.8496
 6578TIP3    H241150  -0.008   6.348  12.036  0.8784 -0.9676  0.0995
 6579TIP3   OH241151   3.919   0.550  15.448  0.7740  0.5146  0.4913
 6579TIP3    H141152   3.870   0.469  15.457 -0.6970  1.4551  1.3856
 6579TIP3    H241153   3.920   0.567  15.354 -1.7306  1.0680  0.4975
 6580TIP3   OH241154   3.208   0.690  13.190  0.3070 -0.4247 -0.9042
 6580TIP3    H141155   3.154   0.695  13.269  0.5781  0.6264 -0.7721
 6580TIP3    H241156   3.286   0.641  13.217 -0.1038 -1.0491 -0.8246
 6581TIP3   OH241157   5.074   4.415  14.812 -0.4692 -0.1575  0.2254
 6581TIP3    H141158   5.057   4.322  14.828  0.7202 -0.3803  0.2763
 6581TIP3    H241159   5.088   4.421  14.718 -2.1279  0.2611 -0.0304
 6582TIP3   OH241160   5.509   5.092   0.200  0.4400  0.1664  0.1834
 6582TIP3    H141161   5.566   5.015   0.193  0.3120  0.0782  0.1228
 6582TIP3    H241162   5.476   5.090   0.290  1.7722  1.0810  0.7419
 6583TIP3   OH241163   1.973   4.163  15.872 -0.4407 -0.9428 -0.6100
 6583TIP3    H141164   2.020   4.084  15.844 -1.3400 -1.3490 -1.0266
 6583TIP3    H241165   1.957   4.211  15.791  0.5697 -0.0427 -0.3046
 6584TIP3   OH241166   5.883   2.381   0.594 -0.5037  0.2833  0.0478
 6584TIP3    H141167   5.969   2.374   0.637 -1.2823 -0.8180  1.5180
 6584TIP3    H241168   5.893   2.332   0.512  0.7469  1.6336 -0.6614
 6585TIP3   OH241169   2.207   3.222  14.775  0.5335  0.2021  0.1603
 6585TIP3    H141170   2.247   3.308  14.789  0.6504  0.2941 -0.6671
 6585TIP3    H241171   2.228   3.173  14.854  0.7512  0.8259  0.5010
 6586TIP3   OH241172   3.616   3.889  12.110  0.3531  0.4626 -0.1693
 6586TIP3    H141173   3.525   3.917  12.116  0.5619  1.3112 -0.7473
 6586TIP3    H241174   3.648   3.931  12.031  1.1724 -0.0566 -0.1193
 6587TIP3   OH241175   4.159   2.686  13.601  0.0655  0.4846  0.3445
 6587TIP3    H141176   4.066   2.704  13.587 -0.2682 -0.9315  0.5220
 6587TIP3    H241177   4.168   2.680  13.696  0.3998  0.9006  0.3395
 6588TIP3   OH241178   6.572   0.274   4.361 -0.0234  0.7559  0.8886
 6588TIP3    H141179   6.621   0.211   4.415 -1.2350  1.7539  3.2724
 6588TIP3    H241180   6.634   0.345   4.346  1.0558 -0.4899 -1.0637
 6589TIP3   OH241181   3.897   2.703  13.873 -0.1781 -0.1823 -0.2465
 6589TIP3    H141182   3.824   2.643  13.892 -0.3352 -0.0659 -0.4816
 6589TIP3    H241183   3.975   2.648  13.884 -0.2919 -0.2797  0.1144
 6590TIP3   OH241184   3.483   0.870  15.173 -0.4775  0.6793 -0.4083
 6590TIP3    H141185   3.526   0.919  15.104  1.1528  1.2661  0.9533
 6590TIP3    H241186   3.452   0.937  15.235 -0.2856  0.1046  0.3284
 6591TIP3   OH241187   1.114   0.734  12.140 -0.4866  0.1755 -0.4427
 6591TIP3    H141188   1.063   0.809  12.170  1.4213  1.7321 -0.8964
 6591TIP3    H241189   1.058   0.692  12.074 -1.8979  0.7128  0.3595
 6592TIP3   OH241190   2.065   5.290   2.370  0.1156 -0.1640 -0.2859
 6592TIP3    H141191   1.980   5.328   2.349 -0.0798  0.3673  1.3107
 6592TIP3    H241192   2.049   5.234   2.446  0.8972 -1.3936 -0.9897
 6593TIP3   OH241193   6.611   0.764  15.845 -0.0074  0.0957 -0.0744
 6593TIP3    H141194   6.632   0.707  15.919 -0.8675  0.4631  0.4653
 6593TIP3    H241195   6.677   0.742  15.779  1.5562  0.6125  1.2319
 6594TIP3   OH241196   4.830   0.534   1.810 -0.3430  0.1981 -0.5269
 6594TIP3    H141197   4.779   0.588   1.750  0.1524  0.3287 -0.8301
 6594TIP3    H241198   4.876   0.472   1.754 -0.2090  0.0443 -0.2482
 6595TIP3   OH241199   4.714   5.006   1.906 -0.5686 -0.4353  0.1048
 6595TIP3    H141200   4.725   5.010   1.811 -0.7756 -0.4529  0.0804
 6595TIP3    H241201   4.747   4.919   1.930  0.1414 -0.1623  0.1369
 6596TIP3   OH241202   4.547   6.339  14.097  0.1717  0.2070  0.6383
 6596TIP3    H141203   4.463   6.384  14.108  0.0151 -0.0824  0.6346
 6596TIP3    H241204   4.558   6.288  14.177  0.3595  0.2703  0.6525
 6597TIP3   OH241205   4.678   0.548  16.923 -0.3139  1.1121  0.1082
 6597TIP3    H141206   4.601   0.495  16.947  0.3382  0.3329  0.5157
 6597TIP3    H241207   4.641   0.632  16.896 -1.2466  1.2445  1.6618
 6598TIP3   OH241208   2.581   3.561   1.743  0.4422  0.3748  0.6570
 6598TIP3    H141209   2.635   3.538   1.667 -0.1078  2.7351 -0.5564
 6598TIP3    H241210   2.493   3.529   1.720  0.4683  0.2402  0.7428
 6599TIP3   OH241211   2.215   4.141   6.420  0.0004 -0.0460  0.3923
 6599TIP3    H141212   2.254   4.217   6.463 -2.6906  3.6152 -2.9065
 6599TIP3    H241213   2.139   4.119   6.474  1.4097 -1.2765  1.9676
 6600TIP3   OH241214   1.604   2.786  16.617 -0.1798  0.6839 -0.1942
 6600TIP3    H141215   1.536   2.782  16.550  0.8036 -0.7957 -1.1772
 6600TIP3    H241216   1.634   2.877  16.616  0.7780  0.4277 -2.8212
 6601TIP3   OH241217   0.291   2.438   2.846  0.1411  0.3388 -0.4663
 6601TIP3    H141218   0.219   2.420   2.786  0.3195 -1.4499 -0.2203
 6601TIP3    H241219   0.370   2.427   2.794  0.2663  1.2297 -0.4773
 6602TIP3   OH241220   0.898   1.257  17.037 -0.7207 -0.2908  0.2072
 6602TIP3    H141221   0.854   1.330  16.993 -1.0590 -1.0789 -0.8072
 6602TIP3    H241222   0.903   1.284  17.128 -1.8694  0.5154  0.0573
 6603TIP3   OH241223   5.875   1.905   3.793  0.0699  0.1441  0.1372
 6603TIP3    H141224   5.944   1.933   3.733  1.9202  0.1618  2.1495
 6603TIP3    H241225   5.863   1.812   3.773 -0.0354  0.3730 -0.8929
 6604TIP3   OH241226   4.479   0.931   0.447  0.4956  0.0354 -0.5201
 6604TIP3    H141227   4.495   0.869   0.377 -1.1094 -0.5832 -0.3814
 6604TIP3    H241228   4.473   1.016   0.403 -1.4804 -0.4661 -1.3060
 6605TIP3   OH241229   5.265   6.071  16.169  0.1349 -0.5383 -0.5475
 6605TIP3    H141230   5.223   6.013  16.232  1.3762 -0.3597  0.4932
 6605TIP3    H241231   5.348   6.096  16.210  1.0914 -0.5660 -2.3299
 6606TIP3   OH241232   1.822   1.907   6.223 -0.0409 -0.1775 -0.6883
 6606TIP3    H141233   1.829   2.002   6.215  2.4670 -0.2083  0.1094
 6606TIP3    H241234   1.738   1.892   6.267  1.4619  2.0536  3.4824
 6607TIP3   OH241235   3.655   6.183  14.687  0.1193  0.1325  0.0138
 6607TIP3    H141236   3.583   6.126  14.714 -0.5017  1.1792  0.6652
 6607TIP3    H241237   3.613   6.268  14.670  1.2369  0.8802  0.7957
 6608TIP3   OH241238   6.683   3.777   0.383  0.5339  0.2994  0.2842
 6608TIP3    H141239   6.660   3.817   0.299 -0.2499 -1.0202 -0.1451
 6608TIP3    H241240   6.632   3.697   0.387  1.5684 -0.3389  1.4333
 6609TIP3   OH241241   2.396   0.454  12.235  0.1453  0.0199 -0.1961
 6609TIP3    H141242   2.432   0.476  12.321 -0.7316 -1.3547  0.5615
 6609TIP3    H241243   2.335   0.525  12.216  1.1205  0.8795 -0.1793
 6610TIP3   OH241244   3.357   5.601   2.807 -0.5709 -0.2367  0.2461
 6610TIP3    H141245   3.447   5.594   2.839 -0.9058 -1.0871  1.0528
 6610TIP3    H241246   3.366   5.603   2.711  0.2950 -0.4768  0.3150
 6611TIP3   OH241247   5.527   1.130  13.792 -0.0791 -0.0715 -0.2173
 6611TIP3    H141248   5.447   1.161  13.749 -0.3573  1.1529  1.1078
 6611TIP3    H241249   5.582   1.097  13.720 -0.6167  1.6753 -1.5087
 6612TIP3   OH241250   0.865   3.447  11.840 -0.2044 -0.0073  0.0912
 6612TIP3    H141251   0.864   3.381  11.771  0.2265 -0.5209  0.5705
 6612TIP3    H241252   0.785   3.498  11.826 -0.1294 -0.1165 -0.7718
 6613TIP3   OH241253   5.118   6.741   5.415  0.4645  0.4419  0.3365
 6613TIP3    H141254   5.124   6.831   5.385 -0.1208  0.7644  1.1407
 6613TIP3    H241255   5.172   6.691   5.354 -0.4898  1.0918 -1.0740
 6614TIP3   OH241256   6.547   5.614   2.535 -0.2689  0.2375  0.1334
 6614TIP3    H141257   6.636   5.581   2.538  0.2817  1.7178  1.9821
 6614TIP3    H241258   6.501   5.566   2.604 -0.3024  1.0215  0.6694
 6615TIP3   OH241259   0.064   5.499  16.496 -0.2671 -0.6080 -0.2925
 6615TIP3    H141260  -0.001   5.510  16.427  0.7797  1.2910 -1.0560
 6615TIP3    H241261   0.034   5.557  16.567 -1.6413 -2.9618  1.1823
 6616TIP3   OH241262   1.083   1.927  13.012  0.4117 -0.3411  0.2792
 6616TIP3    H141263   1.128   1.942  12.928 -1.1991  1.7481 -0.3003
 6616TIP3    H241264   1.087   2.012  13.057  1.3329 -1.4482  2.4279
 6617TIP3   OH241265   0.381   1.828  13.299  0.2951 -0.5725 -0.0922
 6617TIP3    H141266   0.439   1.816  13.224 -1.2178 -0.8574 -1.2606
 6617TIP3    H241267   0.429   1.888  13.356  0.2682  2.1826 -2.6865
 6618TIP3   OH241268   3.480   4.971  16.713 -0.2991  0.4773  0.4732
 6618TIP3    H141269   3.530   4.985  16.793  2.8148  0.2446 -1.2628
 6618TIP3    H241270   3.453   4.880  16.717  1.2223  0.0078  0.5907
 6619TIP3   OH241271   0.735   2.480   5.581  0.2143 -0.7837 -0.2693
 6619TIP3    H141272   0.712   2.404   5.528 -1.0030  0.0651 -1.0092
 6619TIP3    H241273   0.677   2.475   5.657 -1.2400  0.3894 -1.2507
 6620TIP3   OH241274   0.575   5.715   0.674 -0.2191  0.1470 -0.4470
 6620TIP3    H141275   0.481   5.735   0.674  0.0483  1.4559 -0.8067
 6620TIP3    H241276   0.589   5.672   0.759 -1.0587  0.3754 -0.1770
 6621TIP3   OH241277   2.940   5.203   0.611 -0.3919 -0.4474  0.0712
 6621TIP3    H141278   2.850   5.175   0.595 -0.4461 -1.4028  1.8195
 6621TIP3    H241279   2.985   5.185   0.528 -1.3999 -1.7883 -0.2288
 6622TIP3   OH241280   5.193   6.276   1.557 -0.2607 -0.0023 -0.4686
 6622TIP3    H141281   5.230   6.364   1.551  0.0988 -0.1509 -0.4447
 6622TIP3    H241282   5.101   6.287   1.533 -0.5709  0.6160  0.8930
 6623TIP3   OH241283   1.864   5.195  15.911  0.0354  0.3782 -0.4008
 6623TIP3    H141284   1.881   5.177  15.819 -0.5858  1.5266 -0.7559
 6623TIP3    H241285   1.940   5.157  15.957  1.5136  1.7648 -1.5765
 6624TIP3   OH241286   3.430   0.488   1.208  0.0248  0.3676 -0.0804
 6624TIP3    H141287   3.390   0.478   1.294  0.5446  0.6339  0.1973
 6624TIP3    H241288   3.367   0.541   1.158 -0.5397 -0.2592 -0.0585
 6625TIP3   OH241289   0.947   5.472   4.032  0.5072  0.4388 -0.0886
 6625TIP3    H141290   0.937   5.483   3.938 -2.4340 -0.4314  0.0349
 6625TIP3    H241291   0.885   5.534   4.071  2.6513  1.8115  1.4079
 6626TIP3   OH241292   6.138   2.633   2.145  0.9128 -0.7056  0.0937
 6626TIP3    H141293   6.191   2.629   2.224 -0.3345 -0.0733  1.0056
 6626TIP3    H241294   6.156   2.720   2.108  0.1991 -0.3122  0.6498
 6627TIP3   OH241295   2.468   4.487  12.967 -0.0898  0.2011 -0.1474
 6627TIP3    H141296   2.509   4.497  13.052 -0.7944 -0.4182  0.2755
 6627TIP3    H241297   2.527   4.532  12.906  0.7223  0.1319  0.5735
 6628TIP3   OH241298   3.012   3.063   4.606  0.3016  0.1023 -0.6629
 6628TIP3    H141299   2.993   3.128   4.674  1.8404 -0.2508  0.1576
 6628TIP3    H241300   3.055   2.991   4.653 -0.6576 -1.1785 -1.6791
 6629TIP3   OH241301   4.035   3.055  17.307  0.0276  0.4032  0.0532
 6629TIP3    H141302   3.954   3.069  17.258 -0.1232  0.0049  0.1812
 6629TIP3    H241303   4.080   3.139  17.303 -0.4173  0.6452  0.0280
 6630TIP3   OH241304   0.520   5.605   4.731  0.2056 -0.3183  0.9145
 6630TIP3    H141305   0.607   5.628   4.764 -0.0480 -0.4450  1.6841
 6630TIP3    H241306   0.470   5.581   4.809 -0.1802 -1.3885  0.3651
 6631TIP3   OH241307   3.759   0.113  12.662 -0.5505  0.0682  0.0521
 6631TIP3    H141308   3.754   0.206  12.640 -1.3719 -0.0362 -0.2241
 6631TIP3    H241309   3.801   0.111  12.748 -1.2402  0.7380  0.4053
 6632TIP3   OH241310   2.340   5.714   5.116  0.3477 -0.2895  0.1808
 6632TIP3    H141311   2.394   5.793   5.125  2.1371 -1.4046 -0.2197
 6632TIP3    H241312   2.250   5.745   5.128  0.8512  2.0709 -1.5229
 6633TIP3   OH241313   0.559   1.498  14.070 -0.3480  0.5247 -0.9170
 6633TIP3    H141314   0.504   1.541  14.005 -0.7759  0.2509 -0.7358
 6633TIP3    H241315   0.645   1.490  14.027 -0.1749  1.8274 -0.8448
 6634TIP3   OH241316   3.429   1.290  13.940  0.1899  0.7314 -0.3427
 6634TIP3    H141317   3.420   1.299  14.035  1.5226  0.4746 -0.1703
 6634TIP3    H241318   3.389   1.206  13.920  0.0930  0.6876  0.0206
 6635TIP3   OH241319   1.695   5.175  11.677 -0.0695  0.2891 -0.3427
 6635TIP3    H141320   1.717   5.100  11.732 -0.8659 -0.7684 -1.4160
 6635TIP3    H241321   1.601   5.167  11.662 -0.5837  2.6057  1.0782
 6636TIP3   OH241322   3.126   4.971  14.955  0.9052  0.1387 -0.0315
 6636TIP3    H141323   3.137   4.916  15.032  1.2224 -0.2601 -0.3526
 6636TIP3    H241324   3.103   4.909  14.885  2.0717  0.3041 -0.5769
 6637TIP3   OH241325   2.781   0.025  10.468  0.1134 -0.2917 -0.7343
 6637TIP3    H141326   2.813  -0.019  10.547 -1.2251 -1.7212 -0.9352
 6637TIP3    H241327   2.857   0.073  10.435  1.1746 -1.0818  0.4481
 6638TIP3   OH241328   0.142   0.698  13.440  0.0109 -0.0579  0.4147
 6638TIP3    H141329   0.215   0.756  13.420 -0.8552  0.7137 -0.6815
 6638TIP3    H241330   0.088   0.748  13.501 -0.1602 -0.1645  0.3522
 6639TIP3   OH241331   4.033   0.552   5.092 -0.3489  0.2681  0.2006
 6639TIP3    H141332   3.989   0.619   5.038 -1.6198  1.2467  2.3270
 6639TIP3    H241333   4.103   0.599   5.136 -0.2950 -0.1560  0.5718
 6640TIP3   OH241334   3.658   1.797   3.410  0.0794 -0.1437 -0.4064
 6640TIP3    H141335   3.704   1.765   3.332  0.3991  0.9203 -0.6750
 6640TIP3    H241336   3.723   1.851   3.455 -0.2039 -0.4894  0.4385
 6641TIP3   OH241337   4.383   5.473   0.112 -0.0105  0.1111  0.1943
 6641TIP3    H141338   4.321   5.531   0.067  1.6422  0.6828 -1.4490
 6641TIP3    H241339   4.438   5.437   0.043 -0.2512 -2.6059  1.3064
 6642TIP3   OH241340   1.304   1.292  14.297  0.1135  0.5436  0.5225
 6642TIP3    H141341   1.244   1.218  14.288 -0.8311  1.1444  1.6489
 6642TIP3    H241342   1.389   1.252  14.313 -0.2572 -0.3083  0.4272
 6643TIP3   OH241343   2.216   3.028  15.667  0.4045  0.3571 -0.3535
 6643TIP3    H141344   2.245   2.939  15.650  1.6901  0.8103 -0.7016
 6643TIP3    H241345   2.203   3.066  15.580  0.8660  0.8019 -0.2341
 6644TIP3   OH241346   4.703   6.550   6.225 -0.1569 -0.2629 -0.4955
 6644TIP3    H141347   4.611   6.578   6.224 -0.1770 -0.2436 -3.0098
 6644TIP3    H241348   4.749   6.623   6.266 -1.0045  0.7514 -1.2682
 6645TIP3   OH241349   0.832   0.326   2.078  0.1355 -0.4402  0.6487
 6645TIP3    H141350   0.807   0.349   2.167 -2.7847  1.0540 -0.3972
 6645TIP3    H241351   0.885   0.399   2.047 -0.7078  0.1383  0.5195
 6646TIP3   OH241352   6.458   3.414  10.624 -0.0883 -0.1034 -0.0921
 6646TIP3    H141353   6.515   3.483  10.591 -1.4842  1.0990 -0.0904
 6646TIP3    H241354   6.423   3.372  10.546 -0.6084  0.3741 -0.1222
 6647TIP3   OH241355   1.113   3.955  13.177 -0.3254 -0.0353 -0.5495
 6647TIP3    H141356   1.110   3.915  13.263 -0.1271 -2.9072 -1.7721
 6647TIP3    H241357   1.150   4.042  13.192 -1.9090  0.2506  2.4359
 6648TIP3   OH241358   1.020   6.034   0.870 -0.1624 -0.0063  0.5146
 6648TIP3    H141359   0.993   5.970   0.936 -0.7397 -0.8719 -0.5317
 6648TIP3    H241360   0.987   5.999   0.788  1.8340  0.2548 -0.4738
 6649TIP3   OH241361   6.089   3.943   4.505 -0.1564 -0.0327  0.2938
 6649TIP3    H141362   5.996   3.925   4.516  0.1541 -1.8167  0.3292
 6649TIP3    H241363   6.132   3.860   4.527  1.4136  0.6287 -0.1433
 6650TIP3   OH241364   0.318   3.364   0.187 -0.0151  0.4450  0.0311
 6650TIP3    H141365   0.260   3.417   0.241  0.2102  0.4786  0.2432
 6650TIP3    H241366   0.362   3.426   0.129 -0.0660  0.4400 -0.0124
 6651TIP3   OH241367   5.724   5.177   2.139 -0.0016 -0.6996 -0.6529
 6651TIP3    H141368   5.755   5.262   2.168  1.4935 -1.0185 -1.2055
 6651TIP3    H241369   5.706   5.128   2.219 -0.5012 -0.0019 -0.3360
 6652TIP3   OH241370   3.921   4.104   0.369 -0.1769  0.4418 -0.1079
 6652TIP3    H141371   3.925   4.009   0.382  0.7084  0.3311 -1.0698
 6652TIP3    H241372   3.862   4.135   0.438 -0.4493 -0.7976  0.2419
 6653TIP3   OH241373   1.147   2.726  15.042  0.3564  0.6935  0.0960
 6653TIP3    H141374   1.205   2.653  15.066 -1.9035 -1.1825  0.2959
 6653TIP3    H241375   1.094   2.741  15.121  0.1836  1.9526 -0.2467
 6654TIP3   OH241376   6.227   5.455   3.158  0.0025 -0.3302  0.1402
 6654TIP3    H141377   6.247   5.416   3.243  1.0686 -1.3919 -0.5641
 6654TIP3    H241378   6.240   5.549   3.172  0.9928 -0.5632  0.9558
 6655TIP3   OH241379   3.068   6.617  11.553 -0.3042  0.0185  0.2008
 6655TIP3    H141380   3.158   6.648  11.541 -0.1272 -0.0575  1.2487
 6655TIP3    H241381   3.041   6.654  11.637  0.3951 -3.6924  2.2773
 6656TIP3   OH241382   4.176   6.435  17.187  0.3791  0.4219 -0.2846
 6656TIP3    H141383   4.203   6.510  17.239 -1.8363  0.4115  0.9917
 6656TIP3    H241384   4.099   6.465  17.139  1.0523 -0.2563 -1.8746
 6657TIP3   OH241385   2.704   5.224   4.911 -0.0061  0.3248 -0.2670
 6657TIP3    H141386   2.790   5.264   4.917 -0.2254  0.9698 -1.2100
 6657TIP3    H241387   2.705   5.176   4.828 -0.0691 -0.8881  0.4023
 6658TIP3   OH241388   3.478   4.110  12.418  0.1325  0.4611 -0.1246
 6658TIP3    H141389   3.384   4.102  12.435  0.1303  1.7124  0.5868
 6658TIP3    H241390   3.519   4.054  12.484 -0.1301 -1.2892 -1.3840
 6659TIP3   OH241391   3.384   0.490   4.442  0.2149 -0.1211 -0.0429
 6659TIP3    H141392   3.336   0.530   4.370 -0.0635  0.6559  0.5534
 6659TIP3    H241393   3.330   0.508   4.519  1.3041  0.5298  0.5958
 6660TIP3   OH241394   0.370   5.327   4.381  0.1978 -0.0464  0.3020
 6660TIP3    H141395   0.459   5.362   4.385 -0.3002  1.4908 -0.9352
 6660TIP3    H241396   0.314   5.401   4.405 -0.8633 -0.1800 -1.5569
 6661TIP3   OH241397   3.956   3.084   2.182 -0.3293 -0.3363  0.2427
 6661TIP3    H141398   3.979   3.166   2.225 -3.3269  0.7367  0.0710
 6661TIP3    H241399   3.948   3.021   2.253 -0.2957  0.1263  0.6621
 6662TIP3   OH241400   4.559   6.172  13.417  0.4429 -0.0398  0.3331
 6662TIP3    H141401   4.508   6.164  13.498  1.3447 -0.7387  0.8564
 6662TIP3    H241402   4.610   6.091  13.412  0.3301 -0.0572 -0.9988
 6663TIP3   OH241403   5.535   2.400  17.285 -0.0499 -0.5514  0.1637
 6663TIP3    H141404   5.498   2.316  17.258 -0.6954 -0.2784  0.1746
 6663TIP3    H241405   5.596   2.423  17.215 -2.8094  0.8857 -1.9487
 6664TIP3   OH241406   1.520   4.502  14.335  0.3327 -0.2259 -0.2130
 6664TIP3    H141407   1.554   4.417  14.364 -0.4618  0.0113  1.5583
 6664TIP3    H241408   1.598   4.556  14.324  0.8205 -1.0604 -0.9632
 6665TIP3   OH241409   5.762   6.148  14.520 -0.4487 -0.2172  0.3318
 6665TIP3    H141410   5.728   6.228  14.481 -1.7758 -0.7326  0.3994
 6665TIP3    H241411   5.810   6.177  14.598 -0.2744  0.5558 -0.0532
 6666TIP3   OH241412   4.869   6.500  12.333 -0.0621 -0.3828 -0.0805
 6666TIP3    H141413   4.942   6.521  12.392  0.1987 -1.0280 -0.1702
 6666TIP3    H241414   4.893   6.416  12.294 -0.3171 -0.0487 -0.9821
 6667TIP3   OH241415   1.279   6.053   0.718 -0.3708  0.3332 -0.0578
 6667TIP3    H141416   1.353   6.096   0.760  0.2719 -2.0533  1.4844
 6667TIP3    H241417   1.211   6.052   0.785 -1.3863  1.4144 -1.0441
 6668TIP3   OH241418   1.572   5.275  17.278 -0.2340 -0.0277  0.3152
 6668TIP3    H141419   1.667   5.288  17.277 -0.1408 -0.3820 -1.9460
 6668TIP3    H241420   1.560   5.190  17.236 -1.6717  1.7560 -3.3030
 6669TIP3   OH241421   4.881   5.092   3.593  0.0483  0.3659 -0.5275
 6669TIP3    H141422   4.971   5.110   3.620  0.9476 -2.7579 -0.9386
 6669TIP3    H241423   4.841   5.050   3.669 -1.4772  2.6036  0.0034
 6670TIP3   OH241424   4.581   6.008   2.613  0.1215 -0.4541 -0.2073
 6670TIP3    H141425   4.520   6.044   2.676 -0.6116 -1.8980 -0.0443
 6670TIP3    H241426   4.593   6.077   2.548 -2.3434 -0.3818 -0.6897
 6671TIP3   OH241427   4.490   2.840   3.357 -0.5237 -0.1264  0.5242
 6671TIP3    H141428   4.570   2.808   3.398 -0.4584  2.0463  2.2733
 6671TIP3    H241429   4.492   2.803   3.268  1.9873 -0.7787  0.7796
 6672TIP3   OH241430   2.436   1.040  16.262  0.5207  0.3147  0.4980
 6672TIP3    H141431   2.493   1.061  16.188 -0.3758  1.4347  0.1083
 6672TIP3    H241432   2.385   0.965  16.233 -0.0105  0.9059 -0.1463
 6673TIP3   OH241433   2.028   6.747   3.188  0.0605  0.1676  0.4702
 6673TIP3    H141434   1.987   6.728   3.103  0.6606 -1.1749  0.4541
 6673TIP3    H241435   1.973   6.815   3.226  0.8612  2.2375 -1.8198
 6674TIP3   OH241436   4.016   5.822  13.582  0.3378 -0.1381 -0.3778
 6674TIP3    H141437   3.965   5.821  13.663  0.6935  0.5476 -0.1320
 6674TIP3    H241438   4.046   5.732  13.571  0.4729 -0.1951  0.3807
 6675TIP3   OH241439   2.491   6.679  13.900  0.2941  0.7665  0.1080
 6675TIP3    H141440   2.480   6.660  13.993 -0.8342  0.3177 -0.1033
 6675TIP3    H241441   2.431   6.620  13.855  1.6135  0.1924 -1.0007
 6676TIP3   OH241442   2.189   6.581  12.166 -0.9451  0.0827 -0.7075
 6676TIP3    H141443   2.191   6.655  12.104  1.8511  1.6370  0.9832
 6676TIP3    H241444   2.148   6.617  12.244  0.0298 -0.2561 -0.0222
 6677TIP3   OH241445   6.522   6.462  13.961 -0.9476  0.0976  0.3347
 6677TIP3    H141446   6.514   6.500  14.049 -1.9799  1.6882 -0.4001
 6677TIP3    H241447   6.599   6.406  13.966 -0.2645  1.1180  1.9125
 6678TIP3   OH241448   0.934   3.115  16.639 -0.3628  0.2326 -0.0490
 6678TIP3    H141449   0.919   3.184  16.574  1.7282  0.7532 -0.0373
 6678TIP3    H241450   0.872   3.136  16.710 -2.6306 -0.3085 -1.7500
 6679TIP3   OH241451   1.243   6.114   0.449  0.2084  0.3796  0.1264
 6679TIP3    H141452   1.246   6.093   0.542 -0.0855 -0.4503 -0.0424
 6679TIP3    H241453   1.158   6.154   0.436  0.3039  0.6206  0.2383
 6680TIP3   OH241454   5.514   0.742   1.142 -0.5080 -0.2489  0.1011
 6680TIP3    H141455   5.610   0.749   1.148 -0.6777  1.2515  1.7785
 6680TIP3    H241456   5.483   0.832   1.143 -2.0189 -0.7422  1.6671
 6681TIP3   OH241457   1.315   3.138  16.957 -0.5158  0.1678  0.1936
 6681TIP3    H141458   1.239   3.115  17.010 -0.3954  0.8056  0.6477
 6681TIP3    H241459   1.282   3.206  16.897 -0.8854 -1.1554 -1.1791
 6682TIP3   OH241460   0.010   2.858  12.823  0.6256 -0.5549  0.4044
 6682TIP3    H141461   0.048   2.879  12.738 -0.4973  0.1412  0.0378
 6682TIP3    H241462  -0.072   2.814  12.802 -0.8473  1.7118  1.0192
 6683TIP3   OH241463   1.749   2.351  15.312  0.1743 -0.1106 -0.3966
 6683TIP3    H141464   1.702   2.320  15.389  0.4822 -0.4859 -0.3547
 6683TIP3    H241465   1.686   2.407  15.266 -0.0974 -0.0997 -0.0138
 6684TIP3   OH241466   6.653   6.504  16.982  0.7709  0.1677  0.8870
 6684TIP3    H141467   6.570   6.521  17.028 -0.8955 -1.2329 -1.3909
 6684TIP3    H241468   6.707   6.459  17.047 -0.5924  0.2944  2.1769
 6685TIP3   OH241469   4.688   1.499  13.721 -0.1794  0.0730  0.1780
 6685TIP3    H141470   4.658   1.454  13.801 -0.8417 -0.2106 -0.2226
 6685TIP3    H241471   4.708   1.588  13.750  1.2835 -0.4897  1.0134
 6686TIP3   OH241472   6.553   3.458  14.766 -0.0254  0.6088 -0.1302
 6686TIP3    H141473   6.589   3.518  14.701  0.2606 -0.6778 -1.1986
 6686TIP3    H241474   6.623   3.394  14.781 -0.9212 -0.4468 -0.2981
 6687TIP3   OH241475   2.095   0.545   2.675 -0.1799 -0.3443 -0.3301
 6687TIP3    H141476   2.078   0.615   2.737 -0.2272  0.6170 -1.3872
 6687TIP3    H241477   2.111   0.467   2.729  0.5980  0.6331  0.8826
 6688TIP3   OH241478   2.033   4.220   3.696 -0.0690 -0.6535  0.6858
 6688TIP3    H141479   1.957   4.270   3.725  0.8865  2.5025 -1.7102
 6688TIP3    H241480   2.084   4.205   3.775 -0.8334  1.4985  1.6489
 6689TIP3   OH241481   6.052   3.978  13.923 -0.2593  0.0157 -0.0905
 6689TIP3    H141482   6.119   3.967  13.990 -0.5746 -3.4864 -0.2024
 6689TIP3    H241483   5.978   4.016  13.969  0.7921  1.3046  0.6273
 6690TIP3   OH241484   5.884   2.030   1.244  0.8776 -0.3265  0.3533
 6690TIP3    H141485   5.832   2.097   1.199  1.0701 -0.1120  0.4494
 6690TIP3    H241486   5.858   2.037   1.336  0.9536 -0.3332  0.3747
 6691TIP3   OH241487   3.709   0.412  15.226  0.1513  0.7689 -0.1030
 6691TIP3    H141488   3.677   0.464  15.300 -0.8853  0.5428 -0.3731
 6691TIP3    H241489   3.650   0.433  15.154 -0.5577 -1.0561 -0.1114
 6692TIP3   OH241490   1.748   4.703   6.022 -0.4840 -0.1674  0.5591
 6692TIP3    H141491   1.689   4.747   6.083  1.6287  2.6408  0.7992
 6692TIP3    H241492   1.826   4.684   6.074  0.0599 -0.8315 -0.4707
 6693TIP3   OH241493   4.701   3.067  14.783 -0.3410 -0.1927  0.0482
 6693TIP3    H141494   4.691   3.160  14.759  1.5744  0.1972  0.5515
 6693TIP3    H241495   4.612   3.036  14.797 -1.0162  1.6540  0.1375
 6694TIP3   OH241496   1.906   4.219  12.671 -0.5102  0.4297 -0.3181
 6694TIP3    H141497   1.857   4.272  12.734  1.4083  0.3406  1.3181
 6694TIP3    H241498   1.952   4.154  12.724  0.3348 -0.3408 -1.9156
 6695TIP3   OH241499   1.364   0.785  16.605 -0.3663 -0.0375  0.0386
 6695TIP3    H141500   1.280   0.790  16.560 -0.8587 -0.0910  0.9333
 6695TIP3    H241501   1.359   0.704  16.657 -0.1217  0.4144  0.7831
 6696TIP3   OH241502   0.539   5.069   1.640 -0.5177  0.0185  0.0430
 6696TIP3    H141503   0.585   5.038   1.562 -0.6071 -0.3229  0.1283
 6696TIP3    H241504   0.468   5.007   1.653 -1.4508  0.9384 -0.5014
 6697TIP3   OH241505   0.905   4.087  16.232 -0.0320  0.4058 -0.3549
 6697TIP3    H141506   0.968   4.136  16.178  0.2449  0.9393  0.4292
 6697TIP3    H241507   0.956   4.015  16.269 -0.0147  0.5232 -0.1496
 6698TIP3   OH241508   5.744   2.515  11.085 -0.2250  0.5934  0.0198
 6698TIP3    H141509   5.836   2.490  11.075  0.4547  2.5129  0.9506
 6698TIP3    H241510   5.741   2.607  11.059 -1.0223  1.7898  3.6624
 6699TIP3   OH241511   6.067   6.576   0.919  0.0693  0.5642  0.4293
 6699TIP3    H141512   6.118   6.623   0.854 -1.4876  1.4896 -0.1930
 6699TIP3    H241513   6.124   6.571   0.996  1.9810 -0.6398 -0.9819
 6700TIP3   OH241514   4.968   3.660   6.046 -0.3541  0.1987 -0.0136
 6700TIP3    H141515   5.034   3.725   6.023 -0.3470 -0.3669 -1.6826
 6700TIP3    H241516   4.892   3.711   6.074  0.4246  0.8663  0.9389
 6701TIP3   OH241517   6.244   1.908   3.148  0.4345 -0.1963 -0.0272
 6701TIP3    H141518   6.235   1.816   3.121  0.0323 -0.0888 -0.2494
 6701TIP3    H241519   6.212   1.909   3.238 -0.6852 -0.0417 -0.4225
 6702TIP3   OH241520   4.795   4.769  15.165 -0.2830  0.3804  0.2630
 6702TIP3    H141521   4.840   4.776  15.081  1.0104  1.1289  0.9892
 6702TIP3    H241522   4.855   4.718  15.219 -0.8800  0.3291  0.8756
 6703TIP3   OH241523   4.052   1.602  11.065 -0.2160 -0.3161  0.4026
 6703TIP3    H141524   3.961   1.576  11.074 -0.1164 -0.5597  0.7274
 6703TIP3    H241525   4.101   1.540  11.119 -0.0221  0.8448  1.6272
 6704TIP3   OH241526   4.028   3.789   0.333  0.2659 -0.2369 -0.2856
 6704TIP3    H141527   4.116   3.820   0.353  0.8359 -1.0686 -1.4172
 6704TIP3    H241528   4.012   3.817   0.243  0.0570 -1.5308 -0.6763
 6705TIP3   OH241529   3.921   2.098   4.116  0.2393 -0.3905  0.1314
 6705TIP3    H141530   3.947   2.128   4.029 -1.1210  1.3357  0.2571
 6705TIP3    H241531   3.936   2.003   4.115  1.5688 -0.1922 -1.4814
 6706TIP3   OH241532   3.872   3.508  15.486  0.0864 -0.0954  0.2392
 6706TIP3    H141533   3.865   3.435  15.424 -1.7742  0.0418  0.2288
 6706TIP3    H241534   3.799   3.495  15.547  0.6253  0.9297  1.1372
 6707TIP3   OH241535   3.960   3.966  15.664  0.5352 -0.0903 -0.2436
 6707TIP3    H141536   3.906   3.957  15.585 -2.1449 -0.0094  1.4547
 6707TIP3    H241537   3.963   3.878  15.701  0.1658  0.2024  0.5113
 6708TIP3   OH241538   3.966   0.115  11.148 -0.2111  0.1615 -0.6828
 6708TIP3    H141539   4.043   0.057  11.142 -0.6543 -0.3976 -1.0147
 6708TIP3    H241540   3.971   0.169  11.070  0.5913  1.0816 -0.0294
 6709TIP3   OH241541   0.349   2.538   3.868 -0.1016  0.2765  0.2197
 6709TIP3    H141542   0.404   2.575   3.799  0.8744  0.7751  1.2424
 6709TIP3    H241543   0.275   2.599   3.874 -0.8490 -0.4291 -1.1985
 6710TIP3   OH241544   2.034   0.503  14.154  0.0011 -0.0286 -0.1312
 6710TIP3    H141545   2.127   0.524  14.166  0.4931 -2.1103  0.0875
 6710TIP3    H241546   2.001   0.490  14.243 -0.5795  0.9551 -0.1947
 6711TIP3   OH241547   5.776   2.476   5.704  0.1266  0.0613 -0.9465
 6711TIP3    H141548   5.832   2.464   5.781 -1.5771 -0.3719  0.2917
 6711TIP3    H241549   5.833   2.518   5.640  1.6979  0.1737  0.4275
 6712TIP3   OH241550   6.040   1.480   4.524 -0.0930  0.1175  0.2766
 6712TIP3    H141551   6.085   1.406   4.564 -2.3774 -1.6444 -0.2444
 6712TIP3    H241552   6.097   1.506   4.451  0.6408 -1.2588  0.3315
 6713TIP3   OH241553   3.652   5.421   3.843  0.2960 -0.2258  0.0140
 6713TIP3    H141554   3.675   5.513   3.837  0.1383 -0.2140 -0.4686
 6713TIP3    H241555   3.707   5.379   3.776 -1.2286 -0.1663 -1.3174
 6714TIP3   OH241556   4.474   0.410   3.008  0.1687  0.2410  0.0613
 6714TIP3    H141557   4.525   0.449   2.937 -0.1412  0.2316 -0.1704
 6714TIP3    H241558   4.384   0.441   2.993 -0.2345 -1.1527 -0.5692
 6715TIP3   OH241559   2.813   0.105  13.897 -0.1130  0.2727  0.0364
 6715TIP3    H141560   2.843   0.031  13.950 -0.6800  0.8424  1.1771
 6715TIP3    H241561   2.809   0.179  13.958  2.6044  1.8591 -1.4947
 6716TIP3   OH241562   1.212   5.358  13.184  0.5550 -0.2762  0.4085
 6716TIP3    H141563   1.124   5.366  13.146  1.2150 -0.3211 -1.2225
 6716TIP3    H241564   1.238   5.268  13.164  0.7203 -0.4788  1.4917
 6717TIP3   OH241565   5.514   5.387  12.288  0.0356 -0.1802 -0.1722
 6717TIP3    H141566   5.512   5.472  12.333  0.4910 -0.0153 -0.4579
 6717TIP3    H241567   5.507   5.409  12.195  0.4792 -0.4332 -0.2699
 6718TIP3   OH241568   2.307   3.461   1.774  0.3379 -0.3826  0.5697
 6718TIP3    H141569   2.346   3.457   1.861  0.0952 -0.9739  0.6567
 6718TIP3    H241570   2.328   3.376   1.735  1.8414  0.4594 -0.5645
 6719TIP3   OH241571   2.733   6.064   3.659  0.1910 -0.1367  0.6323
 6719TIP3    H141572   2.757   6.080   3.568  0.5108 -0.0667  0.7312
 6719TIP3    H241573   2.803   6.102   3.711 -0.8130  1.3243  0.9666
 6720TIP3   OH241574   2.829   2.023  14.707 -0.2426  0.0841 -0.0908
 6720TIP3    H141575   2.757   2.052  14.651 -1.2347 -0.2257  0.9938
 6720TIP3    H241576   2.856   2.102  14.754 -2.0928 -0.3960  1.9153
 6721TIP3   OH241577   0.405   0.678   1.776  0.3086 -0.4434  0.2278
 6721TIP3    H141578   0.325   0.686   1.829  0.4664 -2.0719  0.7640
 6721TIP3    H241579   0.460   0.617   1.825  1.3605 -0.3128 -0.7583
 6722TIP3   OH241580   2.664   1.104  11.309 -0.3057 -0.1574  0.4238
 6722TIP3    H141581   2.681   1.108  11.215  0.8308  0.0821  0.6173
 6722TIP3    H241582   2.576   1.069  11.317 -2.0635  3.5682 -0.8290
 6723TIP3   OH241583   5.220   0.656   0.595  0.4692  0.2547  0.1053
 6723TIP3    H141584   5.161   0.624   0.662  0.5231  1.7632  0.9208
 6723TIP3    H241585   5.301   0.606   0.607  0.3185  0.1903  0.8636
 6724TIP3   OH241586   1.187   0.122   4.975 -0.3224 -0.1381 -0.4498
 6724TIP3    H141587   1.128   0.197   4.983 -0.3957 -0.2489  0.0717
 6724TIP3    H241588   1.142   0.051   5.022  0.1581 -0.2676 -0.1864
 6725TIP3   OH241589   0.907   2.746   0.322 -0.3393  0.2729  0.3016
 6725TIP3    H141590   0.937   2.793   0.244 -0.4156 -1.3668 -0.7694
 6725TIP3    H241591   0.987   2.723   0.368 -0.2962  1.3300  0.7810
 6726TIP3   OH241592   6.505   5.873  14.728  0.3513  0.0377  0.2489
 6726TIP3    H141593   6.455   5.853  14.648 -0.7523 -0.4823  1.0380
 6726TIP3    H241594   6.486   5.965  14.745 -1.1002 -0.3573  1.0063
 6727TIP3   OH241595   6.184   2.820  16.134  0.5171  0.1423  0.9811
 6727TIP3    H141596   6.234   2.887  16.088 -0.5765  1.0752  1.0890
 6727TIP3    H241597   6.187   2.743  16.077  0.6836  0.7052  0.2140
 6728TIP3   OH241598   2.052   6.256   0.798  0.3903 -0.3255  0.1912
 6728TIP3    H141599   2.010   6.247   0.712  0.0627  3.2724 -0.1934
 6728TIP3    H241600   1.992   6.213   0.859 -0.1246 -1.6476 -1.2030
 6729TIP3   OH241601   2.033   2.169   3.430 -0.4109  0.4529  0.1226
 6729TIP3    H141602   2.086   2.132   3.359 -2.2409 -1.7722 -0.1897
 6729TIP3    H241603   1.959   2.210   3.385 -0.4908  0.9231  0.6797
 6730TIP3   OH241604   3.279   0.592  16.049  0.3483 -0.6266  0.8482
 6730TIP3    H141605   3.287   0.584  15.954  1.1745 -3.3842  1.0656
 6730TIP3    H241606   3.215   0.524  16.073 -0.2670  0.3971  2.2351
 6731TIP3   OH241607   5.252   0.158   5.630  0.1230 -0.4579 -0.1941
 6731TIP3    H141608   5.236   0.096   5.702  0.7408 -0.7418 -0.2958
 6731TIP3    H241609   5.169   0.205   5.621  0.7697  1.3985  2.4067
 6732TIP3   OH241610   3.285   0.120   2.849  0.2130 -0.6342  0.3768
 6732TIP3    H141611   3.241   0.055   2.905 -1.6443  1.0923  1.0450
 6732TIP3    H241612   3.216   0.151   2.791  0.4677  2.1511  1.4098
 6733TIP3   OH241613   5.799   4.786  16.429 -0.0957  0.2718  0.0076
 6733TIP3    H141614   5.716   4.741  16.412  0.0055  0.3358 -0.7018
 6733TIP3    H241615   5.854   4.762  16.354  0.8488 -0.5165  0.9228
 6734TIP3   OH241616   1.667   4.552  16.274  0.1761 -0.6407 -0.6137
 6734TIP3    H141617   1.736   4.607  16.237 -0.0346  0.2087  0.2380
 6734TIP3    H241618   1.586   4.591  16.242 -0.0809  0.9390  1.7686
 6735TIP3   OH241619   0.357   3.253  12.678  0.5778 -0.4565 -0.5002
 6735TIP3    H141620   0.346   3.208  12.595  0.7798 -0.8479 -0.3162
 6735TIP3    H241621   0.268   3.268  12.709  0.4991 -2.6509  0.4612
 6736TIP3   OH241622   6.325   6.326  10.799  0.4704  0.6020  0.1461
 6736TIP3    H141623   6.329   6.416  10.768  1.1307  0.5281  0.0039
 6736TIP3    H241624   6.401   6.284  10.760 -0.4909 -0.3455 -0.7923
 6737TIP3   OH241625   4.824   6.213   3.216  0.4756 -0.0583  0.4539
 6737TIP3    H141626   4.867   6.170   3.290 -0.2451 -1.9241 -0.1545
 6737TIP3    H241627   4.745   6.160   3.201  0.9475 -0.1399 -2.0614
 6738TIP3   OH241628   4.692   6.246   3.702  0.2681  0.3268 -0.1363
 6738TIP3    H141629   4.708   6.337   3.728 -2.3158  0.7853  0.0619
 6738TIP3    H241630   4.598   6.241   3.689  0.3624 -2.3308 -0.2296
 6739TIP3   OH241631   1.960   6.079   1.923 -0.0308  0.2317 -0.0423
 6739TIP3    H141632   1.934   6.077   2.015  0.3505 -1.8223  0.0710
 6739TIP3    H241633   1.884   6.114   1.877  0.0496  2.0475  1.0932
 6740TIP3   OH241634   1.583   2.968  16.219  0.4067  0.0148  0.4805
 6740TIP3    H141635   1.537   2.997  16.298 -0.4504  1.2554 -0.4488
 6740TIP3    H241636   1.534   2.891  16.190  1.5023 -1.2571  1.8475
 6741TIP3   OH241637   4.682   5.289   2.422  0.2095 -0.1528 -0.0609
 6741TIP3    H141638   4.653   5.379   2.405 -0.4070 -0.2892  0.2345
 6741TIP3    H241639   4.712   5.291   2.513 -0.4655 -0.4098  0.1674
 6742TIP3   OH241640   1.400   2.797  14.494  0.0411  0.1678  0.5670
 6742TIP3    H141641   1.378   2.809  14.401 -0.7670 -0.5210  0.6669
 6742TIP3    H241642   1.496   2.795  14.495  0.1023 -3.3651 -0.7381
 6743TIP3   OH241643   4.184   3.288  14.281  0.1043  0.1441  0.4593
 6743TIP3    H141644   4.228   3.217  14.234 -1.2598  0.0724 -0.7595
 6743TIP3    H241645   4.169   3.253  14.369 -2.3723 -1.9420 -0.6631
 6744TIP3   OH241646   1.179   2.981  13.131 -0.3557  0.1778  0.5897
 6744TIP3    H141647   1.100   2.954  13.178 -0.7852 -1.9169 -1.1425
 6744TIP3    H241648   1.177   3.077  13.132 -1.3607  0.1979  3.0163
 6745TIP3   OH241649   4.916   6.674   0.801  0.7350  0.3135 -0.2245
 6745TIP3    H141650   4.910   6.764   0.832 -0.5075  0.5956 -1.2152
 6745TIP3    H241651   4.877   6.621   0.871 -2.8401  1.0121 -1.4872
 6746TIP3   OH241652   4.929   6.078  11.768 -0.1981  0.0993 -0.1341
 6746TIP3    H141653   4.961   6.060  11.680 -0.3457  0.6277 -0.2996
 6746TIP3    H241654   4.838   6.105  11.756 -0.0546  0.7132  0.1237
 6747TIP3   OH241655   1.943   4.747   0.597  0.0676 -0.6375 -0.1976
 6747TIP3    H141656   1.848   4.733   0.596 -0.0477  0.0389 -2.0342
 6747TIP3    H241657   1.961   4.792   0.514  1.9165 -0.2198  0.4003
 6748TIP3   OH241658   0.081   2.548  12.380  0.5132 -0.5146 -0.6880
 6748TIP3    H141659   0.151   2.495  12.418  0.2458 -0.7447 -0.5090
 6748TIP3    H241660   0.101   2.550  12.286  1.3392  0.3064 -0.5063
 6749TIP3   OH241661   1.505   1.214  16.476 -0.3838  0.6168 -0.1856
 6749TIP3    H141662   1.412   1.219  16.456 -0.1049  0.1656 -1.7615
 6749TIP3    H241663   1.525   1.120  16.475  0.0637  0.7045  0.2287
 6750TIP3   OH241664   4.724   5.427   0.226  0.1682  0.0428  0.0076
 6750TIP3    H141665   4.715   5.354   0.164  1.0598  0.5404 -0.7299
 6750TIP3    H241666   4.728   5.505   0.170 -0.9113  0.6934  0.7884
 6751TIP3   OH241667   1.229   1.506  15.426 -0.2476  0.0533 -0.2756
 6751TIP3    H141668   1.198   1.417  15.436 -1.3930  0.3719 -0.8906
 6751TIP3    H241669   1.229   1.542  15.515 -0.8421 -0.2131 -0.1683
 6752TIP3   OH241670   0.323   5.940  11.662 -0.1108  0.4201  0.2880
 6752TIP3    H141671   0.396   5.999  11.644  0.4168 -0.3489 -0.1739
 6752TIP3    H241672   0.316   5.938  11.757 -0.4124  1.5355  0.3079
 6753TIP3   OH241673   4.586   4.660  13.456 -0.1583  0.7761 -0.0300
 6753TIP3    H141674   4.624   4.734  13.503 -1.1383  0.1972  1.8043
 6753TIP3    H241675   4.525   4.700  13.394 -0.9861  1.5422  1.2210
 6754TIP3   OH241676   6.753   5.293  12.762  0.1915  0.0367  0.0741
 6754TIP3    H141677   6.695   5.290  12.839  1.5579  0.2291  1.1370
 6754TIP3    H241678   6.786   5.203  12.754  2.2776  0.6280  1.4917
 6755TIP3   OH241679   4.022   1.507  16.317 -0.7209 -0.5250  0.1194
 6755TIP3    H141680   3.974   1.469  16.244 -0.0497  0.2866 -0.7528
 6755TIP3    H241681   3.966   1.578  16.349 -1.2957 -1.2617  0.8164
 6756TIP3   OH241682   5.553   3.906  16.997 -0.7848  0.0044 -0.8584
 6756TIP3    H141683   5.621   3.947  17.051  0.4300 -0.4165 -2.0004
 6756TIP3    H241684   5.479   3.894  17.056  0.3037  0.0473  0.5654
 6757TIP3   OH241685   3.292   4.570  14.610 -0.4002 -0.3867  0.0199
 6757TIP3    H141686   3.282   4.651  14.560 -0.6038  0.3864  1.2755
 6757TIP3    H241687   3.385   4.551  14.607 -0.5346 -0.9431 -1.5244
 6758TIP3   OH241688   1.910   3.729   6.181 -0.4813  0.2373  0.5278
 6758TIP3    H141689   1.963   3.765   6.252  0.8658  1.1558 -0.8537
 6758TIP3    H241690   1.966   3.738   6.103 -2.1188 -0.1315 -0.7561
 6759TIP3   OH241691   6.245   0.598  14.210  0.3353  0.0856  0.3165
 6759TIP3    H141692   6.217   0.641  14.290  1.5279 -0.0963  0.8531
 6759TIP3    H241693   6.340   0.594  14.217  0.3471 -1.4048 -0.3462
 6760TIP3   OH241694   4.949   1.354   5.008 -0.1254  0.5222 -0.3176
 6760TIP3    H141695   4.905   1.284   4.960 -0.7231  0.8960 -0.3173
 6760TIP3    H241696   4.939   1.431   4.953 -0.4893  0.8715  0.2365
 6761TIP3   OH241697   4.948   1.068   3.089  0.3440 -0.3750  0.5805
 6761TIP3    H141698   4.885   1.101   3.154 -0.0778  0.8857 -0.4243
 6761TIP3    H241699   5.032   1.104   3.118  0.1195  0.3874  0.3074
 6762TIP3   OH241700   5.255   6.130  15.543  0.2411 -0.2752  0.0886
 6762TIP3    H141701   5.324   6.131  15.477  0.6052  2.9951  0.3412
 6762TIP3    H241702   5.301   6.123  15.627  0.0006 -1.3132  0.1458
 6763TIP3   OH241703   5.542   6.663   1.080  0.1500 -0.4856 -0.7079
 6763TIP3    H141704   5.520   6.734   1.019  0.5780 -0.1943 -0.5317
 6763TIP3    H241705   5.635   6.649   1.067  0.6249  0.7055  1.0170
 6764TIP3   OH241706   1.401   4.098   3.147 -0.2533 -0.2014 -0.0610
 6764TIP3    H141707   1.329   4.037   3.133 -0.2613 -1.2959  3.6762
 6764TIP3    H241708   1.412   4.142   3.063 -5.2669  0.0836 -0.8559
 6765TIP3   OH241709   0.878   4.681  14.578  0.2538  0.3157  0.2183
 6765TIP3    H141710   0.801   4.689  14.635  0.3391 -0.5827  0.4741
 6765TIP3    H241711   0.925   4.605  14.612 -0.2971 -0.9739 -1.7324
 6766TIP3   OH241712   4.175   4.492   1.364  0.4014 -0.7996 -0.2416
 6766TIP3    H141713   4.121   4.529   1.434 -0.4233 -0.8687 -0.8279
 6766TIP3    H241714   4.237   4.562   1.343  0.7876 -0.8459  0.6766
 6767TIP3   OH241715   6.673   4.472  14.448 -0.0593 -0.2124 -0.0152
 6767TIP3    H141716   6.681   4.377  14.446 -1.0241 -0.3227  0.6791
 6767TIP3    H241717   6.679   4.499  14.356 -2.1371 -1.1793 -0.5034
 6768TIP3   OH241718   2.444   3.544  12.825 -0.1427  0.1691  0.6059
 6768TIP3    H141719   2.519   3.550  12.765 -0.6064 -2.4378 -0.3814
 6768TIP3    H241720   2.483   3.547  12.912  0.9563  0.2846  0.1318
 6769TIP3   OH241721   1.586   1.846  14.645  0.2475 -0.4488  0.0414
 6769TIP3    H141722   1.653   1.777  14.645  0.0658 -0.6279 -0.2311
 6769TIP3    H241723   1.601   1.893  14.563  1.7512  1.2002  1.1686
 6770TIP3   OH241724   3.526   4.036   3.029 -0.5670  0.1344 -0.0111
 6770TIP3    H141725   3.466   4.110   3.025  0.7352  1.2222  0.0256
 6770TIP3    H241726   3.497   3.987   3.107 -1.5276  0.4921 -0.1207
 6771TIP3   OH241727   0.051   1.482  16.730 -0.2028  0.1339  0.1489
 6771TIP3    H141728   0.072   1.416  16.796 -0.7247 -1.0193 -0.7866
 6771TIP3    H241729   0.121   1.473  16.665 -1.2451 -0.8090 -0.8921
 6772TIP3   OH241730   6.722   6.468   1.601 -0.2130 -0.1070  0.3845
 6772TIP3    H141731   6.687   6.492   1.515 -1.8177 -0.9938  0.7628
 6772TIP3    H241732   6.664   6.399   1.632  2.0651 -1.8912  0.9173
 6773TIP3   OH241733   4.009   3.759   3.638 -0.1434  0.3103 -0.2735
 6773TIP3    H141734   4.077   3.751   3.571 -0.3651  2.8558 -0.9119
 6773TIP3    H241735   3.981   3.669   3.655  2.7778 -0.7624 -0.5725
 6774TIP3   OH241736   0.552   3.567  12.126  0.4433 -0.1093 -0.1839
 6774TIP3    H141737   0.625   3.618  12.162  0.4304 -0.8198  0.8940
 6774TIP3    H241738   0.489   3.633  12.098  0.2791  0.5036  1.4779
 6775TIP3   OH241739   3.291   3.938   3.649 -0.3446  0.5448  0.5769
 6775TIP3    H141740   3.326   3.968   3.733 -1.6175  0.5627  1.1309
 6775TIP3    H241741   3.240   3.860   3.671 -2.6240  1.8413  0.2445
 6776TIP3   OH241742   2.402   4.231  14.919  0.5523  0.2569 -0.1078
 6776TIP3    H141743   2.453   4.281  14.982 -0.0844 -0.0974  0.7054
 6776TIP3    H241744   2.315   4.272  14.921  0.0353 -0.8326  0.5353
 6777TIP3   OH241745   4.411   2.342   6.586 -0.1356  0.8367  0.3261
 6777TIP3    H141746   4.371   2.426   6.611 -1.0171  0.9779 -1.4732
 6777TIP3    H241747   4.430   2.351   6.493  1.9688 -0.1186  0.6062
 6778TIP3   OH241748   1.685   5.579  11.481 -0.2044 -0.2248 -0.0011
 6778TIP3    H141749   1.605   5.627  11.504  0.2288  0.1490  0.7520
 6778TIP3    H241750   1.654   5.492  11.454 -0.7047 -1.1042  3.0779
 6779TIP3   OH241751   3.413   0.613   0.735  0.0721 -0.1004  0.3934
 6779TIP3    H141752   3.426   0.519   0.750  2.2152  0.1037  0.0900
 6779TIP3    H241753   3.372   0.618   0.649  1.1179 -0.7520 -0.1733
 6780TIP3   OH241754   5.782   6.694  16.340  0.5921  0.0926  0.8434
 6780TIP3    H141755   5.723   6.727  16.272 -0.3341  0.5689  1.8440
 6780TIP3    H241756   5.757   6.602  16.349 -0.5319  0.4542  1.7468
 6781TIP3   OH241757   0.498   1.516  11.845 -0.2931 -0.2058  0.3012
 6781TIP3    H141758   0.538   1.592  11.804 -1.7858  1.1620  1.2826
 6781TIP3    H241759   0.572   1.461  11.871  0.7797  0.4192 -1.2674
 6782TIP3   OH241760   1.402   4.420   5.271  0.4774  1.0071 -0.4096
 6782TIP3    H141761   1.474   4.404   5.331  0.7629 -0.8841 -1.1955
 6782TIP3    H241762   1.430   4.380   5.188 -1.3043  0.5671 -0.8396
 6783TIP3   OH241763   5.984   1.423  12.994  0.4003 -0.4019  0.1008
 6783TIP3    H141764   6.020   1.508  13.019 -0.9546 -0.0632  0.9819
 6783TIP3    H241765   6.052   1.360  13.018  0.1918  0.1660  2.3371
 6784TIP3   OH241766   4.806   0.416  15.905  0.5148  0.1126  0.2022
 6784TIP3    H141767   4.847   0.359  15.839  0.4647  0.6244 -0.2789
 6784TIP3    H241768   4.763   0.485  15.854  1.3245  1.0863  0.8110
 6785TIP3   OH241769   2.172   5.054  13.211  0.3888 -0.0175 -0.0679
 6785TIP3    H141770   2.163   5.130  13.154  0.3390  1.8848  2.3380
 6785TIP3    H241771   2.083   5.033  13.238  0.5063 -0.1485  0.2247
 6786TIP3   OH241772   0.956   4.223   1.105 -0.3748 -0.1566 -0.4486
 6786TIP3    H141773   1.025   4.183   1.158  1.4988  1.2858 -1.6779
 6786TIP3    H241774   0.881   4.229   1.164  1.0608 -0.2319  1.4705
 6787TIP3   OH241775   0.788   3.132   1.808 -0.0040  0.4307  0.2854
 6787TIP3    H141776   0.763   3.080   1.731 -0.3279  0.2601  0.5064
 6787TIP3    H241777   0.778   3.072   1.882  2.6372 -0.1873  0.2441
 6788TIP3   OH241778   5.550   3.546   3.599  1.1152  0.2257  0.0676
 6788TIP3    H141779   5.468   3.565   3.645  0.9098 -1.1412  0.3044
 6788TIP3    H241780   5.615   3.604   3.640  0.4216  0.8282  0.3426
 6789TIP3   OH241781   0.551   0.192   2.986 -0.4634 -0.0111 -0.0811
 6789TIP3    H141782   0.563   0.287   2.984  2.2230 -0.2725 -0.1094
 6789TIP3    H241783   0.575   0.163   2.898 -2.5829 -0.6579 -0.5041
 6790TIP3   OH241784   6.479   4.406   0.227 -0.0052 -0.0550 -0.1430
 6790TIP3    H141785   6.534   4.411   0.306 -0.7016 -3.4526  0.6863
 6790TIP3    H241786   6.448   4.316   0.224 -1.2188  0.3226 -3.5663
 6791TIP3   OH241787   3.928   6.214   3.830 -0.2991  0.4851  0.5264
 6791TIP3    H141788   3.839   6.211   3.794 -0.5764  1.7212  1.0576
 6791TIP3    H241789   3.919   6.181   3.919 -0.3598  1.2031  0.7961
 6792TIP3   OH241790   6.766   2.615  14.097  0.1037 -0.6826  0.3386
 6792TIP3    H141791   6.832   2.564  14.145  0.2561  0.6041  1.5649
 6792TIP3    H241792   6.686   2.603  14.147 -0.4689 -1.6646 -0.7591
 6793TIP3   OH241793   3.090   5.172   6.280  0.2834  0.0878 -0.4758
 6793TIP3    H141794   3.010   5.195   6.328 -0.3358  0.2441 -1.5262
 6793TIP3    H241795   3.152   5.241   6.303 -0.3218  0.7077 -0.6418
 6794TIP3   OH241796   6.363   5.728   3.135  0.4700  0.1370  0.0721
 6794TIP3    H141797   6.405   5.693   3.214 -1.1663 -2.3456 -0.0602
 6794TIP3    H241798   6.404   5.680   3.063  1.3791  1.8170 -0.5889
 6795TIP3   OH241799   6.586   6.390   5.299  0.5747 -0.2422  0.0287
 6795TIP3    H141800   6.635   6.323   5.346 -3.1847 -0.8693  3.6142
 6795TIP3    H241801   6.508   6.344   5.267 -0.3212  1.6766 -0.7062
 6796TIP3   OH241802   1.178   1.722  10.272 -0.1455 -0.5485 -0.5164
 6796TIP3    H141803   1.153   1.797  10.219 -2.3739  0.1669  1.3674
 6796TIP3    H241804   1.180   1.648  10.210 -0.1537  0.6436 -1.9835
 6797TIP3   OH241805   4.872   6.711   3.978  0.0737 -0.2388  0.0608
 6797TIP3    H141806   4.949   6.738   3.928  1.2915  1.1277  2.5198
 6797TIP3    H241807   4.903   6.640   4.034 -0.1220  1.0201  1.8350
 6798TIP3   OH241808   1.446   2.867   1.642 -0.2173  0.1971  0.2545
 6798TIP3    H141809   1.500   2.940   1.674  0.9073 -0.4860 -0.0403
 6798TIP3    H241810   1.509   2.806   1.604 -1.3819  0.4370 -2.2317
 6799TIP3   OH241811   6.380   4.775   0.352  0.1014 -0.2220 -0.5137
 6799TIP3    H141812   6.356   4.866   0.338  0.9393  0.2128  0.7225
 6799TIP3    H241813   6.471   4.778   0.382 -0.4414 -1.2807  1.4245
 6800TIP3   OH241814   1.798   6.441  16.129  0.4263  0.0906  1.0779
 6800TIP3    H141815   1.832   6.414  16.044  0.9086 -0.0074  1.2981
 6800TIP3    H241816   1.730   6.378  16.149  0.6208 -0.1557  0.9657
 6801TIP3   OH241817   1.868   0.450   2.135 -0.7664  0.7335  0.0064
 6801TIP3    H141818   1.795   0.475   2.192 -0.1302  1.7577  0.4104
 6801TIP3    H241819   1.876   0.356   2.147 -2.4293  0.4849 -0.5522
 6802TIP3   OH241820   6.474   1.718  11.633  0.5027 -0.1358  0.4559
 6802TIP3    H141821   6.566   1.699  11.617  0.7370 -0.4606  2.0498
 6802TIP3    H241822   6.440   1.638  11.674  0.0310  0.6962  1.7496
 6803TIP3   OH241823   3.775   0.863   2.457  0.1652  0.3513 -0.1969
 6803TIP3    H141824   3.706   0.826   2.402  1.4384 -2.5456 -0.0278
 6803TIP3    H241825   3.741   0.855   2.547  0.3658 -0.3026 -0.1742
 6804TIP3   OH241826   5.705   6.557   3.359  0.4423  0.3259  0.7142
 6804TIP3    H141827   5.659   6.491   3.308  1.6358  0.1640 -0.1971
 6804TIP3    H241828   5.647   6.576   3.433 -0.8234 -0.2303 -0.1169
 6805TIP3   OH241829   0.566   6.621   6.533 -0.3089  0.0507  0.0866
 6805TIP3    H141830   0.633   6.677   6.494  0.4394 -1.3122 -0.6864
 6805TIP3    H241831   0.612   6.572   6.601 -0.7090 -0.3138  0.1012
 6806TIP3   OH241832   5.637   2.487  13.382  0.4964  0.2290  0.1042
 6806TIP3    H141833   5.626   2.534  13.300  0.3185  2.2577  1.2221
 6806TIP3    H241834   5.590   2.540  13.447  1.3642 -0.8212  1.6605
 6807TIP3   OH241835   5.824   6.140   5.793  0.3348 -0.1691  0.7057
 6807TIP3    H141836   5.776   6.060   5.810 -1.1839  0.4210 -0.5560
 6807TIP3    H241837   5.916   6.113   5.788 -0.2369 -2.0034 -0.6638
 6808TIP3   OH241838   0.353   5.237  12.492  0.3389 -0.2596 -0.1870
 6808TIP3    H141839   0.320   5.148  12.495  0.2488 -0.3552 -2.3557
 6808TIP3    H241840   0.281   5.291  12.526 -0.6768 -0.7982 -1.4186
 6809TIP3   OH241841   2.062   6.554   2.459  0.1617 -0.6442  0.3560
 6809TIP3    H141842   2.117   6.537   2.382  2.2124 -0.6016  1.7290
 6809TIP3    H241843   2.005   6.626   2.432  2.9536  1.5517 -0.2167
 6810TIP3   OH241844   1.186   0.895  15.507  0.4603 -0.3751  0.4651
 6810TIP3    H141845   1.215   0.829  15.570  0.9700 -0.3026  0.3022
 6810TIP3    H241846   1.090   0.891  15.512  0.4732 -1.5390  0.0179
 6811TIP3   OH241847   0.922   2.092  12.755  0.0325  0.0352  0.1022
 6811TIP3    H141848   0.890   2.085  12.665 -0.9615 -1.3553  0.5275
 6811TIP3    H241849   0.843   2.087  12.808  0.7038 -0.2751  1.0942
 6812TIP3   OH241850   3.137   0.459   3.291 -0.0744  0.0503  0.7363
 6812TIP3    H141851   3.065   0.425   3.238  0.0394 -1.2450  1.3768
 6812TIP3    H241852   3.121   0.424   3.379  0.1123  1.6102  1.4299
 6813TIP3   OH241853   0.386   1.677   0.068 -0.3783  0.2206  0.2141
 6813TIP3    H141854   0.427   1.711  -0.011 -0.2632 -0.5309 -0.0566
 6813TIP3    H241855   0.458   1.669   0.131  0.1719 -2.1440 -0.6039
 6814TIP3   OH241856   6.504   2.119   5.731  0.1211  0.6460 -0.0655
 6814TIP3    H141857   6.499   2.126   5.827 -0.1781  2.0960 -0.1644
 6814TIP3    H241858   6.596   2.103   5.713  0.5132  2.1850  0.4080
 6815TIP3   OH241859   6.194   6.550   0.285  0.0176  0.0502 -0.3486
 6815TIP3    H141860   6.123   6.562   0.222 -0.9459  0.7973  0.8475
 6815TIP3    H241861   6.257   6.619   0.263  0.6510 -0.8940 -1.7016
 6816TIP3   OH241862   2.351   4.424   2.646  0.1248 -0.2165 -0.1905
 6816TIP3    H141863   2.277   4.432   2.707  0.8532  0.0011  0.6883
 6816TIP3    H241864   2.310   4.416   2.560 -0.9370 -0.7601  0.3422
 6817TIP3   OH241865   4.569   5.238  16.324 -0.0456  0.1433  0.1488
 6817TIP3    H141866   4.551   5.315  16.379  0.0573  0.2283  0.0620
 6817TIP3    H241867   4.483   5.200  16.308  0.0852 -1.2579  2.3742
 6818TIP3   OH241868   5.043   6.271  12.256  0.4065 -0.3437 -0.0355
 6818TIP3    H141869   5.059   6.238  12.344  0.5320  0.1296  0.1224
 6818TIP3    H241870   4.991   6.203  12.214 -2.1655  0.6680  1.3123
 6819TIP3   OH241871   5.148   2.511   1.874  0.3169 -0.8026  0.2148
 6819TIP3    H141872   5.186   2.511   1.786  0.0173  1.2662  0.0257
 6819TIP3    H241873   5.105   2.596   1.881  1.3961 -0.3856  2.8242
 6820TIP3   OH241874   3.361   6.260  14.596 -0.3479 -0.1111  0.1973
 6820TIP3    H141875   3.281   6.208  14.609 -1.1114  1.1298  0.6356
 6820TIP3    H241876   3.356   6.328  14.663  0.5808  0.5903 -0.4281
 6821TIP3   OH241877   5.141   1.999   0.285 -0.7366 -0.1731  0.3879
 6821TIP3    H141878   5.164   1.982   0.194 -0.1789  0.2368  0.4483
 6821TIP3    H241879   5.070   2.063   0.280  1.4608  2.4278  0.2627
 6822TIP3   OH241880   1.342   1.140  16.128  0.7462  0.7478  1.1139
 6822TIP3    H141881   1.251   1.169  16.121  1.1188  2.3783  2.3248
 6822TIP3    H241882   1.392   1.221  16.129  2.1795 -0.1152  1.0501
 6823TIP3   OH241883   2.337   6.264  15.761  0.0058 -0.0379 -0.5266
 6823TIP3    H141884   2.407   6.326  15.743 -0.0730  0.0186 -0.6344
 6823TIP3    H241885   2.297   6.296  15.842  0.9076 -0.7663  0.2474
 6824TIP3   OH241886   3.178   2.532   1.385 -0.8779 -0.4981 -0.1744
 6824TIP3    H141887   3.237   2.463   1.356  0.4039 -0.7421  2.6301
 6824TIP3    H241888   3.131   2.493   1.459 -1.2494  1.1288  0.4853
 6825TIP3   OH241889   3.154   1.431   1.674  0.3689  0.0374 -0.8426
 6825TIP3    H141890   3.209   1.355   1.691 -0.2204 -0.4530 -1.0950
 6825TIP3    H241891   3.162   1.446   1.580  1.5729  1.1485 -0.5877
 6826TIP3   OH241892   2.047   0.426  13.531  1.0127 -0.2925 -0.1518
 6826TIP3    H141893   2.102   0.504  13.534 -0.5772  0.8569  0.9940
 6826TIP3    H241894   1.976   0.450  13.471  0.4229 -0.8023  0.3390
 6827TIP3   OH241895   0.527   5.427  12.400 -0.6294 -0.1121  0.1083
 6827TIP3    H141896   0.586   5.431  12.476 -0.7808  2.5527  0.1805
 6827TIP3    H241897   0.461   5.363  12.425 -1.3111  1.4509  2.7885
 6828TIP3   OH241898   4.336   0.842   1.995  0.5157  0.7625 -0.1826
 6828TIP3    H141899   4.378   0.875   1.915 -0.1230  0.7891 -0.5140
 6828TIP3    H241900   4.357   0.907   2.062 -0.3831  1.6590 -0.7357
 6829TIP3   OH241901   1.696   3.600  14.562  0.3137 -0.2096  0.4739
 6829TIP3    H141902   1.646   3.584  14.642 -0.5259 -0.9640 -0.1895
 6829TIP3    H241903   1.764   3.533  14.563  0.2361 -0.2886  0.5010
 6830TIP3   OH241904   5.619   5.983  11.571 -0.7940  0.4646 -0.3631
 6830TIP3    H141905   5.585   6.064  11.609 -1.8668  0.3379 -1.0187
 6830TIP3    H241906   5.662   6.010  11.490  1.5972  0.7492  0.9063
 6831TIP3   OH241907   3.600   0.226   1.736  0.4541 -0.5834 -0.3896
 6831TIP3    H141908   3.615   0.151   1.679 -2.7546 -1.2094 -0.6298
 6831TIP3    H241909   3.565   0.294   1.678 -2.3456 -1.0460  0.5921
 6832TIP3   OH241910   0.149   3.091   3.519  0.3243  0.2625  0.2809
 6832TIP3    H141911   0.142   3.167   3.462 -2.4546 -0.1105 -0.0072
 6832TIP3    H241912   0.128   3.124   3.606  0.7204  0.1089  0.4386
 6833TIP3   OH241913   0.613   3.485   4.852  0.0550  0.1775 -0.2357
 6833TIP3    H141914   0.545   3.472   4.918  0.1964 -0.4061 -0.2039
 6833TIP3    H241915   0.568   3.531   4.781  0.2543  2.2680  0.8878
 6834TIP3   OH241916   2.819   2.944  12.000  0.3277 -0.3231  0.4948
 6834TIP3    H141917   2.725   2.964  11.999  0.3164 -0.3765  0.4407
 6834TIP3    H241918   2.862   3.030  12.004  0.2921 -0.2282 -0.6158
 6835TIP3   OH241919   0.182   4.869  16.247 -0.2046 -0.0081 -0.1203
 6835TIP3    H141920   0.102   4.920  16.236 -0.7057 -0.0857  2.4594
 6835TIP3    H241921   0.184   4.810  16.172 -0.0138  3.1499 -2.7759
 6836TIP3   OH241922   6.628   0.516   1.562  0.4503 -0.8262  0.3660
 6836TIP3    H141923   6.717   0.539   1.536  0.3834 -0.7255  0.2193
 6836TIP3    H241924   6.573   0.559   1.497  0.1426  1.3123  1.9467
 6837TIP3   OH241925   4.847   2.958   3.297 -0.3411  0.7058  0.5655
 6837TIP3    H141926   4.937   2.939   3.269 -0.1552  1.0787  0.9012
 6837TIP3    H241927   4.803   2.872   3.295 -0.4613  0.7719 -1.2531
 6838TIP3   OH241928   2.103   1.513  13.082  0.4482 -0.4928  0.0624
 6838TIP3    H141929   2.110   1.515  12.987 -1.2084 -0.1775 -0.0852
 6838TIP3    H241930   2.148   1.592  13.111  0.0332 -0.0244 -0.5461
 6839TIP3   OH241931   6.425   3.542   1.683  0.0952 -1.0123 -0.2300
 6839TIP3    H141932   6.399   3.499   1.765  1.1060 -1.3536 -0.0640
 6839TIP3    H241933   6.386   3.489   1.614 -1.5095 -0.2192  0.0281
 6840TIP3   OH241934   2.241   2.354   3.627 -0.3733 -0.1475  0.5257
 6840TIP3    H141935   2.222   2.357   3.721 -1.3360  0.7166  0.3217
 6840TIP3    H241936   2.186   2.283   3.593  0.3918 -0.8357  0.6853
 6841TIP3   OH241937   5.737   0.676   5.694 -0.0397 -0.1886 -0.1955
 6841TIP3    H141938   5.803   0.745   5.695 -0.4454  0.2267  1.3122
 6841TIP3    H241939   5.755   0.624   5.773  0.7368 -2.3155 -1.6840
 6842TIP3   OH241940   5.250   2.465  15.554 -0.1301  0.2762 -0.1582
 6842TIP3    H141941   5.209   2.518  15.622 -0.1466  0.1833 -0.0968
 6842TIP3    H241942   5.180   2.448  15.491 -0.1800  0.1333 -0.0626
 6843TIP3   OH241943   0.640   0.038  16.545  0.1527  0.6486  0.1159
 6843TIP3    H141944   0.715   0.050  16.604  3.3223 -0.6622 -3.2210
 6843TIP3    H241945   0.655   0.101  16.474  0.1937 -1.9543 -2.3822
 6844TIP3   OH241946   5.923   1.565  15.253 -0.0036  0.2043  0.0558
 6844TIP3    H141947   5.898   1.516  15.175  1.6112 -1.7295  0.6823
 6844TIP3    H241948   6.016   1.585  15.241 -0.1017  1.2421  0.8238
 6845TIP3   OH241949   5.127   1.884  16.754  0.3366 -0.5539 -0.2083
 6845TIP3    H141950   5.067   1.932  16.810  0.7192 -0.9081  0.5071
 6845TIP3    H241951   5.080   1.876  16.671  0.4223  1.4371 -0.5216
 6846TIP3   OH241952   2.114   6.143  14.876  0.2538  0.3694 -0.1516
 6846TIP3    H141953   2.203   6.146  14.841  0.7040 -0.5587  0.8501
 6846TIP3    H241954   2.097   6.232  14.908 -1.0370  2.0133 -4.5613
 6847TIP3   OH241955   4.032   0.692  16.247 -0.2581  0.2442  0.3299
 6847TIP3    H141956   3.967   0.725  16.185  0.6871 -0.8353 -1.3334
 6847TIP3    H241957   4.084   0.629  16.196  1.3092  0.1601  1.9167
 6848TIP3   OH241958   0.756   5.455   5.930 -0.7030  0.0170  0.2689
 6848TIP3    H141959   0.801   5.509   5.995 -1.0073  0.5811  0.0259
 6848TIP3    H241960   0.816   5.454   5.855  0.5730 -2.2995  1.2337
 6849TIP3   OH241961   4.814   5.222  15.100 -0.2871 -0.5087  0.1519
 6849TIP3    H141962   4.754   5.287  15.137  2.4977  1.7073  1.1640
 6849TIP3    H241963   4.805   5.232  15.006 -1.1364  0.1434  0.2916
 6850TIP3   OH241964   5.774   4.105  13.198 -0.3785  0.6437  0.1484
 6850TIP3    H141965   5.695   4.119  13.251 -0.6447 -0.9630  0.2311
 6850TIP3    H241966   5.832   4.055  13.256  1.5193  3.3932  0.7670
 6851TIP3   OH241967   5.585   6.667  16.695  0.1059 -0.0229 -0.0167
 6851TIP3    H141968   5.499   6.651  16.733  0.8392 -0.5644  1.4701
 6851TIP3    H241969   5.634   6.586  16.710  1.6739  1.1193  1.4107
 6852TIP3   OH241970   1.015   6.182   5.680 -0.2934 -0.2511  0.5131
 6852TIP3    H141971   1.022   6.263   5.732  2.6746  0.8782 -1.3926
 6852TIP3    H241972   1.089   6.128   5.710 -1.9779 -2.1732  1.4504
 6853TIP3   OH241973   3.795   3.768   2.710 -0.0890 -0.1590 -0.9198
 6853TIP3    H141974   3.843   3.816   2.778  1.6717 -1.6137 -1.0590
 6853TIP3    H241975   3.710   3.748   2.750 -0.7772  2.6774 -0.7446
 6854TIP3   OH241976   5.679   1.873   0.956  0.3497 -0.1859 -0.2987
 6854TIP3    H141977   5.620   1.798   0.948  0.3947 -0.0797 -2.3602
 6854TIP3    H241978   5.648   1.921   1.033 -1.7000 -0.6142 -0.7927
 6855TIP3   OH241979   4.131   4.582  12.828 -0.8647 -0.3590  0.1695
 6855TIP3    H141980   4.183   4.588  12.748 -1.4959  1.1724 -0.1525
 6855TIP3    H241981   4.042   4.566  12.798 -1.2724  1.1734  0.4895
 6856TIP3   OH241982   3.758   4.525  14.255  0.7167  0.2170 -0.0400
 6856TIP3    H141983   3.727   4.488  14.172  1.4017  2.2843 -1.2898
 6856TIP3    H241984   3.845   4.559  14.235  1.3136 -0.0960  1.8188
 6857TIP3   OH241985   2.558   0.238  12.255  0.2363 -0.6340  0.0996
 6857TIP3    H141986   2.488   0.300  12.235 -0.2599 -1.4421 -0.7655
 6857TIP3    H241987   2.516   0.152  12.252  1.1033 -1.0831  0.3600
 6858TIP3   OH241988   6.636   1.134   6.307 -0.2537 -0.1733 -0.3177
 6858TIP3    H141989   6.693   1.177   6.371 -1.1189 -3.0421  2.6640
 6858TIP3    H241990   6.696   1.099   6.241  0.7231  2.3522 -0.8893
 6859TIP3   OH241991   3.338   5.223  12.118  0.0584 -0.3669 -0.1534
 6859TIP3    H141992   3.392   5.240  12.041 -1.1684 -1.4273 -1.2780
 6859TIP3    H241993   3.261   5.177  12.085 -0.9104 -0.1056  1.5918
 6860TIP3   OH241994   5.949   1.314  15.078 -0.2717  0.6769  0.6826
 6860TIP3    H141995   6.025   1.267  15.113 -0.3438 -0.6884 -0.8743
 6860TIP3    H241996   5.881   1.302  15.143  0.6201  1.3483  1.7847
 6861TIP3   OH241997   2.058   3.254   3.242  0.3414 -0.1265  0.0351
 6861TIP3    H141998   2.035   3.316   3.310  1.2134  2.6960 -2.0587
 6861TIP3    H241999   1.990   3.266   3.175  0.2384 -1.8755 -0.2361
 6862TIP3   OH242000   3.636   1.087  13.352 -0.3368 -0.2459 -0.4879
 6862TIP3    H142001   3.545   1.115  13.356  0.1486  1.2587  1.2153
 6862TIP3    H242002   3.657   1.090  13.258 -1.0842  2.8439 -0.6774
 6863TIP3   OH242003   1.456   6.734   3.630 -0.0301  0.1710  0.1056
 6863TIP3    H142004   1.495   6.692   3.554  0.3341  0.9751 -0.1644
 6863TIP3    H242005   1.367   6.755   3.603 -0.7660 -1.8335  0.7852
 6864TIP3   OH242006   3.142   3.063  16.276 -0.1306  0.8604 -0.1960
 6864TIP3    H142007   3.088   3.071  16.355  0.8410 -0.6833  0.6792
 6864TIP3    H242008   3.181   2.976  16.283  0.7169  1.0699 -1.9291
 6865TIP3   OH242009   2.577   1.444   2.656 -0.0691 -0.0636 -0.2719
 6865TIP3    H142010   2.501   1.387   2.663 -0.0183 -0.0660  0.3025
 6865TIP3    H242011   2.652   1.386   2.670 -0.0745  0.3922  1.9763
 6866TIP3   OH242012   0.645   0.655   0.524  0.2902  0.2073 -1.0982
 6866TIP3    H142013   0.715   0.591   0.516  0.5391  0.5148 -1.3722
 6866TIP3    H242014   0.574   0.607   0.568 -0.0432 -0.6734 -2.5113
 6867TIP3   OH242015   5.261   3.683  13.396 -0.2768  0.9289 -0.4510
 6867TIP3    H142016   5.313   3.603  13.406 -1.8982  0.0364  1.8059
 6867TIP3    H242017   5.325   3.754  13.398  1.0178 -0.2210  0.1003
 6868TIP3   OH242018   5.216   1.508   1.699 -0.1669 -0.2785  0.6496
 6868TIP3    H142019   5.303   1.509   1.740  1.2748  3.0414 -2.0787
 6868TIP3    H242020   5.226   1.450   1.624  0.0788  0.9026 -0.2592
 6869TIP3   OH242021   0.427   1.509  12.839 -0.1040  0.1654  0.4432
 6869TIP3    H142022   0.376   1.525  12.760  1.0486  0.8815 -0.1881
 6869TIP3    H242023   0.450   1.416  12.834  0.7393  0.4082 -0.5684
 6870TIP3   OH242024   3.089   2.576   0.312  0.0566 -0.4862 -0.0775
 6870TIP3    H142025   3.089   2.664   0.273  0.0415 -0.4073  0.1011
 6870TIP3    H242026   3.002   2.567   0.351 -0.1108 -0.7607 -0.5004
 6871TIP3   OH242027   4.479   4.600   3.627 -0.7726 -0.2998 -0.5382
 6871TIP3    H142028   4.511   4.511   3.638 -0.1691  0.0269  0.5311
 6871TIP3    H242029   4.397   4.602   3.675 -0.6451 -0.2023 -0.3256
 6872TIP3   OH242030   1.192   3.172  16.189 -0.7332  0.2246 -0.0374
 6872TIP3    H142031   1.260   3.182  16.122 -1.0830 -0.2326 -0.4759
 6872TIP3    H242032   1.211   3.087  16.229 -1.0054  0.1167 -0.1287
 6873TIP3   OH242033   0.356   2.210  14.297  0.0890  0.2107  0.4300
 6873TIP3    H142034   0.366   2.116  14.311 -0.2895 -0.2344 -1.8692
 6873TIP3    H242035   0.317   2.242  14.378 -0.9445 -1.8317  0.8288
 6874TIP3   OH242036   2.411   4.185  17.236 -0.4112  0.0771 -0.2471
 6874TIP3    H142037   2.475   4.254  17.219 -0.5359  0.3490  0.3776
 6874TIP3    H242038   2.464   4.108  17.255 -0.2735  0.0907 -0.5587
 6875TIP3   OH242039   4.381   2.993   0.623  0.4985 -0.1072 -0.1646
 6875TIP3    H142040   4.406   2.903   0.601  0.4380 -0.9965  2.8955
 6875TIP3    H242041   4.440   3.017   0.695  0.2601  2.1985 -0.6526
 6876TIP3   OH242042   5.083   5.066   1.826  0.0776  0.1999  0.7326
 6876TIP3    H142043   5.088   4.971   1.816 -1.2898  0.0698  1.1324
 6876TIP3    H242044   5.042   5.079   1.911  0.6971  1.1591  0.8935
 6877TIP3   OH242045   4.429   4.788   5.449 -0.7671  0.0454 -0.3855
 6877TIP3    H142046   4.354   4.760   5.398 -1.0757 -1.1033  0.6485
 6877TIP3    H242047   4.407   4.764   5.539  0.6142  0.1691  0.0076
 6878TIP3   OH242048   3.042   4.810   1.743 -0.1997 -0.4693  0.0066
 6878TIP3    H142049   3.043   4.905   1.755 -0.0820  0.1568 -3.7534
 6878TIP3    H242050   3.134   4.785   1.746  0.1573  0.2569 -2.8478
 6879TIP3   OH242051   3.726   0.411   0.575 -0.0224 -0.6539  0.1227
 6879TIP3    H142052   3.782   0.487   0.558  0.5663 -1.2613 -0.7403
 6879TIP3    H242053   3.763   0.342   0.520 -0.3937 -1.6412  1.0850
 6880TIP3   OH242054   5.274   2.898  15.981 -0.3002 -0.6613  0.1737
 6880TIP3    H142055   5.216   2.964  15.943  1.4654  1.6925  1.2925
 6880TIP3    H242056   5.338   2.879  15.912  0.2067  0.1584  0.4018
 6881TIP3   OH242057   5.142   1.648  15.230  0.1299  0.2714 -0.0402
 6881TIP3    H142058   5.127   1.665  15.137  0.3490  0.2065 -0.0890
 6881TIP3    H242059   5.204   1.716  15.258  0.5277 -0.0645 -0.0884
 6882TIP3   OH242060   3.148   0.482   4.050 -0.2571  0.0713  0.4962
 6882TIP3    H142061   3.112   0.470   3.962  0.6104  1.0183 -0.0020
 6882TIP3    H242062   3.218   0.416   4.056 -0.2423  0.0805  0.4277
 6883TIP3   OH242063   5.690   6.669   2.415  0.2514 -0.0662  0.1362
 6883TIP3    H142064   5.739   6.604   2.467 -0.1455  0.6738  1.4936
 6883TIP3    H242065   5.599   6.658   2.442  0.1536  0.9128  0.2470
 6884TIP3   OH242066   0.205   5.983  15.456 -0.1498  0.5228  0.0653
 6884TIP3    H142067   0.156   6.065  15.460 -1.0350 -0.0325  0.8863
 6884TIP3    H242068   0.158   5.923  15.513  0.2541 -0.6912 -0.8191
 6885TIP3   OH242069   1.054   4.569  12.352  0.2764 -0.0635 -0.1715
 6885TIP3    H142070   1.054   4.592  12.445 -0.7013 -0.7633  0.0141
 6885TIP3    H242071   1.012   4.483  12.349  1.9995 -0.9026 -1.0715
 6886TIP3   OH242072   6.165   0.193  15.117 -0.7479  0.1365  0.0543
 6886TIP3    H142073   6.248   0.167  15.156  0.2464  0.2963 -1.8330
 6886TIP3    H242074   6.114   0.229  15.190  1.2795  1.1203  1.0711
 6887TIP3   OH242075   3.627   4.622   2.729 -0.1137 -0.4196  0.1687
 6887TIP3    H142076   3.665   4.536   2.711 -0.9801 -0.1830 -3.7485
 6887TIP3    H242077   3.703   4.680   2.743  0.6456 -1.2187 -0.5449
 6888TIP3   OH242078   1.903   0.085   4.219  0.7359  0.9562 -0.3859
 6888TIP3    H142079   1.973   0.088   4.284  1.1561 -2.1826 -0.5243
 6888TIP3    H242080   1.822   0.087   4.270  0.9407  2.1815 -0.0706
 6889TIP3   OH242081   3.591   5.535  10.774 -0.3132 -0.1578 -0.7275
 6889TIP3    H142082   3.540   5.591  10.715  0.0796 -0.3377 -1.2439
 6889TIP3    H242083   3.527   5.472  10.807 -0.3114 -0.8335 -1.9259
 6890TIP3   OH242084   4.367   2.062   0.222 -0.2201  0.1333  0.0389
 6890TIP3    H142085   4.457   2.089   0.204 -0.2088 -0.2368 -0.4926
 6890TIP3    H242086   4.320   2.080   0.140 -0.8458  1.1980  0.6040
 6891TIP3   OH242087   1.122   2.875  12.770  0.1457  0.0380 -0.4888
 6891TIP3    H142088   1.059   2.912  12.832 -1.7892 -1.7826 -1.2407
 6891TIP3    H242089   1.135   2.944  12.705 -1.6609  0.2476 -0.6805
 6892TIP3   OH242090   6.674   5.928  12.146 -0.2364 -0.5090  0.2010
 6892TIP3    H142091   6.758   5.888  12.169  0.7188  0.4664 -1.4283
 6892TIP3    H242092   6.673   5.929  12.051 -1.5433  0.6517  0.2006
 6893TIP3   OH242093   6.712   0.278   1.309 -0.4637  0.1406 -0.0241
 6893TIP3    H142094   6.792   0.227   1.317 -1.3239 -1.3268 -0.2788
 6893TIP3    H242095   6.675   0.280   1.398 -1.5873 -1.7549 -0.3755
 6894TIP3   OH242096   5.733   5.468  11.943 -0.0026  0.5834  0.1551
 6894TIP3    H142097   5.818   5.424  11.936  0.7166  2.0148 -0.6560
 6894TIP3    H242098   5.743   5.547  11.890 -0.7152  2.5334  2.7171
 6895TIP3   OH242099   6.318   2.357   0.238  0.3437  0.0808  0.3580
 6895TIP3    H142100   6.345   2.357   0.146 -1.6799 -1.9890 -0.3185
 6895TIP3    H242101   6.336   2.268   0.268 -2.0819 -0.2690  0.9407
 6896TIP3   OH242102   2.032   4.255   5.380 -0.4849  0.2318 -0.3183
 6896TIP3    H142103   1.953   4.297   5.347 -0.5393 -0.9549 -1.8511
 6896TIP3    H242104   2.103   4.297   5.330 -0.5471 -1.4342 -1.9270
 6897TIP3   OH242105   6.030   2.524  16.504  0.0171 -0.7408 -0.4594
 6897TIP3    H142106   6.085   2.602  16.501 -0.6738 -0.2563 -0.8191
 6897TIP3    H242107   6.020   2.499  16.412 -2.1661  0.4897 -0.6301
 6898TIP3   OH242108   4.853   2.657  16.790 -0.0137 -0.5814 -0.1864
 6898TIP3    H142109   4.812   2.609  16.861  0.7870 -1.6951 -0.4504
 6898TIP3    H242110   4.940   2.619  16.782  0.2405  0.1529 -1.1496
 6899TIP3   OH242111   2.726   5.475   2.593  0.2613 -0.3160  0.4929
 6899TIP3    H142112   2.701   5.384   2.611  1.4966 -0.7586  0.0769
 6899TIP3    H242113   2.649   5.513   2.552 -1.2546 -0.3793  3.0939
 6900TIP3   OH242114   4.068   3.369   4.092  0.4888 -0.5679 -0.5995
 6900TIP3    H142115   4.009   3.429   4.045 -0.1490 -0.4802  0.2912
 6900TIP3    H242116   4.105   3.421   4.163  2.2279 -0.4224 -1.5615
 6901TIP3   OH242117   2.846   0.857   2.432 -0.1922 -0.6538  0.0171
 6901TIP3    H142118   2.918   0.919   2.419 -0.7554  0.1945  0.8342
 6901TIP3    H242119   2.853   0.832   2.524 -0.9640 -0.5522  0.1039
 6902TIP3   OH242120   5.955   6.549   4.176 -0.2916 -0.0078  0.2929
 6902TIP3    H142121   5.891   6.484   4.148 -1.2257  0.5990  0.9874
 6902TIP3    H242122   6.040   6.510   4.152 -0.8091 -1.5333  0.8287
 6903TIP3   OH242123   4.854   6.101  16.855  0.5352 -0.2877  0.0578
 6903TIP3    H142124   4.866   6.040  16.928  0.2799  0.5819  0.8606
 6903TIP3    H242125   4.817   6.179  16.896  0.1527  0.1367 -1.0539
 6904TIP3   OH242126   1.369   5.659   5.208  0.1929  0.4017 -0.4830
 6904TIP3    H142127   1.382   5.635   5.300 -0.4555  0.7229 -0.2986
 6904TIP3    H242128   1.274   5.669   5.200  0.3367  1.5414 -0.8906
 6905TIP3   OH242129   3.522   2.681  14.830  0.2581  0.6985 -0.2875
 6905TIP3    H142130   3.483   2.637  14.905  0.4039  1.9154  0.5251
 6905TIP3    H242131   3.455   2.678  14.762  0.1385 -0.4469 -0.1436
 6906TIP3   OH242132   2.107   3.880   5.608 -0.0323  0.3183  0.0778
 6906TIP3    H142133   2.196   3.906   5.632  0.1681  0.6802 -0.9754
 6906TIP3    H242134   2.112   3.862   5.514 -0.7377 -1.1485  0.2987
 6907TIP3   OH242135   2.997   3.833   0.564  0.3261 -0.6714  0.4401
 6907TIP3    H142136   3.045   3.913   0.542  1.1555 -1.0485  0.8426
 6907TIP3    H242137   3.061   3.763   0.554 -0.3644 -1.2809  0.1927
 6908TIP3   OH242138   6.736   5.597   0.131 -0.1189 -0.6573 -1.1066
 6908TIP3    H142139   6.758   5.589   0.224  0.3044  0.2057 -1.1193
 6908TIP3    H242140   6.765   5.514   0.093 -1.1926 -1.4153 -0.3158
 6909TIP3   OH242141   3.594   3.221   0.212 -0.2322  0.2372 -0.0523
 6909TIP3    H142142   3.678   3.238   0.254  0.7322 -1.1978 -1.3039
 6909TIP3    H242143   3.529   3.241   0.279  1.1508  0.0744  1.3887
 6910TIP3   OH242144   3.667   2.701  16.304  0.3093  0.2876 -0.8708
 6910TIP3    H142145   3.612   2.648  16.362  0.3337  0.0533 -1.0601
 6910TIP3    H242146   3.606   2.758  16.258  0.2932  0.4966 -0.5914
 6911TIP3   OH242147   2.848   5.760  15.894 -0.1517 -0.3617  0.2935
 6911TIP3    H142148   2.858   5.847  15.931 -0.2414  0.4689 -1.5224
 6911TIP3    H242149   2.867   5.771  15.801 -3.6496 -1.5258 -0.7363
 6912TIP3   OH242150   0.970   5.591   4.931 -0.5215 -0.3250  0.1749
 6912TIP3    H142151   0.945   5.508   4.972 -0.6841  0.2338  1.2231
 6912TIP3    H242152   0.966   5.655   5.001  0.4648  0.4221 -0.4338
 6913TIP3   OH242153   0.146   0.825   5.347  0.6506 -0.6252 -0.5309
 6913TIP3    H142154   0.154   0.750   5.405  1.0115 -0.2814 -0.1262
 6913TIP3    H242155   0.133   0.900   5.406  1.4306 -0.2136 -0.8653
 6914TIP3   OH242156   4.275   5.768  12.110 -0.2463  0.0358 -0.1626
 6914TIP3    H142157   4.208   5.772  12.042 -2.5592 -0.6274  1.9090
 6914TIP3    H242158   4.333   5.697  12.082 -0.7751  0.1631 -1.6902
 6915TIP3   OH242159   5.201   2.419   3.524  0.4313  0.1450  0.1282
 6915TIP3    H142160   5.264   2.387   3.460  2.1084 -0.6331  2.0332
 6915TIP3    H242161   5.255   2.446   3.599 -1.4235  0.7511  1.3187
 6916TIP3   OH242162   5.331   5.393  16.454  0.9171 -0.4685 -0.6379
 6916TIP3    H142163   5.363   5.428  16.537  1.1923 -1.2381 -0.4146
 6916TIP3    H242164   5.267   5.327  16.479 -0.3772  0.5729 -1.0768
 6917TIP3   OH242165   2.520   4.558  12.188  0.0722  0.1409  0.0727
 6917TIP3    H142166   2.552   4.476  12.227 -1.4246 -0.8653 -0.7189
 6917TIP3    H242167   2.599   4.609  12.171  0.9581 -0.5362  1.8582
 6918TIP3   OH242168   1.206   6.439  13.843  0.2293 -0.4571  0.3995
 6918TIP3    H142169   1.244   6.352  13.833  0.8803  0.0266 -1.7248
 6918TIP3    H242170   1.154   6.453  13.764  1.6326  1.7913 -0.2271
 6919TIP3   OH242171   4.860   5.033  16.037  0.1757 -0.5104 -0.1239
 6919TIP3    H142172   4.795   5.103  16.026 -0.2536 -0.8027  0.5123
 6919TIP3    H242173   4.808   4.953  16.042  0.5843 -0.7387  0.4665
 6920TIP3   OH242174   5.940   6.674  12.677 -0.0037 -1.2398  0.3497
 6920TIP3    H142175   6.017   6.619  12.666 -0.6919 -1.9463 -1.2432
 6920TIP3    H242176   5.882   6.623  12.734 -0.6168 -2.2206 -1.0776
 6921TIP3   OH242177   1.828   4.013   3.357  0.2620 -0.8319  0.2315
 6921TIP3    H142178   1.781   4.040   3.279 -0.6097 -1.1652  0.6246
 6921TIP3    H242179   1.904   4.070   3.361 -0.8525  0.7087  0.3513
 6922TIP3   OH242180   2.570   2.255  12.200 -0.0292 -0.0532 -0.2768
 6922TIP3    H142181   2.634   2.209  12.147 -1.0031 -0.0571 -1.4845
 6922TIP3    H242182   2.613   2.267  12.285  0.3592 -2.9307  0.0166
 6923TIP3   OH242183   0.447   3.271  11.927 -0.4575  0.9923  0.1878
 6923TIP3    H142184   0.435   3.276  11.832  0.6509 -0.5204 -0.0760
 6923TIP3    H242185   0.439   3.178  11.947  3.5934  0.6010  0.8814
 6924TIP3   OH242186   4.195   5.377  15.255  0.3005  0.7478  0.2024
 6924TIP3    H142187   4.124   5.432  15.290  0.1084  0.8622 -0.3600
 6924TIP3    H242188   4.164   5.288  15.268  1.4823  0.6381  3.0116
 6925TIP3   OH242189   1.338   6.540  14.489 -0.5008  0.2769  0.1314
 6925TIP3    H142190   1.243   6.540  14.477 -0.6221  0.3965  1.0241
 6925TIP3    H242191   1.371   6.595  14.418 -1.0902  0.1939 -0.2180
 6926TIP3   OH242192   4.094   4.962  13.211 -0.7140 -0.4813  0.5836
 6926TIP3    H142193   4.073   4.890  13.152  0.3264 -1.1975  1.0641
 6926TIP3    H242194   4.073   5.041  13.162 -1.8951 -1.1051  0.0580
 6927TIP3   OH242195   3.036   6.025  15.696 -0.5423  0.5156 -0.0354
 6927TIP3    H142196   2.987   6.072  15.628 -0.1915  2.2688  0.8793
 6927TIP3    H242197   2.976   6.021  15.771 -0.1028  0.6290  0.3223
 6928TIP3   OH242198   4.710   0.181   1.289 -0.1006 -0.2032  0.0948
 6928TIP3    H142199   4.775   0.246   1.317  1.3062 -0.6064 -2.0141
 6928TIP3    H242200   4.688   0.133   1.368  4.0182 -1.6582  0.5970
 6929TIP3   OH242201   5.483   6.565  12.127 -0.4090 -0.0519 -0.4357
 6929TIP3    H142202   5.395   6.551  12.163 -0.6512  0.1625 -0.9138
 6929TIP3    H242203   5.537   6.496  12.165 -0.1763  1.3087  1.8470
 6930TIP3   OH242204   6.493   3.643   3.844  0.0429 -0.1667  0.4010
 6930TIP3    H142205   6.543   3.725   3.840  0.6566 -0.2760  3.4894
 6930TIP3    H242206   6.447   3.639   3.760  1.0020  2.6652 -0.3786
 6931TIP3   OH242207   1.985   4.239  14.187 -0.1678 -0.3408 -0.3369
 6931TIP3    H142208   1.965   4.146  14.172 -0.7961 -0.1908 -0.4588
 6931TIP3    H242209   1.911   4.271  14.239  0.8852 -0.3202  1.2040
 6932TIP3   OH242210   3.191   5.425   6.423 -0.0929  0.1009 -0.1481
 6932TIP3    H142211   3.196   5.387   6.510  0.6599 -0.7246 -0.5384
 6932TIP3    H242212   3.264   5.487   6.420 -0.8663  1.0638  0.2243
 6933TIP3   OH242213   3.595   1.162   4.864 -0.2169  0.2094  0.0338
 6933TIP3    H142214   3.635   1.113   4.792 -0.2464 -1.4111  1.0868
 6933TIP3    H242215   3.588   1.251   4.830  0.8480 -0.2550 -1.5404
 6934TIP3   OH242216   1.112   1.628  13.090  0.2927 -0.2517  0.2092
 6934TIP3    H142217   1.203   1.618  13.118  1.2431  0.7896 -2.2131
 6934TIP3    H242218   1.098   1.723  13.091 -0.4965 -0.3584 -0.1812
 6935TIP3   OH242219   0.255   0.144  11.401  0.3599 -0.1798  0.1242
 6935TIP3    H142220   0.297   0.065  11.434 -0.1691  0.3802  2.3164
 6935TIP3    H242221   0.161   0.130  11.417  0.1809  0.5095 -0.2782
 6936TIP3   OH242222   6.706   2.428  13.699  0.0186 -0.1525  0.3588
 6936TIP3    H142223   6.680   2.412  13.789  1.8993  1.1677  1.2151
 6936TIP3    H242224   6.647   2.497  13.669 -0.8780 -0.8798  0.4262
 6937TIP3   OH242225   2.108   5.943  12.605 -0.8102 -0.6890  0.1558
 6937TIP3    H142226   2.103   5.895  12.688 -0.7694  1.2208  1.3134
 6937TIP3    H242227   2.151   6.026  12.627  0.4524 -0.6860 -2.0613
 6938TIP3   OH242228   4.444   0.535  16.714  0.2469  0.0221 -0.1079
 6938TIP3    H142229   4.539   0.525  16.700  0.6546  0.8310  1.8303
 6938TIP3    H242230   4.429   0.503  16.803 -1.2285  0.3917 -0.2030
 6939TIP3   OH242231   2.489   6.190  11.585  0.1558 -0.5810  0.2385
 6939TIP3    H142232   2.407   6.211  11.631  1.1615  2.1120  1.0361
 6939TIP3    H242233   2.467   6.115  11.530 -3.0921  0.4855 -0.2000
 6940TIP3   OH242234   2.875   3.576   2.417 -0.3544 -0.3710  0.6575
 6940TIP3    H142235   2.957   3.570   2.467  0.1266  0.3960 -0.0065
 6940TIP3    H242236   2.871   3.668   2.389 -1.2523 -0.4916  0.3549
 6941TIP3   OH242237   0.490   4.569   5.922 -0.1638 -0.7276  0.3294
 6941TIP3    H142238   0.580   4.551   5.895 -0.1538  1.3506 -1.2624
 6941TIP3    H242239   0.450   4.482   5.931  0.5084 -1.8390 -4.4005
 6942TIP3   OH242240   3.450   0.570  15.536  0.0545  0.0860 -0.2351
 6942TIP3    H142241   3.519   0.573  15.602 -0.7424  0.4728  0.6126
 6942TIP3    H242242   3.492   0.598  15.455  0.7570  0.8979  0.3882
 6943TIP3   OH242243   0.810   4.434   3.463 -0.2057 -0.2366  0.2732
 6943TIP3    H142244   0.817   4.351   3.416 -0.5285 -0.6570  0.9381
 6943TIP3    H242245   0.838   4.500   3.400  0.4679 -0.8905 -0.1329
 6944TIP3   OH242246   3.684   0.047  11.635  0.3207 -0.3008 -0.1033
 6944TIP3    H142247   3.610  -0.014  11.632  0.0507 -0.0225  0.5471
 6944TIP3    H242248   3.673   0.102  11.557 -0.9171  0.5686  0.6292
 6945TIP3   OH242249   5.392   1.900   0.878 -0.3913 -0.6527  0.4239
 6945TIP3    H142250   5.436   1.819   0.851 -1.0841 -0.7485 -0.4739
 6945TIP3    H242251   5.403   1.958   0.803 -2.4081 -0.9337 -0.1467
 6946TIP3   OH242252   3.157   6.473   5.797 -0.2846 -0.0549  0.2714
 6946TIP3    H142253   3.144   6.535   5.725 -0.6731  0.0453  0.4203
 6946TIP3    H242254   3.118   6.517   5.873  0.4128 -0.0192  0.6115
 6947TIP3   OH242255   5.509   5.298  16.280 -0.6180 -0.3644  0.0325
 6947TIP3    H142256   5.434   5.251  16.243 -2.0277  2.1027 -0.4478
 6947TIP3    H242257   5.472   5.350  16.351  0.8408  0.1559  0.4518
 6948TIP3   OH242258   6.020   1.404   5.160  0.4270  0.1265  0.2762
 6948TIP3    H142259   6.083   1.472   5.185  1.3829 -1.2276  1.8942
 6948TIP3    H242260   6.075   1.330   5.134 -0.5506 -0.4588 -0.1825
 6949TIP3   OH242261   2.146   6.509  12.462 -0.3833 -0.4768 -0.1174
 6949TIP3    H142262   2.228   6.489  12.417 -1.2567  0.4375 -2.2904
 6949TIP3    H242263   2.173   6.560  12.539  1.0896 -0.4854 -0.5889
 6950TIP3   OH242264   0.253   3.005   5.109  0.2773  0.3058 -0.3142
 6950TIP3    H142265   0.326   2.944   5.103  1.0352  1.2819 -1.3643
 6950TIP3    H242266   0.175   2.950   5.111  0.9829 -0.7110 -0.3574
 6951TIP3   OH242267   3.373   3.863   2.121 -0.3515 -0.4101 -0.2861
 6951TIP3    H142268   3.420   3.824   2.047 -1.4944 -0.9575 -0.7551
 6951TIP3    H242269   3.439   3.912   2.169  0.0442  1.8341 -2.9052
 6952TIP3   OH242270   4.575   2.920   5.347  0.1624 -0.8797 -0.8920
 6952TIP3    H142271   4.607   2.901   5.259  0.9092  0.3055 -0.9102
 6952TIP3    H242272   4.553   2.835   5.385 -1.4627 -1.3223 -2.6805
 6953TIP3   OH242273   1.803   1.572   3.806 -0.3002 -0.4646  0.8184
 6953TIP3    H142274   1.724   1.623   3.820 -1.9140 -2.5179 -0.2063
 6953TIP3    H242275   1.802   1.507   3.876 -0.0017 -1.0178  0.3220
 6954TIP3   OH242276   1.841   3.018  11.062 -0.2306  0.0633 -0.5593
 6954TIP3    H142277   1.936   3.005  11.053 -0.4700 -1.1051 -1.6197
 6954TIP3    H242278   1.823   2.995  11.153  0.4625  0.0142 -0.4246
 6955TIP3   OH242279   0.675   6.704  14.839 -0.0113  0.4068  0.0144
 6955TIP3    H142280   0.660   6.613  14.865  0.3163  0.3867  0.1307
 6955TIP3    H242281   0.770   6.713  14.838  0.0157  0.2285 -1.8045
 6956TIP3   OH242282   6.201   2.750  16.591 -0.2757 -0.0615  0.1085
 6956TIP3    H142283   6.147   2.782  16.663  0.1317  1.6464 -0.2926
 6956TIP3    H242284   6.289   2.747  16.626 -0.2123 -0.0985 -0.0500
 6957TIP3   OH242285   4.419   4.131   0.863  0.1831  0.4188 -0.2868
 6957TIP3    H142286   4.467   4.062   0.909 -0.9179 -0.1249  0.0642
 6957TIP3    H242287   4.454   4.128   0.774  0.3698 -0.3826 -0.1985
 6958TIP3   OH242288   5.142   4.324  10.866 -0.8803 -0.2726  0.1556
 6958TIP3    H142289   5.188   4.307  10.949  0.1291 -1.5030 -0.6167
 6958TIP3    H242290   5.203   4.379  10.816 -0.3735 -1.5776 -0.7163
 6959TIP3   OH242291   3.985   4.144   2.793 -0.4117 -0.3171  0.4007
 6959TIP3    H142292   4.061   4.099   2.756  0.8552  2.0899 -0.1010
 6959TIP3    H242293   3.960   4.092   2.869  2.6524 -0.4417  1.4346
 6960TIP3   OH242294   5.092   4.397   1.422 -0.3059  0.6157 -0.1220
 6960TIP3    H142295   5.002   4.368   1.409 -0.7359  2.2188 -0.9276
 6960TIP3    H242296   5.140   4.361   1.347 -0.8860  2.0839 -1.2494
 6961TIP3   OH242297   6.237   3.346  16.535 -0.3290 -0.0261 -0.0188
 6961TIP3    H142298   6.329   3.337  16.509  0.1440  1.7641  0.8877
 6961TIP3    H242299   6.219   3.267  16.587  1.1789  0.3223  1.0837
 6962TIP3   OH242300   0.845   6.615   5.640 -0.1050 -0.0433  0.0149
 6962TIP3    H142301   0.823   6.523   5.629  2.2019 -0.7324  0.5865
 6962TIP3    H242302   0.888   6.620   5.725  1.2959  1.2155 -0.7001
 6963TIP3   OH242303   0.870   6.374  10.782  0.1880 -0.4773 -0.0986
 6963TIP3    H142304   0.847   6.285  10.754 -0.1708 -0.4606  0.1374
 6963TIP3    H242305   0.965   6.375  10.782  0.1977 -0.9481  0.1590
 6964TIP3   OH242306   2.784   1.256   3.229  0.1187  0.8818 -0.0052
 6964TIP3    H142307   2.834   1.338   3.230  1.4196  0.2048 -2.0543
 6964TIP3    H242308   2.847   1.190   3.257  0.9060 -0.1523 -3.7081
 6965TIP3   OH242309   3.631   2.314  15.084  0.6104  0.3069  0.3340
 6965TIP3    H142310   3.591   2.268  15.157  0.7178 -0.3797 -0.0354
 6965TIP3    H242311   3.565   2.311  15.014  1.5867 -1.5728 -0.5683
 6966TIP3   OH242312   1.834   2.352   0.680  0.1527  0.3008  0.1906
 6966TIP3    H142313   1.835   2.445   0.699 -0.2964  0.2900  0.2870
 6966TIP3    H242314   1.848   2.346   0.585  1.3685  0.4047  0.3481
 6967TIP3   OH242315   3.918   6.435  10.707  0.2965 -0.3536 -0.1431
 6967TIP3    H142316   3.912   6.498  10.778 -0.7418 -1.2480  0.6025
 6967TIP3    H242317   4.010   6.438  10.679  0.1956  1.7245 -0.3933
 6968TIP3   OH242318   4.740   3.043  15.241 -0.4536  0.3708 -0.4389
 6968TIP3    H142319   4.669   2.998  15.195 -1.2702  1.7246 -0.5566
 6968TIP3    H242320   4.802   2.974  15.263 -0.2927 -0.4234 -3.0661
 6969TIP3   OH242321   4.067   1.713   6.246 -0.1419  0.4496 -0.2691
 6969TIP3    H142322   4.086   1.679   6.333 -0.9924  1.9345  0.5481
 6969TIP3    H242323   4.153   1.724   6.205  0.4104  1.3552  1.0481
 6970TIP3   OH242324   4.682   5.490   6.159 -0.2638 -0.8296 -0.5841
 6970TIP3    H142325   4.597   5.520   6.192 -0.5507 -1.1183 -1.0469
 6970TIP3    H242326   4.683   5.517   6.067  0.3048 -0.4978 -0.4830
 6971TIP3   OH242327   6.648   5.769  16.129  0.1835 -0.5281  0.0186
 6971TIP3    H142328   6.569   5.819  16.107 -0.4497 -1.3525  0.3433
 6971TIP3    H242329   6.672   5.799  16.217 -1.4303 -2.2290  1.1217
 6972TIP3   OH242330   1.080   1.006  16.553  0.0521 -0.2426 -0.1523
 6972TIP3    H142331   1.086   0.920  16.510 -0.8761  0.1506 -1.1067
 6972TIP3    H242332   1.000   1.044  16.519  0.8835  1.3700 -0.3886
 6973TIP3   OH242333   6.152   5.093  10.765 -0.1143 -0.1501  0.1012
 6973TIP3    H142334   6.170   5.016  10.820  0.7471  0.8850  1.3306
 6973TIP3    H242335   6.153   5.060  10.675 -1.4419 -1.8789  0.6608
 6974TIP3   OH242336   6.724   0.893   0.757 -0.0343  0.7209 -0.6445
 6974TIP3    H142337   6.707   0.926   0.669  1.6761 -2.0333 -2.1429
 6974TIP3    H242338   6.652   0.833   0.775 -0.9743  2.0875  0.3816
 6975TIP3   OH242339   1.861   4.468   0.135 -0.1251 -0.2843  0.7486
 6975TIP3    H142340   1.867   4.386   0.087  1.0788  0.3954 -0.3516
 6975TIP3    H242341   1.779   4.462   0.183 -0.4847 -1.7639  0.0175
 6976TIP3   OH242342   2.320   4.014  14.053  0.1771  0.1189 -0.0920
 6976TIP3    H142343   2.243   3.961  14.035 -0.1875  0.6927 -0.2565
 6976TIP3    H242344   2.386   3.952  14.083  0.7056 -0.8503 -2.9820
 6977TIP3   OH242345   1.371   3.191   5.880  0.6435  0.1504  0.0360
 6977TIP3    H142346   1.326   3.120   5.926 -1.5931  1.7050  0.4289
 6977TIP3    H242347   1.451   3.206   5.931 -0.3596 -0.0897  1.7739
 6978TIP3   OH242348   5.385   3.357   0.267  0.4784 -0.7554  0.3630
 6978TIP3    H142349   5.455   3.324   0.211 -0.3444 -0.7895 -0.6764
 6978TIP3    H242350   5.313   3.294   0.257  0.0779 -0.4055  0.9290
 6979TIP3   OH242351   5.147   1.375   5.792  0.8006 -0.2163  0.4411
 6979TIP3    H142352   5.182   1.316   5.725 -0.2686 -1.5063  0.9623
 6979TIP3    H242353   5.222   1.395   5.848  1.6803  0.7937 -1.0510
 6980TIP3   OH242354   5.187   5.643   2.137  0.9935 -0.3764  0.0537
 6980TIP3    H142355   5.218   5.577   2.075  1.9768  1.5771 -1.6325
 6980TIP3    H242356   5.209   5.727   2.097 -0.9145  1.0417  1.7510
 6981TIP3   OH242357   4.159   2.152  15.728 -0.4231  0.1242 -0.1744
 6981TIP3    H142358   4.076   2.107  15.740  0.0047 -0.7903 -0.5550
 6981TIP3    H242359   4.188   2.173  15.817 -0.0615 -1.4322  0.1098
 6982TIP3   OH242360   0.748   3.689  14.690 -0.1025  0.2518 -0.6388
 6982TIP3    H142361   0.751   3.687  14.786  0.1445  0.8801 -0.6246
 6982TIP3    H242362   0.806   3.618  14.663 -0.8497 -0.4977 -0.3316
 6983TIP3   OH242363   3.405   3.982   2.445 -0.2755  0.0679  0.5774
 6983TIP3    H142364   3.442   3.977   2.533 -0.4820  0.7971  0.7068
 6983TIP3    H242365   3.430   3.899   2.404 -0.3220 -0.3492  1.3765
 6984TIP3   OH242366   5.842   2.893  11.676 -0.1964  0.0484  0.3075
 6984TIP3    H142367   5.885   2.957  11.620 -2.1554  0.4955 -0.7850
 6984TIP3    H242368   5.884   2.904  11.762  0.5482  1.7302 -0.2324
 6985TIP3   OH242369   0.933   4.125  14.267  0.1215 -0.2807  1.0092
 6985TIP3    H142370   0.942   4.090  14.179 -0.4655  0.8040  0.5035
 6985TIP3    H242371   0.964   4.054  14.324  0.5964 -0.9571 -0.0569
 6986TIP3   OH242372   4.670   5.285   3.790  0.2783 -0.8563 -0.1729
 6986TIP3    H142373   4.648   5.357   3.730 -0.5252 -0.7248  0.2672
 6986TIP3    H242374   4.618   5.303   3.868  0.1432 -1.8607 -0.0252
 6987TIP3   OH242375   0.937   3.626  13.285 -0.0923 -0.1230  0.3540
 6987TIP3    H142376   1.023   3.630  13.326 -0.5563 -0.4484  1.3751
 6987TIP3    H242377   0.899   3.712  13.298 -0.6722 -0.5440  1.6009
 6988TIP3   OH242378   6.430   0.151   3.981 -0.5083  0.1913  0.3903
 6988TIP3    H142379   6.396   0.070   3.943 -0.7151  0.7247 -0.6092
 6988TIP3    H242380   6.392   0.220   3.926  2.1918  0.8350 -0.8319
 6989TIP3   OH242381   3.081   1.663  14.489 -0.1474  0.1863 -0.0139
 6989TIP3    H142382   3.162   1.652  14.440  0.4307  2.6836  0.2627
 6989TIP3    H242383   3.107   1.711  14.568 -1.8363  0.7135  0.2674
 6990TIP3   OH242384   3.408   6.253   3.721  0.0333  0.8175 -0.2307
 6990TIP3    H142385   3.322   6.295   3.718  0.5508  1.8926 -0.2769
 6990TIP3    H242386   3.418   6.213   3.635  0.2457  2.0531 -0.7931
 6991TIP3   OH242387   2.192   4.288   4.218 -0.0502  0.3590  0.6502
 6991TIP3    H142388   2.262   4.354   4.222  1.1736 -0.8440  0.1826
 6991TIP3    H242389   2.239   4.205   4.221 -1.5694 -0.5069  1.5086
 6992TIP3   OH242390   1.946   0.457  11.891  0.3145  0.1031  0.0432
 6992TIP3    H142391   1.938   0.507  11.810  0.0497 -0.7098 -0.4487
 6992TIP3    H242392   2.013   0.391  11.870 -0.9383 -1.1661 -0.0777
 6993TIP3   OH242393   0.755   6.336  16.528 -0.2194  0.8430 -0.2505
 6993TIP3    H142394   0.784   6.419  16.565  2.6011  0.0460 -0.4254
 6993TIP3    H242395   0.751   6.352  16.434 -0.3012  0.9534 -0.2288
 6994TIP3   OH242396   2.210   0.204  12.251  0.3632  0.5026 -0.2096
 6994TIP3    H142397   2.288   0.160  12.216  0.7234  0.7014  0.3283
 6994TIP3    H242398   2.220   0.295  12.222 -0.9431  0.0517 -2.2823
 6995TIP3   OH242399   3.816   0.463  16.013 -0.0329  0.0399  0.0388
 6995TIP3    H142400   3.766   0.494  16.089 -0.0299 -0.4421  0.2452
 6995TIP3    H242401   3.824   0.369  16.027  0.7280  0.0753 -0.1131
 6996TIP3   OH242402   0.427   2.799  15.058 -0.4964 -0.6001 -0.1028
 6996TIP3    H142403   0.346   2.841  15.029  0.1965 -0.8562 -2.6724
 6996TIP3    H242404   0.436   2.723  15.001  1.4129 -0.7192  0.2930
 6997TIP3   OH242405   2.045   1.853  11.794 -0.3561  0.5547 -0.1482
 6997TIP3    H142406   1.954   1.826  11.803 -0.3220  0.8867  1.5034
 6997TIP3    H242407   2.073   1.817  11.710 -1.1948 -1.9066  0.5588
 6998TIP3   OH242408   1.856   1.996   5.170  0.5190  0.3434 -0.1418
 6998TIP3    H142409   1.806   1.983   5.090  0.3039 -0.8809  0.1663
 6998TIP3    H242410   1.943   1.962   5.150  0.4444 -0.0298  0.1559
 6999TIP3   OH242411   1.830   3.349   5.226  0.2426  0.0909 -0.1892
 6999TIP3    H142412   1.887   3.287   5.182  3.0580  3.1330 -1.3050
 6999TIP3    H242413   1.784   3.394   5.156 -2.2951 -1.0673  0.6250
 7000TIP3   OH242414   2.743   2.709   3.020 -0.0358  0.1297 -0.2809
 7000TIP3    H142415   2.686   2.735   3.092 -0.7445  1.6599 -1.3437
 7000TIP3    H242416   2.685   2.667   2.957  0.6654 -1.7024  0.2157
 7001TIP3   OH242417   6.582   3.753  13.110 -0.1953  0.1637  0.7787
 7001TIP3    H142418   6.546   3.678  13.062  1.9555 -0.4028 -0.0480
 7001TIP3    H242419   6.626   3.805  13.043  1.6715  0.1068  1.9010
 7002TIP3   OH242420   2.211   4.504   6.882 -0.7668  0.6483 -0.0055
 7002TIP3    H142421   2.126   4.491   6.840 -0.0966  0.1751 -1.2969
 7002TIP3    H242422   2.235   4.594   6.863  0.2164  0.0139 -2.0553
 7003TIP3   OH242423   3.639   6.385  13.119  0.5737  0.6963  0.2513
 7003TIP3    H142424   3.558   6.410  13.163 -0.5348 -1.3169 -0.5003
 7003TIP3    H242425   3.699   6.361  13.189  0.1934  1.2601  0.7783
 7004TIP3   OH242426   1.944   4.373  15.641  0.2649 -0.1449 -0.5402
 7004TIP3    H142427   1.856   4.399  15.668  0.9454  0.5235  1.2327
 7004TIP3    H242428   1.959   4.421  15.560 -0.6559  0.5269 -0.3344
 7005TIP3   OH242429   3.597   0.000   5.626 -0.1378 -0.4695 -0.2084
 7005TIP3    H142430   3.536   0.052   5.572 -0.6886 -0.9951 -0.1071
 7005TIP3    H242431   3.574   0.022   5.716  0.4232  0.0003 -0.1763
 7006TIP3   OH242432   1.334   0.427   1.954 -0.1697 -0.3101  0.1857
 7006TIP3    H142433   1.424   0.426   1.922 -0.3404  0.1994 -0.3289
 7006TIP3    H242434   1.286   0.371   1.892 -0.2599 -0.3446  0.2864
 7007TIP3   OH242435   4.017   6.291  14.126  0.0282  0.1069 -0.0050
 7007TIP3    H142436   4.062   6.289  14.041 -1.3601  2.5799 -0.8858
 7007TIP3    H242437   4.034   6.378  14.161  0.2643 -0.7322  2.1549
 7008TIP3   OH242438   5.141   4.901   4.814  0.1801  0.0536 -0.0416
 7008TIP3    H142439   5.141   4.987   4.854 -1.7286  0.0353  0.0904
 7008TIP3    H242440   5.088   4.910   4.735  1.1711 -0.6791 -0.8330
 7009TIP3   OH242441   0.426   5.711  12.114 -0.4044 -0.3137 -0.3542
 7009TIP3    H142442   0.342   5.675  12.142 -0.1459 -0.6075  0.0475
 7009TIP3    H242443   0.476   5.723  12.195 -0.3539  0.6210 -0.5140
 7010TIP3   OH242444   2.943   3.232   4.806 -0.2876  0.4623  0.0614
 7010TIP3    H142445   3.002   3.223   4.880 -0.8148  0.7392  0.5170
 7010TIP3    H242446   2.863   3.268   4.843 -0.2227  1.5323 -0.7908
 7011TIP3   OH242447   4.651   1.969  12.473 -0.3111  0.2755  0.4091
 7011TIP3    H142448   4.658   1.891  12.528  1.4237  0.5181  0.5900
 7011TIP3    H242449   4.557   1.983  12.463 -0.6845 -1.9882  0.1542
 7012TIP3   OH242450   1.190   6.023  15.444 -0.2018  0.3075  0.5869
 7012TIP3    H142451   1.245   6.098  15.467  2.3215 -0.8867 -1.0490
 7012TIP3    H242452   1.177   6.031  15.349 -1.2438 -0.4964  0.6440
 7013TIP3   OH242453   1.230   6.174  13.802 -0.4771  0.5320 -0.0795
 7013TIP3    H142454   1.292   6.110  13.766 -0.9291 -0.5264  0.9494
 7013TIP3    H242455   1.154   6.168  13.745 -0.1583  0.8737 -0.5553
 7014TIP3   OH242456   4.169   1.540   2.873  0.2897  0.4375  0.1089
 7014TIP3    H142457   4.117   1.557   2.951  0.9491  1.9279  0.2570
 7014TIP3    H242458   4.139   1.604   2.809  2.1482  1.5987  0.3231
 7015TIP3   OH242459   6.140   6.725  13.164 -0.4872  0.6386 -0.5196
 7015TIP3    H142460   6.100   6.803  13.203 -0.7194  0.5234 -0.5255
 7015TIP3    H242461   6.206   6.698  13.227 -1.0460  0.2941 -0.0752
 7016TIP3   OH242462   2.360   5.242   3.086 -0.6213 -0.1719 -0.0718
 7016TIP3    H142463   2.404   5.305   3.028 -1.7224 -0.1765 -0.9509
 7016TIP3    H242464   2.335   5.170   3.028 -1.7949 -0.1544  0.3826
 7017TIP3   OH242465   0.087   2.722  11.863  0.1000  0.4272 -0.0727
 7017TIP3    H142466   0.136   2.803  11.868  1.2695 -0.2983  0.6648
 7017TIP3    H242467   0.144   2.661  11.817 -0.0068 -0.4842  0.9426
 7018TIP3   OH242468   4.554   0.330  14.811  0.3983 -0.0386 -0.4113
 7018TIP3    H142469   4.503   0.411  14.816  1.4459  0.9804 -3.6017
 7018TIP3    H242470   4.489   0.260  14.815 -0.5575  0.8809  2.1272
 7019TIP3   OH242471   3.023   3.860  13.159 -0.5526  0.1645 -0.0644
 7019TIP3    H142472   3.093   3.797  13.176  1.0915  2.0904  0.7102
 7019TIP3    H242473   2.974   3.866  13.241 -0.5568  0.0927 -0.0613
 7020TIP3   OH242474   3.100   6.438   4.463 -0.2727 -0.2282 -0.7697
 7020TIP3    H142475   3.007   6.424   4.442 -0.5490  0.9400 -0.4086
 7020TIP3    H242476   3.125   6.514   4.410  0.4594 -0.4923 -0.8047
 7021TIP3   OH242477   6.697   1.598   2.795  0.4681  0.2769  0.1664
 7021TIP3    H142478   6.616   1.646   2.813  0.3439 -0.2498  1.0746
 7021TIP3    H242479   6.720   1.622   2.706 -0.1921  1.1549  0.2233
 7022TIP3   OH242480   2.270   2.035  11.563  0.2914  0.1860 -0.0105
 7022TIP3    H142481   2.320   1.959  11.592  2.1814  1.2660 -0.2523
 7022TIP3    H242482   2.203   2.046  11.630 -1.2197 -2.7105 -0.8792
 7023TIP3   OH242483   4.264   5.805   2.997 -0.0868  0.7342  0.4983
 7023TIP3    H142484   4.350   5.834   2.968 -1.2756  2.3301 -1.7366
 7023TIP3    H242485   4.221   5.774   2.918 -2.0020  1.1468  1.3128
 7024TIP3   OH242486   5.036   6.474  11.115  0.2433  0.3266 -0.1219
 7024TIP3    H142487   5.030   6.541  11.047 -1.2191 -0.3365 -0.7018
 7024TIP3    H242488   5.022   6.392  11.068 -1.3498 -0.1110  1.0304
 7025TIP3   OH242489   1.437   6.744   3.909 -0.0944 -0.0514 -0.3880
 7025TIP3    H142490   1.431   6.739   3.814 -4.8892  0.8139 -0.4071
 7025TIP3    H242491   1.477   6.661   3.935 -1.0796 -1.5110 -3.0969
 7026TIP3   OH242492   1.789   3.643   2.983  0.1644 -1.1988  0.1259
 7026TIP3    H142493   1.767   3.667   2.893  1.0305 -3.0639 -0.6259
 7026TIP3    H242494   1.878   3.676   2.996 -0.2305 -0.2757  0.5807
 7027TIP3   OH242495   3.441   4.378   0.542 -0.3405 -0.0098 -0.2316
 7027TIP3    H142496   3.446   4.471   0.561 -1.4482  0.4706 -2.0900
 7027TIP3    H242497   3.411   4.338   0.624 -0.5218  1.3397  0.3741
 7028TIP3   OH242498   5.160   2.703  17.068 -0.4548 -0.2569 -0.6496
 7028TIP3    H142499   5.185   2.647  16.995 -0.5902 -0.5710 -0.4535
 7028TIP3    H242500   5.101   2.650  17.121  0.4727 -0.4111  0.2607
 7029TIP3   OH242501   5.584   3.803   0.940 -0.1552  0.3748 -0.4964
 7029TIP3    H142502   5.580   3.772   0.850 -1.8309 -2.8524  0.5221
 7029TIP3    H242503   5.514   3.868   0.946 -2.4951 -1.9243 -0.8261
 7030TIP3   OH242504   0.809   3.919   0.577 -0.1730  0.3349 -0.4172
 7030TIP3    H142505   0.755   3.953   0.506  0.5705 -1.8618 -2.1491
 7030TIP3    H242506   0.745   3.880   0.637 -0.7223  0.8828 -0.6310
 7031TIP3   OH242507   2.304   0.506   1.326 -0.2160  0.2492  0.1609
 7031TIP3    H142508   2.305   0.413   1.306 -1.4236  0.8605 -3.5716
 7031TIP3    H242509   2.213   0.524   1.351  0.2473  0.3330  1.9367
 7032TIP3   OH242510   4.246   2.012   0.470  0.1610 -0.1370  0.2213
 7032TIP3    H142511   4.277   2.021   0.380  0.7035 -0.0285  0.4166
 7032TIP3    H242512   4.195   2.091   0.486  0.4202  0.0417  0.1535
 7033TIP3   OH242513   5.929   6.059  14.854  0.3120 -0.7892 -0.2381
 7033TIP3    H142514   6.010   6.079  14.807 -0.2420  0.9953 -0.5399
 7033TIP3    H242515   5.955   5.997  14.922  2.8948  2.7142  2.3812
 7034TIP3   OH242516   0.349   3.692   5.160 -0.0119 -0.4180  0.2779
 7034TIP3    H142517   0.376   3.731   5.077  1.1610  2.8638  2.0328
 7034TIP3    H242518   0.431   3.677   5.207 -0.7383  0.2544  1.8217
 7035TIP3   OH242519   5.657   4.895   5.268 -0.0128 -0.2145  1.0157
 7035TIP3    H142520   5.707   4.944   5.333  0.8223 -1.4156  1.3185
 7035TIP3    H242521   5.626   4.818   5.315  0.8403 -1.2494 -0.0540
 7036TIP3   OH242522   2.272   1.857   6.431  0.2282 -0.1902  0.1329
 7036TIP3    H142523   2.231   1.791   6.375  0.1120  0.6059 -0.7606
 7036TIP3    H242524   2.206   1.926   6.438 -0.6327 -1.1770  3.0875
 7037TIP3   OH242525   4.275   0.066  16.527  0.1033 -0.1153  0.5872
 7037TIP3    H142526   4.350   0.049  16.584 -0.0737 -2.1434  0.3104
 7037TIP3    H242527   4.286   0.005  16.454 -2.0716 -0.9145  0.8286
 7038TIP3   OH242528   1.402   5.718   5.748 -0.2569 -0.5529  0.0690
 7038TIP3    H142529   1.458   5.759   5.813 -0.0578 -1.1810  0.3011
 7038TIP3    H242530   1.331   5.677   5.798 -0.3410 -0.6648 -0.1376
 7039TIP3   OH242531   1.979   5.220   0.965  0.5330  0.1761  0.2237
 7039TIP3    H142532   2.056   5.163   0.963 -0.0765 -0.6790 -2.3253
 7039TIP3    H242533   1.999   5.289   0.902 -0.4483  0.3912  0.1305
 7040TIP3   OH242534   6.028   4.038  17.235 -0.0377  0.2432 -0.5703
 7040TIP3    H142535   6.077   4.028  17.153  1.1912  1.4470 -0.0224
 7040TIP3    H242536   6.085   3.996  17.301  0.3178  1.7088  0.0889
 7041TIP3   OH242537   3.624   2.637   5.739 -0.1703  0.0583  0.2165
 7041TIP3    H142538   3.713   2.673   5.748  1.2685 -2.9726 -0.6956
 7041TIP3    H242539   3.601   2.652   5.648  0.0558 -0.5084  0.0643
 7042TIP3   OH242540   0.495   6.196  16.867 -0.5918 -0.0780  0.0672
 7042TIP3    H142541   0.403   6.216  16.880 -0.0703  0.8709  2.8251
 7042TIP3    H242542   0.540   6.279  16.880  0.7444 -0.7125 -0.2869
 7043TIP3   OH242543   5.061   2.633  12.689  0.0336 -0.4386  0.2322
 7043TIP3    H142544   4.997   2.624  12.618  0.3873 -2.0860  0.0911
 7043TIP3    H242545   5.132   2.574  12.665  1.1774  0.6377  0.8713
 7044TIP3   OH242546   3.907   1.419  15.524 -0.1502 -0.0897  0.6809
 7044TIP3    H142547   3.884   1.455  15.439  1.8560  0.1527  0.1942
 7044TIP3    H242548   3.993   1.380  15.511 -1.2596 -3.2288  1.7173
 7045TIP3   OH242549   3.583   3.201  11.421 -0.1501  0.3318 -0.7049
 7045TIP3    H142550   3.535   3.136  11.369  0.4773 -0.6894 -0.0327
 7045TIP3    H242551   3.665   3.158  11.443  0.5794  1.6209 -0.8208
 7046TIP3   OH242552   6.261   1.012  13.189  0.6926 -0.0054  0.1175
 7046TIP3    H142553   6.202   0.945  13.223  1.3913  0.4962  2.4446
 7046TIP3    H242554   6.327   0.963  13.140  0.1506 -0.8221  0.1792
 7047TIP3   OH242555   0.550   0.608   5.310 -0.3405  0.0617 -0.7061
 7047TIP3    H142556   0.480   0.664   5.277  0.5502  1.2984 -0.5239
 7047TIP3    H242557   0.613   0.667   5.350  2.7961 -0.4646 -4.2204
 7048TIP3   OH242558   2.843   4.496  14.917 -0.1679  0.0028  0.5132
 7048TIP3    H142559   2.814   4.584  14.941  1.2931 -0.0672  2.8045
 7048TIP3    H242560   2.823   4.489  14.823 -1.0396  2.4633  0.4473
 7049TIP3   OH242561   0.051   5.286   4.565  0.1301  0.1010  0.1378
 7049TIP3    H142562   0.120   5.219   4.567 -0.9363 -1.0169  0.7527
 7049TIP3    H242563   0.071   5.341   4.641  0.6690  0.1252 -0.0141
 7050TIP3   OH242564   0.087   4.203   0.858  0.1101  0.0011 -0.5852
 7050TIP3    H142565   0.166   4.255   0.869  0.2042 -0.1717 -0.4459
 7050TIP3    H242566   0.063   4.214   0.765  1.2708 -1.3269 -1.0737
 7051TIP3   OH242567   4.989   4.040   2.224  0.8894  0.0443  0.5932
 7051TIP3    H142568   5.005   4.019   2.133  2.5667 -0.7621  1.0358
 7051TIP3    H242569   5.064   4.004   2.271 -0.6437 -0.8641  2.4841
 7052TIP3   OH242570   4.137   4.695   3.787 -0.2058  0.1470  0.1879
 7052TIP3    H142571   4.183   4.777   3.768 -0.1015  0.6051  2.1341
 7052TIP3    H242572   4.053   4.723   3.822 -0.7352 -0.6239 -0.4471
 7053TIP3   OH242573   6.310   2.047  13.160  0.3455 -0.2574 -0.5812
 7053TIP3    H142574   6.272   2.056  13.073  0.1586  0.2863 -0.4474
 7053TIP3    H242575   6.268   2.116  13.212  2.4781  1.2293 -0.7493
 7054TIP3   OH242576   5.191   1.257   0.590 -0.0519 -0.4582  0.1667
 7054TIP3    H142577   5.186   1.212   0.674 -0.9515 -0.3038  0.1959
 7054TIP3    H242578   5.108   1.304   0.581  1.1107  1.7939  0.4433
 7055TIP3   OH242579   2.017   0.989   4.686  0.7548 -0.0904  0.1152
 7055TIP3    H142580   1.958   0.946   4.748  0.9882  0.6843  0.9078
 7055TIP3    H242581   2.105   0.968   4.719  0.8713  0.9198  0.4766
 7056TIP3   OH242582   3.577   4.668  15.052  0.1937 -0.2019 -0.5510
 7056TIP3    H142583   3.591   4.736  14.987  1.3370  0.5344  0.4121
 7056TIP3    H242584   3.627   4.593  15.020  0.7547  0.1594 -0.5387
 7057TIP3   OH242585   0.888   2.533   2.068  0.4543 -0.5460  0.1497
 7057TIP3    H142586   0.924   2.472   2.003  2.1370 -0.1933  0.6875
 7057TIP3    H242587   0.958   2.541   2.133 -0.6681  0.1555  1.3039
 7058TIP3   OH242588   1.784   6.194   1.305  0.0751 -0.1933  0.0359
 7058TIP3    H142589   1.760   6.185   1.397  0.2575 -0.1995  0.0841
 7058TIP3    H242590   1.810   6.106   1.279 -2.4991 -0.8060 -0.7605
 7059TIP3   OH242591   2.307   0.358   2.504  0.1578  0.5582 -0.1639
 7059TIP3    H142592   2.220   0.340   2.466  0.4649 -0.3686 -0.4518
 7059TIP3    H242593   2.291   0.428   2.567 -0.9115  0.0078  0.2148
 7060TIP3   OH242594   6.249   6.689  12.459 -0.5216 -0.0881  0.1353
 7060TIP3    H142595   6.183   6.758  12.464 -1.1497 -0.7246  1.3070
 7060TIP3    H242596   6.222   6.626  12.527  0.1777 -1.3355 -0.6972
 7061TIP3   OH242597   0.925   0.341  13.755 -0.4984  0.3686 -0.3883
 7061TIP3    H142598   0.940   0.256  13.713 -0.8656 -0.3115  0.8134
 7061TIP3    H242599   1.006   0.357  13.805 -0.8632  0.1848  0.2717
 7062TIP3   OH242600   4.987   1.414   2.337 -0.3768  0.1714  0.0094
 7062TIP3    H142601   5.062   1.377   2.291  0.1962  0.2808  0.8345
 7062TIP3    H242602   4.944   1.337   2.376 -0.9787  0.0564 -0.8565
 7063TIP3   OH242603   2.467   5.949   4.915 -0.1301 -0.1287 -0.2605
 7063TIP3    H142604   2.430   6.005   4.847 -1.9532  0.7846  1.3688
 7063TIP3    H242605   2.430   5.983   4.996  0.7696 -2.1032  1.0588
 7064TIP3   OH242606   1.347   4.269  14.578 -0.0895 -0.0023 -0.0173
 7064TIP3    H142607   1.326   4.363  14.573  0.9745  0.2598  0.1984
 7064TIP3    H242608   1.433   4.266  14.619  0.7548 -0.9685 -1.7771
 7065TIP3   OH242609   2.133   3.158   4.245 -0.6766 -0.0845 -0.4532
 7065TIP3    H142610   2.135   3.121   4.333 -0.0142  2.2910  0.6037
 7065TIP3    H242611   2.093   3.244   4.256  1.1416  1.0653 -2.1345
 7066TIP3   OH242612   6.157   2.955   3.366 -0.0233  0.4621 -0.0187
 7066TIP3    H142613   6.087   2.988   3.309 -0.5245  0.1848  0.4247
 7066TIP3    H242614   6.230   3.014   3.350 -0.7841  1.5847  0.5035
 7067TIP3   OH242615   4.374   6.532  12.172 -0.2528  0.2666  0.1413
 7067TIP3    H142616   4.448   6.499  12.222 -0.6698  0.0593  0.6307
 7067TIP3    H242617   4.407   6.539  12.082  0.1120 -0.6329  0.1909
 7068TIP3   OH242618   0.244   4.301   4.423 -0.1017 -0.1672  0.2156
 7068TIP3    H142619   0.289   4.217   4.418 -1.9148 -1.1499 -0.2229
 7068TIP3    H242620   0.214   4.307   4.514  0.4884  0.2694  0.3868
 7069TIP3   OH242621   2.772   0.386   3.983  0.2606 -0.0906  0.3896
 7069TIP3    H142622   2.735   0.461   3.937  2.5516  0.7021 -0.2940
 7069TIP3    H242623   2.788   0.418   4.072 -2.2488 -1.0007  1.2641
 7070TIP3   OH242624   6.744   0.418  16.876 -0.2163 -0.6554  0.0501
 7070TIP3    H142625   6.671   0.396  16.934  0.3846  0.7093  1.3793
 7070TIP3    H242626   6.809   0.349  16.892 -0.5911 -1.0367 -0.0330
 7071TIP3   OH242627   3.137   0.474  15.600 -0.0165 -0.0254  0.0243
 7071TIP3    H142628   3.190   0.459  15.522 -0.4723  0.9193 -0.4887
 7071TIP3    H242629   3.200   0.495  15.669  0.3051  0.9186 -0.5411
 7072TIP3   OH242630   1.631   1.285  14.052 -0.3548 -0.1601  0.2642
 7072TIP3    H142631   1.606   1.377  14.060 -2.1512 -0.5442 -0.4052
 7072TIP3    H242632   1.616   1.263  13.960 -0.5047 -1.2699  0.5317
 7073TIP3   OH242633   4.079   0.534  10.665 -0.6959  0.2519 -0.7523
 7073TIP3    H142634   3.993   0.536  10.706 -1.4991  1.0161 -2.3581
 7073TIP3    H242635   4.116   0.449  10.689 -1.4916  0.2807  0.7005
 7074TIP3   OH242636   2.170   4.060  15.208 -0.0203  0.5215  1.0397
 7074TIP3    H142637   2.149   4.123  15.277 -0.7920  1.7569 -0.2816
 7074TIP3    H242638   2.137   4.100  15.128  0.3519 -1.1396  0.0162
 7075TIP3   OH242639   4.071   1.174   2.123 -0.5890  0.1422  0.2764
 7075TIP3    H142640   4.118   1.118   2.185  1.9591  1.0894 -0.6348
 7075TIP3    H242641   4.042   1.249   2.175 -0.9483 -0.4007  0.8542
 7076TIP3   OH242642   0.364   0.369  17.292 -0.3134 -0.1657 -0.0766
 7076TIP3    H142643   0.322   0.288  17.321 -0.6922  0.5096  1.3408
 7076TIP3    H242644   0.430   0.388  17.359  1.3808 -0.4848 -1.5688
 7077TIP3   OH242645   3.829   5.176   3.709 -0.1596 -0.2553 -0.4071
 7077TIP3    H142646   3.796   5.104   3.763  1.2714 -1.9300 -1.6577
 7077TIP3    H242647   3.920   5.189   3.737 -0.5490  1.5167  0.1977
 7078TIP3   OH242648   2.009   4.031  13.847 -0.3517 -0.4501  0.0612
 7078TIP3    H142649   1.965   4.112  13.822 -1.6057 -1.0302  0.3261
 7078TIP3    H242650   1.970   4.007  13.931  2.8579  0.7774  2.0966
 7079TIP3   OH242651   3.400   5.891   0.628  0.2578  0.1851 -0.3049
 7079TIP3    H142652   3.474   5.886   0.569 -1.7120 -2.8640 -2.8652
 7079TIP3    H242653   3.418   5.825   0.695  0.5952  0.6919  0.1154
 7080TIP3   OH242654   4.800   1.499   3.153 -0.2253 -0.1213  0.0291
 7080TIP3    H142655   4.887   1.460   3.160  0.5340  1.2606 -1.0219
 7080TIP3    H242656   4.767   1.501   3.242  0.8679 -0.5968  0.4615
 7081TIP3   OH242657   2.472   6.230  16.664 -0.8414  0.4127 -0.0905
 7081TIP3    H142658   2.530   6.298  16.630 -0.7959  0.7269  0.5944
 7081TIP3    H242659   2.480   6.158  16.601 -1.5182  1.3350 -1.2600
 7082TIP3   OH242660   3.939   0.692   4.873 -0.3229 -0.2302  0.2517
 7082TIP3    H142661   3.874   0.733   4.816  0.5656  1.6184  0.4893
 7082TIP3    H242662   4.003   0.654   4.812 -0.3442  0.1130  0.0087
 7083TIP3   OH242663   5.569   3.039   2.019  0.2735  0.0456  0.4736
 7083TIP3    H142664   5.627   3.040   1.943  0.2690  0.1551  0.4721
 7083TIP3    H242665   5.552   2.946   2.035 -0.2691  0.0445 -0.0731
 7084TIP3   OH242666   1.549   4.513  11.388  0.1109  0.1548 -0.7443
 7084TIP3    H142667   1.621   4.504  11.451 -0.3095  0.0683 -0.2675
 7084TIP3    H242668   1.545   4.427  11.345 -0.4099 -0.2041  0.0016
 7085TIP3   OH242669   3.953   6.206  11.639 -0.7498 -0.3101 -0.0476
 7085TIP3    H142670   3.924   6.262  11.711 -0.6299 -0.7977  0.3814
 7085TIP3    H242671   3.907   6.123  11.653 -0.9638 -0.3057 -0.7075
 7086TIP3   OH242672   6.762   5.795  17.204 -0.2412 -0.6191  0.1146
 7086TIP3    H142673   6.753   5.762  17.293  0.9568 -1.4613 -0.0557
 7086TIP3    H242674   6.829   5.740  17.165  1.2116  1.4530 -0.4608
 7087TIP3   OH242675   1.646   3.027   3.933  0.2528 -0.1112  0.2689
 7087TIP3    H142676   1.733   3.032   3.971  0.6544 -0.3155 -0.6081
 7087TIP3    H242677   1.604   3.109   3.960  0.4039 -0.3908  1.4087
 7088TIP3   OH242678   4.207   5.219  15.993 -0.6228 -0.5437 -0.2707
 7088TIP3    H142679   4.174   5.277  16.062 -1.0481  1.0570 -1.7418
 7088TIP3    H242680   4.287   5.262  15.963 -1.2307 -0.3943 -1.7476
 7089TIP3   OH242681   3.237   5.515  11.940  0.1286  0.0643  0.5948
 7089TIP3    H142682   3.172   5.482  11.879  0.0123 -0.2031  0.8586
 7089TIP3    H242683   3.312   5.540  11.885  0.4252 -1.1420  0.4336
 7090TIP3   OH242684   4.238   0.568  15.386 -0.1518 -0.4807 -0.7971
 7090TIP3    H142685   4.270   0.593  15.473  2.5608 -0.5741 -1.6628
 7090TIP3    H242686   4.206   0.478  15.396  0.6169 -0.6742  0.0098
 7091TIP3   OH242687   1.265   1.729   4.207 -0.1408 -0.1444 -0.1075
 7091TIP3    H142688   1.356   1.700   4.210  0.8141  2.5991  1.2673
 7091TIP3    H242689   1.268   1.811   4.158 -1.5764  0.7414  1.1749
 7092TIP3   OH242690   1.607   5.725  15.596 -0.5258 -0.0466  0.1008
 7092TIP3    H142691   1.547   5.728  15.671 -0.2312 -1.4078  0.4033
 7092TIP3    H242692   1.555   5.760  15.523 -1.2122  0.1394  0.6596
 7093TIP3   OH242693   5.253   1.000   0.792 -0.2647 -0.1148  0.0422
 7093TIP3    H142694   5.335   0.950   0.793  0.2034  0.6041 -0.9546
 7093TIP3    H242695   5.240   1.025   0.884 -0.5759 -2.1174  0.6028
 7094TIP3   OH242696   6.374   3.605   3.617 -1.0004  0.1959  0.6046
 7094TIP3    H142697   6.358   3.518   3.581 -1.4433  0.6649 -0.3900
 7094TIP3    H242698   6.345   3.665   3.548  0.9441  1.1365  0.5367
 7095TIP3   OH242699   4.530   4.170   4.832  0.5737  0.1039 -0.1753
 7095TIP3    H142700   4.596   4.151   4.899  1.6914  0.9926 -1.0040
 7095TIP3    H242701   4.467   4.098   4.840  0.0527  0.7291  2.5732
 7096TIP3   OH242702   5.537   6.117  10.759  0.4603 -0.1029 -0.3833
 7096TIP3    H142703   5.467   6.177  10.785  0.4519  0.1279 -0.9191
 7096TIP3    H242704   5.491   6.036  10.735  0.6110 -1.1323  2.4356
 7097TIP3   OH242705   4.243   0.452   4.344 -0.1252 -0.3200  0.1330
 7097TIP3    H142706   4.238   0.513   4.270  0.9829 -0.5243 -0.1257
 7097TIP3    H242707   4.159   0.462   4.389 -0.5884  0.2268 -0.8220
 7098TIP3   OH242708   5.988   3.239  12.535  0.1136  0.1837  0.3564
 7098TIP3    H142709   5.935   3.301  12.584  1.1583  0.9180  0.5752
 7098TIP3    H242710   5.968   3.258  12.443 -1.6180 -0.9970  0.4478
 7099TIP3   OH242711   2.417   5.293  16.311 -0.2495 -0.1671  0.2830
 7099TIP3    H142712   2.327   5.283  16.345 -1.1413 -0.2617 -1.9549
 7099TIP3    H242713   2.446   5.204  16.295 -0.6784 -0.0675 -1.1751
 7100TIP3   OH242714   5.661   2.412  16.748 -0.1384 -0.4202 -0.1203
 7100TIP3    H142715   5.743   2.364  16.759  0.5261  0.1337 -2.1778
 7100TIP3    H242716   5.683   2.485  16.690 -1.9425  0.1593 -0.1519
 7101TIP3   OH242717   0.211   6.134  16.886 -0.7868  0.3329  0.4758
 7101TIP3    H142718   0.177   6.154  16.973 -0.0561 -0.6255  0.9934
 7101TIP3    H242719   0.225   6.040  16.886  0.2327  0.4664 -0.3145
 7102TIP3   OH242720   2.560   5.435  14.592  0.8426 -0.4749  0.1115
 7102TIP3    H142721   2.528   5.497  14.658 -0.7065 -1.6769  0.5367
 7102TIP3    H242722   2.552   5.349  14.634  0.8933 -1.1680 -1.2415
 7103TIP3   OH242723   5.331   0.733   0.346 -0.9958 -0.5113  0.0889
 7103TIP3    H142724   5.359   0.755   0.435 -0.1559  0.0245 -0.2925
 7103TIP3    H242725   5.366   0.804   0.292  0.5693 -2.0407 -1.0028
 7104TIP3   OH242726   6.708   0.961  16.132 -0.1980 -0.2004  0.9015
 7104TIP3    H142727   6.617   0.970  16.105  0.1620  0.4476 -0.2010
 7104TIP3    H242728   6.726   0.867  16.124  0.0653  0.0047 -1.9444
 7105TIP3   OH242729   2.378   3.868  15.998 -0.5440  0.3364 -0.7124
 7105TIP3    H142730   2.349   3.815  16.073 -1.8110 -1.2588 -2.2137
 7105TIP3    H242731   2.300   3.919  15.974  0.1926  1.7053 -0.2879
 7106TIP3   OH242732   3.256   2.377  12.313  0.3609  0.4165 -0.2034
 7106TIP3    H142733   3.266   2.459  12.265  2.5771 -0.6000 -1.6764
 7106TIP3    H242734   3.202   2.399  12.389  1.0740  3.2649 -0.4336
 7107TIP3   OH242735   5.862   2.947   1.895 -0.6644 -0.5483  0.6565
 7107TIP3    H142736   5.939   2.892   1.884  0.0744  0.5171  0.2781
 7107TIP3    H242737   5.797   2.910   1.835  0.2809 -0.2163 -0.6223
 7108TIP3   OH242738   0.775   2.872  16.583 -0.0143  0.3623  0.1925
 7108TIP3    H142739   0.841   2.806  16.602  0.6476 -0.3823 -3.7822
 7108TIP3    H242740   0.824   2.949  16.556 -0.8294  1.3921  1.4916
 7109TIP3   OH242741   5.506   1.850   4.264 -0.1298  0.4489 -0.6441
 7109TIP3    H142742   5.421   1.892   4.269  0.4864  1.6397  0.4691
 7109TIP3    H242743   5.557   1.906   4.205  0.5585  1.0553  0.4890
 7110TIP3   OH242744   6.453   4.495  13.606  0.0988  0.1048  0.0125
 7110TIP3    H142745   6.462   4.499  13.511  1.5580  1.8185  0.1613
 7110TIP3    H242746   6.377   4.552  13.625 -0.0127 -0.0035 -0.1056
 7111TIP3   OH242747   5.815   5.055   5.398  0.2569 -0.5899 -0.3018
 7111TIP3    H142748   5.871   5.090   5.329  0.6835  1.0591  0.8095
 7111TIP3    H242749   5.838   5.107   5.476 -3.0765  0.5084  0.1325
 7112TIP3   OH242750   0.556   4.064  11.636  0.2342  0.1574  0.2373
 7112TIP3    H142751   0.560   3.977  11.677 -0.3519 -0.3429 -0.7218
 7112TIP3    H242752   0.463   4.087  11.638  0.1979  0.1308 -0.7615
 7113TIP3   OH242753   6.213   5.666   4.031  0.3638 -0.5755  0.1149
 7113TIP3    H142754   6.282   5.680   4.095 -0.4814 -1.8772  1.3753
 7113TIP3    H242755   6.161   5.747   4.033 -0.4979 -1.1223  2.1970
 7114TIP3   OH242756   2.277   0.725   6.487 -0.0258 -1.0134 -0.2852
 7114TIP3    H142757   2.193   0.769   6.475 -0.5331 -2.0608 -0.7096
 7114TIP3    H242758   2.255   0.632   6.493  1.2802 -1.6372 -3.1305
 7115TIP3   OH242759   3.852   6.702   1.144 -0.2345 -0.4652  0.0818
 7115TIP3    H142760   3.911   6.771   1.113  0.3328 -0.5634  0.9010
 7115TIP3    H242761   3.903   6.655   1.210 -1.6797  0.3099  1.8226
 7116TIP3   OH242762   6.216   1.442   0.626  0.1246 -0.0209 -0.0275
 7116TIP3    H142763   6.242   1.534   0.630 -1.9344  0.6739 -1.3562
 7116TIP3    H242764   6.270   1.405   0.556 -0.1441  0.5799 -0.5628
 7117TIP3   OH242765   5.133   5.344  16.854  0.6168  0.2210  0.1002
 7117TIP3    H142766   5.046   5.304  16.856  1.3059 -1.4782 -1.3835
 7117TIP3    H242767   5.116   5.437  16.838 -0.9880  0.4113  2.4319
 7118TIP3   OH242768   5.404   1.572  13.380 -0.9173 -0.5176  0.1869
 7118TIP3    H142769   5.412   1.644  13.317 -1.7389 -0.6481 -0.0783
 7118TIP3    H242770   5.477   1.584  13.440  0.1724 -0.6559 -1.0664
 7119TIP3   OH242771   1.491   2.088   2.429 -0.5671 -0.2090 -0.1389
 7119TIP3    H142772   1.453   2.023   2.370  0.2720 -2.3098  1.4717
 7119TIP3    H242773   1.426   2.097   2.499  0.3262 -1.1902  0.8577
 7120TIP3   OH242774   0.533   6.708  11.269 -0.0444  0.8868  0.0897
 7120TIP3    H142775   0.453   6.754  11.244  1.2912  1.8822 -2.7371
 7120TIP3    H242776   0.535   6.714  11.365 -5.4096 -2.9130  0.8734
 7121TIP3   OH242777   2.538   6.075  13.630  0.1850  0.3608 -0.4303
 7121TIP3    H142778   2.542   6.121  13.713  1.0351  0.3141 -0.4451
 7121TIP3    H242779   2.498   5.990  13.651  0.7420  0.1998 -0.0026
 7122TIP3   OH242780   0.392   6.462   2.568  0.3428 -0.1067  0.0867
 7122TIP3    H142781   0.392   6.439   2.661  0.3687 -1.5604 -0.2443
 7122TIP3    H242782   0.434   6.548   2.564  3.3542 -1.4077  1.1110
 7123TIP3   OH242783   3.883   2.008   5.826 -0.5269 -0.0271  0.7740
 7123TIP3    H142784   3.801   2.044   5.862 -1.3306  0.2769 -1.2623
 7123TIP3    H242785   3.952   2.050   5.879 -1.5409  2.5891  0.1884
 7124TIP3   OH242786   3.152   3.272  13.422 -0.1790  0.4476 -0.6191
 7124TIP3    H142787   3.196   3.192  13.451 -0.6912 -0.3352 -1.8821
 7124TIP3    H242788   3.064   3.266  13.458 -0.1432  0.5513 -0.5160
 7125TIP3   OH242789   2.683   0.693   4.516  0.0949  0.2301 -0.4211
 7125TIP3    H142790   2.602   0.720   4.473  0.1995 -1.4854 -1.7962
 7125TIP3    H242791   2.658   0.615   4.566  0.5406  0.7439  0.6487
 7126TIP3   OH242792   0.921   5.415   3.587 -0.0364 -0.0109  0.0705
 7126TIP3    H142793   0.941   5.326   3.616  0.5157  0.3805  0.9490
 7126TIP3    H242794   1.001   5.445   3.544 -1.0030 -0.7515 -2.3825
 7127TIP3   OH242795   5.433   6.255   0.119 -0.4537  0.3030 -0.0209
 7127TIP3    H142796   5.414   6.183   0.060  0.0094 -0.1745  0.3971
 7127TIP3    H242797   5.529   6.261   0.119 -0.4992  1.2319 -0.4165
 7128TIP3   OH242798   1.561   1.030   3.282 -0.4604  0.3017  0.4144
 7128TIP3    H142799   1.633   1.048   3.342 -1.5405  3.1636  1.0056
 7128TIP3    H242800   1.492   1.091   3.308 -3.5971 -2.9792  0.5535
 7129TIP3   OH242801   5.864   2.894   0.707  0.4188  0.0903 -0.1041
 7129TIP3    H142802   5.786   2.852   0.673  0.4567  1.4121 -1.9608
 7129TIP3    H242803   5.836   2.983   0.730  0.9849  0.0158  0.9639
 7130TIP3   OH242804   6.261   6.041   1.490 -0.0223  0.1528  0.1757
 7130TIP3    H142805   6.190   5.984   1.518  0.6097 -0.2461  1.0184
 7130TIP3    H242806   6.278   6.096   1.567  0.1222  0.7128 -0.2549
 7131TIP3   OH242807   1.750   5.476  15.839 -0.1587  0.0807 -0.2146
 7131TIP3    H142808   1.710   5.467  15.753  1.6898  0.6199 -1.1916
 7131TIP3    H242809   1.677   5.469  15.901 -1.6316  0.4163 -1.8452
 7132TIP3   OH242810   4.387   0.927  12.350 -0.2349 -0.6386  0.2982
 7132TIP3    H142811   4.301   0.886  12.359 -0.1954 -1.4163 -2.1369
 7132TIP3    H242812   4.434   0.871  12.288  0.8713  1.5058 -0.9130
 7133TIP3   OH242813   3.674   5.727  16.573  0.1067 -0.2084 -0.2663
 7133TIP3    H142814   3.638   5.791  16.511  0.1722  1.0333  0.9478
 7133TIP3    H242815   3.598   5.676  16.602  0.0990 -0.9246 -1.4692
 7134TIP3   OH242816   2.835   1.704   1.848  0.0538 -0.1762  0.4637
 7134TIP3    H142817   2.857   1.651   1.771  0.0891 -0.4581  0.6647
 7134TIP3    H242818   2.853   1.794   1.822  3.0380 -0.4597  1.1211
 7135TIP3   OH242819   1.749   5.828   3.394 -0.3624  0.3821  0.6061
 7135TIP3    H142820   1.708   5.854   3.477 -0.2974  2.2176  0.0825
 7135TIP3    H242821   1.839   5.806   3.419  0.1922  2.6794  0.7931
 7136TIP3   OH242822   4.766   1.461  14.105  0.0429 -0.3037 -0.4544
 7136TIP3    H142823   4.687   1.409  14.090  0.6431 -1.2244 -0.5057
 7136TIP3    H242824   4.783   1.453  14.199 -0.2618  0.4004 -0.3336
 7137TIP3   OH242825   1.403   3.422   1.448  0.0536 -0.3838 -0.4990
 7137TIP3    H142826   1.458   3.364   1.396 -0.0822 -1.3739  0.4199
 7137TIP3    H242827   1.337   3.364   1.486 -0.9521  0.6048 -0.6924
 7138TIP3   OH242828   2.861   2.372  10.585 -0.2055  0.1418 -0.0909
 7138TIP3    H142829   2.855   2.278  10.569  1.3956  0.0190 -0.0727
 7138TIP3    H242830   2.820   2.384  10.671 -0.1025 -0.5888  0.0668
 7139TIP3   OH242831   2.640   2.638   5.401 -0.1822  0.3180 -0.2421
 7139TIP3    H142832   2.694   2.640   5.481  0.6060 -1.7803 -0.6413
 7139TIP3    H242833   2.704   2.633   5.330 -0.8705  2.4845 -1.0797
 7140TIP3   OH242834   1.145   2.649  17.076 -0.1003  0.0545  0.9380
 7140TIP3    H142835   1.202   2.572  17.078  1.0056  0.5396 -3.0798
 7140TIP3    H242836   1.206   2.722  17.064 -1.3844  1.0078  0.0810
 7141TIP3   OH242837   2.090   3.187  14.013 -0.1921 -0.0219  0.2322
 7141TIP3    H142838   2.004   3.199  13.971 -0.6458 -1.6504  0.5965
 7141TIP3    H242839   2.070   3.185  14.107  0.4446  0.9040  0.3945
 7142TIP3   OH242840   3.889   3.359  17.241  0.1252 -0.2225 -0.0053
 7142TIP3    H142841   3.946   3.390  17.170  0.6794 -1.8903 -0.3462
 7142TIP3    H242842   3.916   3.411  17.317 -1.3348  2.4908 -1.2054
 7143TIP3   OH242843   4.967   3.427   5.905 -0.2065  0.3178  0.2915
 7143TIP3    H142844   4.970   3.421   6.001 -1.0096 -1.3436  0.2389
 7143TIP3    H242845   5.011   3.510   5.885 -1.5849  1.6038  2.1898
 7144TIP3   OH242846   6.147   3.693  15.473 -0.0841 -0.3509  0.6719
 7144TIP3    H142847   6.230   3.672  15.516 -0.2867 -1.3079  0.6059
 7144TIP3    H242848   6.144   3.636  15.396  0.6334  1.8698 -1.1170
 7145TIP3   OH242849   1.269   1.556  14.301  0.8435 -0.0679 -0.4583
 7145TIP3    H142850   1.199   1.569  14.237  0.9916 -0.6800 -0.7560
 7145TIP3    H242851   1.291   1.463  14.294  1.0733 -0.0756  0.2660
 7146TIP3   OH242852   4.995   1.129   1.528  0.4051 -0.5211 -0.4844
 7146TIP3    H142853   4.993   1.036   1.504 -0.1207 -1.2586  2.1227
 7146TIP3    H242854   4.903   1.155   1.527  0.3291 -0.6853  1.0186
 7147TIP3   OH242855   5.489   1.706   0.486 -0.1650  0.1774  0.4853
 7147TIP3    H142856   5.442   1.626   0.463 -2.5971  0.8457  2.7030
 7147TIP3    H242857   5.474   1.718   0.580  1.8349  2.1926  0.6565
 7148TIP3   OH242858   2.643   1.686  12.030  0.0449  0.3838  0.2823
 7148TIP3    H142859   2.712   1.652  11.973 -0.0985 -0.0092  0.3390
 7148TIP3    H242860   2.635   1.778  12.006 -1.5202 -0.2296 -1.9048
 7149TIP3   OH242861   4.902   2.325  13.106  0.4545 -0.1121 -0.2418
 7149TIP3    H142862   4.823   2.291  13.065  0.5613 -0.2898 -0.3011
 7149TIP3    H242863   4.933   2.394  13.047  0.1589  0.1868 -0.0513
 7150TIP3   OH242864   5.033   1.001  11.464 -0.2812 -0.4632 -0.1143
 7150TIP3    H142865   4.978   0.942  11.516 -1.6889  0.8820  0.0024
 7150TIP3    H242866   5.102   1.029  11.525 -0.8140 -0.3860  0.4713
 7151TIP3   OH242867   0.307   4.188  14.933 -0.1273  0.5305 -0.2225
 7151TIP3    H142868   0.395   4.172  14.899  0.0121 -0.4965  0.5807
 7151TIP3    H242869   0.267   4.246  14.868  0.3046 -0.9245 -1.8601
 7152TIP3   OH242870   4.523   5.554   3.346 -0.0982  0.0744 -0.0385
 7152TIP3    H142871   4.486   5.539   3.260 -3.2206  1.4780  0.9125
 7152TIP3    H242872   4.533   5.466   3.384  0.3542 -0.4876 -1.4117
 7153TIP3   OH242873   1.728   5.421   0.561 -0.2012 -0.1626  0.1567
 7153TIP3    H142874   1.740   5.504   0.607  0.4476 -0.6741  0.9341
 7153TIP3    H242875   1.805   5.414   0.503 -0.8909  0.3633 -0.8530
 7154TIP3   OH242876   3.677   3.414  12.498 -0.5522 -0.3569 -0.0613
 7154TIP3    H142877   3.739   3.373  12.438  2.1969  0.7584  1.7824
 7154TIP3    H242878   3.637   3.341  12.546  0.3881 -1.0708 -0.3441
 7155TIP3   OH242879   3.354   5.846  16.253  0.0922 -0.2395  0.1212
 7155TIP3    H142880   3.274   5.896  16.266  0.3353  0.6296 -1.4409
 7155TIP3    H242881   3.324   5.760  16.223 -0.2786 -0.4047  0.9403
 7156TIP3   OH242882   1.115   5.583   5.655 -0.4966 -0.0060  0.0233
 7156TIP3    H142883   1.146   5.607   5.742  1.2059  0.8800 -0.7590
 7156TIP3    H242884   1.135   5.489   5.647  0.5101  0.1880  0.1484
 7157TIP3   OH242885   4.374   4.524   4.582  0.4378  1.0385  0.3341
 7157TIP3    H142886   4.439   4.454   4.592 -0.2098  0.3350 -0.1735
 7157TIP3    H242887   4.356   4.553   4.671  1.6338  1.4296  0.4569
 7158TIP3   OH242888   6.649   5.645   2.861  0.2569  0.1144  0.1122
 7158TIP3    H142889   6.686   5.609   2.781 -0.0182 -0.7105  0.3461
 7158TIP3    H242890   6.641   5.570   2.920  0.4539  0.7034  0.9137
 7159TIP3   OH242891   5.019   6.720  10.953  0.6190 -0.2849  0.0834
 7159TIP3    H142892   5.059   6.727  10.866  0.2779 -1.3607 -0.1813
 7159TIP3    H242893   5.085   6.757  11.013  0.5082  1.2563 -0.6984
 7160TIP3   OH242894   2.455   6.077   4.130 -0.9957  0.6844 -0.0711
 7160TIP3    H142895   2.475   6.061   4.037 -0.0022  1.3420  0.0136
 7160TIP3    H242896   2.447   5.989   4.168 -0.6728  0.4042 -0.6306
 7161TIP3   OH242897   0.157   3.349  11.594  0.7003 -0.0305 -0.6528
 7161TIP3    H142898   0.110   3.402  11.530  0.0792 -0.2789 -0.4109
 7161TIP3    H242899   0.123   3.378  11.679 -0.2002 -1.3200 -0.5472
 7162TIP3   OH242900   6.477   1.699  17.203 -0.5138  0.6616 -0.1731
 7162TIP3    H142901   6.511   1.655  17.125 -0.3912  0.2834  0.0894
 7162TIP3    H242902   6.382   1.685  17.199 -0.4573  0.1944  0.0090
 7163TIP3   OH242903   0.933   2.855  13.290  0.7023 -0.0755  0.1034
 7163TIP3    H142904   0.961   2.767  13.267 -1.0186 -0.5675 -0.2848
 7163TIP3    H242905   0.919   2.853  13.385  2.1186  0.2419  0.3352
 7164TIP3   OH242906   3.820   2.558  13.035 -0.4378  0.2735  0.0192
 7164TIP3    H142907   3.807   2.471  13.073  0.2759 -0.9784 -2.4147
 7164TIP3    H242908   3.909   2.582  13.061 -0.3673 -0.0483  0.0859
 7165TIP3   OH242909   5.264   6.460  13.142 -0.2539 -0.3677 -0.0504
 7165TIP3    H142910   5.332   6.491  13.202  1.1671 -0.4651 -1.5413
 7165TIP3    H242911   5.184   6.459  13.195  0.6389  0.9890  1.4084
 7166TIP3   OH242912   0.371   6.684  11.514 -0.3539  0.7906  0.5537
 7166TIP3    H142913   0.460   6.654  11.527 -0.0070  1.0847 -0.8769
 7166TIP3    H242914   0.316   6.610  11.540  0.4473 -1.0515 -2.4463
 7167TIP3   OH242915   0.423   2.309   0.080  0.3726 -0.2434  0.5214
 7167TIP3    H142916   0.405   2.229   0.032 -0.2892  0.5968 -0.6698
 7167TIP3    H242917   0.456   2.279   0.165 -0.1915 -1.7678  0.2285
 7168TIP3   OH242918   1.510   3.966   3.749  0.1758  0.0477  0.2339
 7168TIP3    H142919   1.431   3.937   3.795  0.1785 -0.3749 -0.0260
 7168TIP3    H242920   1.494   3.944   3.658  0.1897  0.8478  0.0296
 7169TIP3   OH242921   0.406   0.810   2.263  0.3929  0.3959  0.3605
 7169TIP3    H142922   0.453   0.735   2.226  2.4077  0.3794  2.7123
 7169TIP3    H242923   0.440   0.885   2.215  0.3848  0.0672 -0.1735
 7170TIP3   OH242924   5.228   0.940  15.674 -0.6148 -0.0155  0.3933
 7170TIP3    H142925   5.150   0.949  15.619 -0.1167  0.3966 -0.2515
 7170TIP3    H242926   5.257   0.850  15.658  0.9335  0.8256 -1.9491
 7171TIP3   OH242927   3.561   3.807  11.238 -0.8453 -0.3040 -0.1951
 7171TIP3    H142928   3.516   3.823  11.156  1.5383  2.9611 -1.0763
 7171TIP3    H242929   3.535   3.880  11.295  3.1130  1.8898 -0.8362
 7172TIP3   OH242930   3.645   1.514  16.468  0.3589  0.3723  0.0277
 7172TIP3    H142931   3.587   1.441  16.446  0.7488 -0.4330  1.5480
 7172TIP3    H242932   3.705   1.478  16.533  0.3086  2.1572  1.1207
 7173TIP3   OH242933   1.763   3.950   0.783  0.0250  0.0783  0.4450
 7173TIP3    H142934   1.849   3.914   0.807 -0.1006 -0.6418 -0.1352
 7173TIP3    H242935   1.783   4.036   0.747  0.7121 -0.6895 -1.1534
 7174TIP3   OH242936   0.792   1.171   5.691 -0.1315  0.0601  0.5600
 7174TIP3    H142937   0.787   1.088   5.739  0.2171 -1.0377 -1.2070
 7174TIP3    H242938   0.882   1.200   5.703 -0.5415  0.7987  2.0986
 7175TIP3   OH242939   2.531   1.485  15.971  0.3773 -0.6988  0.3919
 7175TIP3    H142940   2.623   1.474  15.994 -0.1707 -1.0893  2.6237
 7175TIP3    H242941   2.493   1.398  15.982 -0.3652 -0.4385 -0.0300
 7176TIP3   OH242942   5.369   4.998  10.422 -0.1413 -0.8577 -0.4079
 7176TIP3    H142943   5.366   5.038  10.335  2.9128 -2.6058 -1.4931
 7176TIP3    H242944   5.462   5.001  10.446 -0.8475 -0.7579  2.6994
 7177TIP3   OH242945   4.736   3.406  13.017 -0.3400  0.0438  0.1553
 7177TIP3    H142946   4.733   3.438  13.108 -0.5714  1.9783 -0.4846
 7177TIP3    H242947   4.651   3.431  12.981  0.3040  0.6193 -1.0026
 7178TIP3   OH242948   0.553   4.707   2.871  0.3166 -0.4670 -0.2951
 7178TIP3    H142949   0.589   4.622   2.846 -1.1636 -1.3527  0.4320
 7178TIP3    H242950   0.612   4.738   2.940  1.0648 -0.7380 -0.8011
 7179TIP3   OH242951   4.646   2.893   5.070  0.4295  0.5635 -0.7720
 7179TIP3    H142952   4.732   2.851   5.072  0.6702  1.0642 -0.2591
 7179TIP3    H242953   4.633   2.916   4.978  1.6239  2.0205 -0.6213
 7180TIP3   OH242954   5.426   0.226  13.311  0.2167 -0.0533 -0.4583
 7180TIP3    H142955   5.340   0.266  13.299  0.0623 -0.7233 -1.7789
 7180TIP3    H242956   5.486   0.300  13.319 -0.4330  0.4208  0.1531
 7181TIP3   OH242957   3.056   5.879   0.037  0.2228 -0.2352  0.0299
 7181TIP3    H142958   3.073   5.898  -0.056 -1.6736 -1.2777 -0.5751
 7181TIP3    H242959   3.021   5.961   0.072 -0.3461 -0.2205 -0.5412
 7182TIP3   OH242960   3.267   0.261   3.831  0.3874  0.3150  0.5334
 7182TIP3    H142961   3.271   0.238   3.923  0.5172 -0.4933  0.3296
 7182TIP3    H242962   3.182   0.303   3.820  0.1789  0.0035  0.9275
 7183TIP3   OH242963   4.170   5.434  14.844  0.1110 -0.0099 -0.2586
 7183TIP3    H142964   4.142   5.453  14.754  1.1132 -2.3783 -1.1602
 7183TIP3    H242965   4.089   5.437  14.895 -0.5487  0.9383 -1.3032
 7184TIP3   OH242966   0.934   3.580  17.247  0.2792  0.2136 -0.0351
 7184TIP3    H142967   0.910   3.496  17.287  0.6689 -0.0858 -0.4309
 7184TIP3    H242968   1.013   3.561  17.196  0.0210  0.6866 -0.6152
 7185TIP3   OH242969   2.872   0.066  11.707  0.2807 -0.0174 -0.2934
 7185TIP3    H142970   2.953   0.099  11.745  0.7859 -0.8274 -0.6293
 7185TIP3    H242971   2.805   0.128  11.736  0.8419  0.0753  0.8926
 7186TIP3   OH242972   6.369   3.359  15.656  0.2942  0.4860 -0.2504
 7186TIP3    H142973   6.445   3.410  15.631  0.4358  0.2949 -0.2096
 7186TIP3    H242974   6.401   3.298  15.723 -0.1690  1.3142  0.7657
 7187TIP3   OH242975   1.078   1.202  15.521  0.1031 -0.4313  0.2696
 7187TIP3    H142976   1.071   1.108  15.539  0.0016 -0.7942 -1.4464
 7187TIP3    H242977   1.011   1.218  15.454 -0.2719  0.9985  0.9424
 7188TIP3   OH242978   4.031   5.288   3.396  0.3568  0.0323  0.1155
 7188TIP3    H142979   3.938   5.306   3.409 -0.2389 -1.9372 -1.0332
 7188TIP3    H242980   4.046   5.203   3.437  1.2792 -0.3787 -0.9964
 7189TIP3   OH242981   2.197   4.395  17.253 -0.1148  0.3476 -0.2754
 7189TIP3    H142982   2.282   4.433  17.274 -0.5343  1.9539 -1.2429
 7189TIP3    H242983   2.142   4.471  17.233 -1.4046 -0.7249 -0.9378
 7190TIP3   OH242984   4.865   6.553  14.726 -0.1019 -0.4848 -0.1208
 7190TIP3    H142985   4.858   6.501  14.806 -0.5536 -0.2030  0.0278
 7190TIP3    H242986   4.949   6.599  14.735 -1.1788  1.3796  1.3380
 7191TIP3   OH242987   5.531   5.805   5.615  0.0733 -0.2278  0.0898
 7191TIP3    H142988   5.529   5.719   5.657 -1.6438 -0.3901 -0.2476
 7191TIP3    H242989   5.624   5.824   5.605  0.5364 -2.5936 -0.8922
 7192TIP3   OH242990   3.436   1.212   0.918 -0.0811 -0.3587 -0.1263
 7192TIP3    H142991   3.358   1.252   0.956 -1.4465 -0.7951 -2.2828
 7192TIP3    H242992   3.484   1.178   0.993 -1.5345  0.6644  1.3455
 7193TIP3   OH242993   0.425   0.462   0.979 -0.0538 -0.2277 -0.0236
 7193TIP3    H142994   0.495   0.450   1.044 -0.9370  1.0032  1.2211
 7193TIP3    H242995   0.347   0.475   1.032 -1.1107 -0.8481 -1.3886
 7194TIP3   OH242996   6.663   6.474   3.337 -0.4642  0.4665 -0.1420
 7194TIP3    H142997   6.685   6.521   3.257 -1.7357  0.1414 -0.7022
 7194TIP3    H242998   6.748   6.454   3.377  0.2545 -0.1412 -1.8564
 7195TIP3   OH242999   2.122   6.615  16.349 -0.0065 -0.3575  0.1618
 7195TIP3    H143000   2.075   6.682  16.299  1.5139  1.2112  0.7196
 7195TIP3    H243001   2.125   6.539  16.291 -0.1714  0.6784 -1.2665
 7196TIP3   OH243002   3.265   1.143   1.278  0.2331 -0.6002 -0.1590
 7196TIP3    H143003   3.337   1.088   1.309 -0.0525 -1.5343 -1.1135
 7196TIP3    H243004   3.194   1.127   1.340  0.6888  0.0085  0.5453
 7197TIP3   OH243005   4.226   2.906   2.669  0.4395 -0.0469  0.5154
 7197TIP3    H143006   4.308   2.903   2.621  0.3752 -2.6109  0.4270
 7197TIP3    H243007   4.176   2.976   2.627  1.4405 -0.4061 -1.3704
 7198TIP3   OH243008   2.221   5.869   0.777 -0.0501 -0.7762  0.2376
 7198TIP3    H143009   2.128   5.851   0.790 -0.0162 -0.6764  0.6356
 7198TIP3    H243010   2.243   5.826   0.694 -0.8242  0.5761 -0.7085
 7199TIP3   OH243011   6.329   4.917   2.572 -0.2053 -0.3418 -0.2261
 7199TIP3    H143012   6.260   4.882   2.629 -0.1810  1.1931  0.7830
 7199TIP3    H243013   6.330   4.857   2.497 -1.7277 -1.1484  0.3529
 7200TIP3   OH243014   1.321   6.192   6.554  0.5855  0.2608  0.1058
 7200TIP3    H143015   1.405   6.219   6.589  0.7087 -0.4572  0.3764
 7200TIP3    H243016   1.256   6.225   6.616  0.6647  0.8139 -0.1043
 7201TIP3   OH243017   0.844   2.554  12.367 -0.5451 -0.3362  0.6468
 7201TIP3    H143018   0.751   2.555  12.345  0.1805 -2.0168 -3.2877
 7201TIP3    H243019   0.853   2.485  12.432 -1.7255 -2.5741 -1.4293
 7202TIP3   OH243020   0.785   2.570  15.927 -0.3308  0.2203 -0.5443
 7202TIP3    H143021   0.795   2.563  15.832 -1.6339  1.1617 -0.7891
 7202TIP3    H243022   0.724   2.500  15.950  0.4080 -0.3558 -0.3047
 7203TIP3   OH243023   2.746   5.790   1.543 -0.4044 -0.0552 -0.1828
 7203TIP3    H143024   2.791   5.852   1.600 -0.3970  1.0213 -1.3280
 7203TIP3    H243025   2.734   5.837   1.461  0.7690 -2.0028 -1.5433
 7204TIP3   OH243026   2.954   3.148  10.968  0.3087 -0.2522  0.2495
 7204TIP3    H143027   2.949   3.176  10.877 -1.1793 -1.3811 -0.0422
 7204TIP3    H243028   2.952   3.230  11.018  2.3339  0.4569 -0.7070
 7205TIP3   OH243029   5.426   0.526  16.068 -0.6319  0.1797 -0.6598
 7205TIP3    H143030   5.414   0.549  16.160  2.0397  1.2604 -0.4770
 7205TIP3    H243031   5.454   0.434  16.069 -1.3645 -0.0446 -0.4781
 7206TIP3   OH243032   1.456   1.271   2.359  0.2269 -0.7854 -0.0858
 7206TIP3    H143033   1.525   1.305   2.301 -0.8685 -0.4875 -1.2899
 7206TIP3    H243034   1.376   1.313   2.327 -0.9659 -3.2334 -0.5789
 7207TIP3   OH243035   5.287   2.594  13.242 -0.0915  0.4364  0.6979
 7207TIP3    H143036   5.355   2.659  13.262  0.4039  0.0478  0.2902
 7207TIP3    H243037   5.214   2.646  13.206  0.6212  0.6902 -0.4283
 7208TIP3   OH243038   2.410   6.081   0.808 -1.0141  0.4624 -0.7331
 7208TIP3    H143039   2.373   6.164   0.839 -1.8235 -0.0187 -0.3852
 7208TIP3    H243040   2.336   6.020   0.808 -0.1753 -0.6077  0.2479
 7209TIP3   OH243041   2.393   1.217  12.790 -0.4155 -0.1453 -0.3981
 7209TIP3    H143042   2.425   1.138  12.833 -2.7958 -1.2982 -0.5472
 7209TIP3    H243043   2.446   1.288  12.826  0.1427 -1.5197  1.6484
 7210TIP3   OH243044   6.111   4.483  14.662 -0.0221 -0.0260 -0.0697
 7210TIP3    H143045   6.172   4.410  14.673 -0.1279 -0.0496  0.3855
 7210TIP3    H243046   6.153   4.556  14.707 -0.8437 -0.3384  1.2387
 7211TIP3   OH243047   3.820   1.769   4.372  0.0629 -0.0626 -0.2221
 7211TIP3    H143048   3.740   1.760   4.424  0.4195 -0.4300  0.2719
 7211TIP3    H243049   3.891   1.752   4.434  0.5778  1.2628 -0.4239
 7212TIP3   OH243050   0.769   4.578  14.087 -0.1778 -0.3102  0.2749
 7212TIP3    H143051   0.702   4.509  14.082  0.1614 -0.6357  0.1881
 7212TIP3    H243052   0.765   4.608  14.178  0.2372 -1.0200  0.5380
 7213TIP3   OH243053   3.226   5.531  16.499  0.2717  0.3662  0.0277
 7213TIP3    H143054   3.134   5.524  16.522  0.3211 -0.6427 -0.0241
 7213TIP3    H243055   3.259   5.442  16.505  1.4537  0.8294  0.8675
 7214TIP3   OH243056   0.845   5.187  10.629 -0.1575 -0.1462  0.1376
 7214TIP3    H143057   0.787   5.252  10.668 -0.3140  0.5351 -1.1485
 7214TIP3    H243058   0.928   5.234  10.617 -0.5051  0.1177 -1.5333
 7215TIP3   OH243059   6.134   0.770  14.456 -0.5907  0.1920  0.3525
 7215TIP3    H143060   6.056   0.823  14.474 -0.1571  0.6505  0.9019
 7215TIP3    H243061   6.115   0.685  14.496 -0.1096  0.8395  2.0616
 7216TIP3   OH243062   4.127   0.767   0.763  0.1729  0.3043 -0.4744
 7216TIP3    H143063   4.168   0.738   0.681  0.2684 -2.4815  0.4347
 7216TIP3    H243064   4.046   0.715   0.768  0.5968 -0.2325  1.5607
 7217TIP3   OH243065   0.798   0.005  14.375  0.0326  0.0485 -0.1822
 7217TIP3    H143066   0.736   0.028  14.306  0.5007  0.1866 -0.5612
 7217TIP3    H243067   0.759   0.041  14.455  0.3980  1.5741 -0.6556
 7218TIP3   OH243068   3.239   5.756   4.302 -0.0030 -0.7607 -0.1812
 7218TIP3    H143069   3.152   5.742   4.339  0.2112 -1.5059  0.0703
 7218TIP3    H243070   3.253   5.850   4.307  0.6604 -0.8781  3.2689
 7219TIP3   OH243071   4.101   5.611  10.793  0.3001 -0.5858 -0.4257
 7219TIP3    H143072   4.128   5.682  10.736  0.7578 -1.0726 -0.8269
 7219TIP3    H243073   4.006   5.623  10.803  0.6253  1.2178  1.1015
 7220TIP3   OH243074   5.897   0.718  15.985 -0.3667  0.2279 -0.3577
 7220TIP3    H143075   5.868   0.649  15.924 -0.8978  1.6894 -1.8292
 7220TIP3    H243076   5.990   0.728  15.968 -0.3464  0.0862 -0.3363
 7221TIP3   OH243077   2.633   5.311  13.883  0.1161  0.1299 -0.0306
 7221TIP3    H143078   2.683   5.310  13.965  0.9156 -0.2846 -0.5140
 7221TIP3    H243079   2.637   5.221  13.851 -1.1658  0.0244  0.0378
 7222TIP3   OH243080   2.672   1.945  11.950  0.4535 -0.0834 -0.4235
 7222TIP3    H143081   2.647   1.936  11.858  0.3852  1.3002 -0.5586
 7222TIP3    H243082   2.683   2.039  11.963  0.7348 -0.2809  0.9196
 7223TIP3   OH243083   4.594   1.329   3.741 -0.2791  0.0932  0.6037
 7223TIP3    H143084   4.540   1.386   3.797 -0.5446 -1.2564  1.7753
 7223TIP3    H243085   4.537   1.255   3.720  0.1157  0.1636 -0.7685
 7224TIP3   OH243086   2.578   3.925   2.113  0.2537 -0.2449  0.1023
 7224TIP3    H143087   2.515   3.854   2.120 -1.6054  1.3565  0.3602
 7224TIP3    H243088   2.538   3.988   2.054  1.9347  0.5456 -0.2730
 7225TIP3   OH243089   3.439   3.989  14.246  0.3676  0.0067 -0.3537
 7225TIP3    H143090   3.357   3.947  14.221 -1.1592  2.7755 -0.4909
 7225TIP3    H243091   3.427   4.012  14.339  1.2153 -0.0053 -0.2304
 7226TIP3   OH243092   4.552   0.738  16.331  0.6520  0.3551  0.4817
 7226TIP3    H143093   4.467   0.755  16.291  0.2949 -0.1660  0.9931
 7226TIP3    H243094   4.579   0.655  16.294  1.6421  1.2027 -0.7918
 7227TIP3   OH243095   1.685   5.925  14.915 -0.0229 -0.4603  0.0447
 7227TIP3    H143096   1.761   5.950  14.863 -0.2279  0.8145  0.3163
 7227TIP3    H243097   1.611   5.970  14.872 -0.5491 -1.2934  0.0630
 7228TIP3   OH243098   4.956   5.118   2.066  0.1392 -0.1173  0.0608
 7228TIP3    H143099   4.874   5.121   2.017 -0.7719  0.0911  1.5215
 7228TIP3    H243100   4.934   5.157   2.151  1.6822 -0.3386  0.5919
 7229TIP3   OH243101   3.222   6.464   6.192 -0.5062 -0.2437 -0.1746
 7229TIP3    H143102   3.144   6.509   6.161 -1.0532 -2.3079 -2.0551
 7229TIP3    H243103   3.287   6.478   6.123 -0.9031 -2.7320 -1.1585
 7230TIP3   OH243104   0.492   5.023  11.166  0.7343  0.1876  0.3178
 7230TIP3    H143105   0.474   5.064  11.081 -1.7356  0.0097  0.6797
 7230TIP3    H243106   0.450   5.081  11.230  0.3996 -0.9548  1.1722
 7231TIP3   OH243107   4.857   4.289   5.765 -0.4008 -0.0910  0.4968
 7231TIP3    H143108   4.763   4.275   5.759 -0.6120 -0.1332  2.7620
 7231TIP3    H243109   4.869   4.383   5.750 -0.7362 -0.1574 -0.2154
 7232TIP3   OH243110   3.916   0.677  15.206 -0.3181 -0.2602  0.1331
 7232TIP3    H143111   3.901   0.650  15.116  1.0217 -2.0478  0.3841
 7232TIP3    H243112   3.960   0.761  15.200  1.0444 -1.0131 -0.9709
 7233TIP3   OH243113   1.473   4.626  12.742  0.9393  0.7998  0.2592
 7233TIP3    H143114   1.468   4.650  12.835 -0.4873 -0.5285  0.5745
 7233TIP3    H243115   1.493   4.532  12.743 -3.0569 -0.2599 -0.5678
 7234TIP3   OH243116   1.361   5.242   6.403  0.3741 -0.4034  0.0824
 7234TIP3    H143117   1.322   5.280   6.324  0.8872 -0.5722 -0.2537
 7234TIP3    H243118   1.286   5.213   6.455  0.0774 -1.9456 -1.1533
 7235TIP3   OH243119   6.492   0.690  16.651 -0.2558 -0.4498  0.7703
 7235TIP3    H143120   6.527   0.765  16.603  0.6969 -0.9251  0.6906
 7235TIP3    H243121   6.416   0.661  16.600 -0.7805  0.5941  0.9339
 7236TIP3   OH243122   5.669   1.414  15.101  0.5632 -0.2698 -0.1268
 7236TIP3    H143123   5.578   1.443  15.091 -0.1985 -1.7839  1.7771
 7236TIP3    H243124   5.706   1.422  15.013 -1.4104  0.3570 -0.9699
 7237TIP3   OH243125   6.081   5.330   5.834  0.1942  0.4974  0.6590
 7237TIP3    H143126   6.173   5.336   5.859  0.0204 -1.0604  1.8037
 7237TIP3    H243127   6.033   5.340   5.916 -0.5549 -0.7068  0.3988
 7238TIP3   OH243128   2.867   1.949   1.054 -0.3016 -0.3343  0.4022
 7238TIP3    H143129   2.921   1.977   1.128  0.6764  0.4434 -0.5767
 7238TIP3    H243130   2.929   1.923   0.986 -1.1835 -2.1341  0.2209
 7239TIP3   OH243131   5.472   4.565  14.953 -0.8998 -0.2741  0.3489
 7239TIP3    H143132   5.445   4.614  14.876 -0.8160  0.2117  0.6262
 7239TIP3    H243133   5.525   4.493  14.918 -2.7594 -1.4347 -0.2392
 7240TIP3   OH243134   3.803   2.755   0.562  0.1097  0.3018  0.0882
 7240TIP3    H143135   3.880   2.803   0.592 -0.6280  1.3498  0.3593
 7240TIP3    H243136   3.797   2.680   0.621  0.0358  1.0610  1.0682
 7241TIP3   OH243137   0.311   3.061   2.545 -0.1103  0.6111 -0.0870
 7241TIP3    H143138   0.274   3.075   2.632 -1.4419  0.5206 -0.6196
 7241TIP3    H243139   0.291   3.141   2.497  0.4264  0.5722 -0.3893
 7242TIP3   OH243140   6.697   2.911  15.096  0.0945  0.0101 -0.2007
 7242TIP3    H143141   6.643   2.924  15.174  0.9146  2.1424  0.1003
 7242TIP3    H243142   6.693   2.995  15.050  0.4357 -0.8863 -1.9336
 7243TIP3   OH243143   1.567   4.273   4.624 -0.1027  0.8283 -0.2380
 7243TIP3    H143144   1.559   4.240   4.535  0.2164 -0.5503  0.2207
 7243TIP3    H243145   1.485   4.246   4.667  0.5288 -0.1573  0.3766
 7244TIP3   OH243146   4.086   4.079  13.270  0.0139 -0.3273  0.0227
 7244TIP3    H143147   4.068   4.136  13.345 -1.3186  2.1337 -2.0187
 7244TIP3    H243148   4.156   4.123  13.222 -0.7541 -0.5688 -1.3784
 7245TIP3   OH243149   5.496   1.729  11.791 -0.4574  0.1543  0.3503
 7245TIP3    H143150   5.417   1.760  11.835 -0.9284  0.7387 -0.8680
 7245TIP3    H243151   5.539   1.809  11.760  0.4880 -0.1768  0.7765
 7246TIP3   OH243152   3.629   3.765   3.722  0.4753  0.8796 -1.0260
 7246TIP3    H143153   3.593   3.692   3.773  0.8671 -1.0642 -3.3410
 7246TIP3    H243154   3.699   3.800   3.776  0.0617 -0.2408  0.2932
 7247TIP3   OH243155   5.154   3.859   5.366  0.2760  0.2767 -0.2845
 7247TIP3    H143156   5.148   3.812   5.449  0.3612  0.1148 -0.3701
 7247TIP3    H243157   5.183   3.947   5.390  0.5793  0.1460 -0.1717
 7248TIP3   OH243158   5.531   0.752   1.499 -0.5790  0.1890  0.0026
 7248TIP3    H143159   5.543   0.710   1.584  0.4263 -1.6250 -0.9664
 7248TIP3    H243160   5.464   0.819   1.514 -2.9103 -2.2706  1.5064
 7249TIP3   OH243161   3.681   4.063   1.357  0.0673 -0.3445 -0.3916
 7249TIP3    H143162   3.645   4.036   1.442  0.2543  0.5351 -0.0172
 7249TIP3    H243163   3.769   4.095   1.378  0.3433 -0.6877 -1.0111
 7250TIP3   OH243164   2.285   5.215  11.029  0.4274  0.1170  0.2697
 7250TIP3    H143165   2.222   5.188  10.963 -0.0865 -2.7630  1.7432
 7250TIP3    H243166   2.370   5.201  10.988  0.1125 -0.8653 -0.0877
 7251TIP3   OH243167   6.172   2.462   6.173 -0.2691 -0.3785  0.5590
 7251TIP3    H143168   6.116   2.389   6.201  0.3648 -0.3283  2.0449
 7251TIP3    H243169   6.256   2.421   6.151 -0.4035 -0.2746 -0.1725
 7252TIP3   OH243170   5.486   4.721   2.322 -0.0608 -0.1818  0.0685
 7252TIP3    H143171   5.452   4.792   2.376  0.4787 -0.2308  0.4782
 7252TIP3    H243172   5.456   4.742   2.233  0.8020  1.0311  0.0277
 7253TIP3   OH243173   5.297   0.588  11.803  0.4504  0.2627  0.1699
 7253TIP3    H143174   5.305   0.621  11.714  0.6059  0.9213  0.4181
 7253TIP3    H243175   5.352   0.510  11.804  1.7687  1.1478  0.1014
 7254TIP3   OH243176   6.605   4.528  15.274 -0.5194  0.0909 -0.5888
 7254TIP3    H143177   6.542   4.508  15.205 -0.2154  0.1116 -0.8748
 7254TIP3    H243178   6.560   4.591  15.330 -0.7897  0.0269 -0.7322
 7255TIP3   OH243179   0.598   0.173  11.421  0.4145 -0.6495 -0.3855
 7255TIP3    H143180   0.692   0.184  11.415  0.5255 -1.6791 -0.6976
 7255TIP3    H243181   0.563   0.217  11.343  0.5091  0.8602  0.3818
 7256TIP3   OH243182   4.771   0.228   5.189 -0.1807 -0.3912  0.6169
 7256TIP3    H143183   4.725   0.310   5.206 -0.4246 -0.6811  1.4172
 7256TIP3    H243184   4.864   0.250   5.196 -0.1455  0.2503 -1.2456
 7257TIP3   OH243185   5.785   0.897  13.381  0.3835 -0.2967 -0.1813
 7257TIP3    H143186   5.782   0.803  13.400  2.9566 -0.6437 -1.0775
 7257TIP3    H243187   5.703   0.915  13.337 -0.6476 -1.8680  0.9864
 7258TIP3   OH243188   1.403   4.712  15.559 -0.3729 -0.0206  0.2712
 7258TIP3    H143189   1.408   4.663  15.477  2.3550  0.5765 -0.0102
 7258TIP3    H243190   1.395   4.645  15.627 -0.1712 -0.6673 -0.3344
 7259TIP3   OH243191   1.147   6.190   4.812  0.4002 -0.2960  0.2861
 7259TIP3    H143192   1.109   6.114   4.767  0.5369  1.0220 -2.2193
 7259TIP3    H243193   1.233   6.202   4.771  0.1756  1.4740  0.2420
 7260TIP3   OH243194   3.493   1.396   6.267  0.1400  0.0459  0.1966
 7260TIP3    H143195   3.436   1.452   6.319  0.3237 -0.2938  0.7637
 7260TIP3    H243196   3.438   1.321   6.243 -0.1321  0.4900 -0.6356
 7261TIP3   OH243197   4.444   6.461   2.279 -0.6528  0.1411  0.5383
 7261TIP3    H143198   4.475   6.537   2.229  0.1424  0.5841  1.6518
 7261TIP3    H243199   4.520   6.435   2.332 -0.6238 -1.9869 -0.4314
 7262TIP3   OH243200   5.592   2.626  13.153  0.3780 -0.1792  0.1052
 7262TIP3    H143201   5.514   2.585  13.116 -0.4750  0.8116  0.7634
 7262TIP3    H243202   5.652   2.634  13.078  0.1785 -1.6424 -0.2495
 7263TIP3   OH243203   6.393   1.259  15.894  0.5574 -0.2693  0.0318
 7263TIP3    H143204   6.298   1.248  15.893  0.6346 -1.0199 -1.5676
 7263TIP3    H243205   6.427   1.170  15.892  1.3659 -0.1234  3.0044
 7264TIP3   OH243206   6.738   6.192   4.746 -0.2069 -0.0721  0.0915
 7264TIP3    H143207   6.756   6.111   4.794  2.4026 -0.3122 -1.1424
 7264TIP3    H243208   6.824   6.225   4.721 -1.2433  2.6093 -0.2932
 7265TIP3   OH243209   2.409   4.463   4.193  0.2786 -0.1678 -0.0680
 7265TIP3    H143210   2.411   4.556   4.214 -1.5996  0.2903 -1.6042
 7265TIP3    H243211   2.497   4.432   4.213  0.8675  1.8678  0.7382
 7266TIP3   OH243212   1.131   1.892   0.771  0.1377 -0.1045 -0.6757
 7266TIP3    H143213   1.158   1.948   0.843  0.1785 -0.0154 -0.7607
 7266TIP3    H243214   1.165   1.935   0.692 -0.5381  0.1972 -0.8172
 7267TIP3   OH243215   3.619   6.201   4.008 -0.0127  0.3091  0.0640
 7267TIP3    H143216   3.561   6.270   3.977 -0.4017 -0.3844 -0.7967
 7267TIP3    H243217   3.593   6.187   4.100 -2.0331 -0.7549 -0.5963
 7268TIP3   OH243218   4.074   2.638  13.111  0.0295  0.2934 -0.8203
 7268TIP3    H143219   4.100   2.692  13.185  1.3559 -0.8488 -0.3991
 7268TIP3    H243220   4.103   2.686  13.034 -1.5195  1.5784 -0.6562
 7269TIP3   OH243221   5.500   6.172   1.637 -0.2050 -0.9353  0.4670
 7269TIP3    H143222   5.479   6.257   1.676  0.9289  0.8447 -2.4478
 7269TIP3    H243223   5.582   6.147   1.680  0.9001  0.8465 -0.4627
 7270TIP3   OH243224   2.706   1.786  14.301 -0.0254 -0.1508  0.3583
 7270TIP3    H143225   2.764   1.815  14.371  1.3722  0.6333 -1.0409
 7270TIP3    H243226   2.762   1.735  14.243 -0.9334 -0.0832 -0.6120
 7271TIP3   OH243227   2.722   2.419  14.065 -0.1759  0.1304  0.3364
 7271TIP3    H143228   2.781   2.344  14.078  0.0402  0.1409 -0.5532
 7271TIP3    H243229   2.725   2.466  14.149 -1.1154 -1.4014  1.2645
 7272TIP3   OH243230   5.492   5.394  12.921 -0.1241  0.4123  0.0708
 7272TIP3    H143231   5.497   5.298  12.927  0.2925  0.3879 -0.5211
 7272TIP3    H243232   5.456   5.422  13.005 -2.6992 -0.4511 -0.6616
 7273TIP3   OH243233   5.336   3.854   4.491  0.3042 -0.1663  0.9066
 7273TIP3    H143234   5.256   3.805   4.471  1.8603 -1.5647 -2.6889
 7273TIP3    H243235   5.402   3.787   4.507  1.3186  0.8979  1.3330
 7274TIP3   OH243236   5.455   3.868  13.409  0.1172 -0.8382 -0.3016
 7274TIP3    H143237   5.541   3.860  13.451 -0.0539 -1.4990 -0.0706
 7274TIP3    H243238   5.431   3.960  13.423 -0.0953 -1.1100  1.3805
 7275TIP3   OH243239   4.951   4.036  16.826 -0.3306 -0.0109 -0.1239
 7275TIP3    H143240   4.914   4.122  16.807  0.7564  0.3447 -0.6555
 7275TIP3    H243241   4.889   3.998  16.889 -0.6515  1.2877  0.3904
 7276TIP3   OH243242   2.074   3.731  13.682 -0.1332 -0.1396 -0.6468
 7276TIP3    H143243   2.066   3.678  13.603 -1.8174  0.9678 -1.2671
 7276TIP3    H243244   2.006   3.698  13.741  0.2572 -0.1076 -0.1663
 7277TIP3   OH243245   6.290   1.115  12.568  0.0678  0.0750 -0.0548
 7277TIP3    H143246   6.195   1.122  12.568  0.1547  1.7143 -0.1276
 7277TIP3    H243247   6.308   1.026  12.597 -1.4855 -0.3588 -0.3325
 7278TIP3   OH243248   0.076   1.880   3.123 -0.0521 -1.0159  0.6936
 7278TIP3    H143249  -0.007   1.924   3.104  1.4167  1.8302  0.3833
 7278TIP3    H243250   0.090   1.821   3.049 -0.0583  1.2406 -1.2064
 7279TIP3   OH243251   0.116   6.297  15.085 -0.4886 -0.5741  0.4661
 7279TIP3    H143252   0.165   6.372  15.120 -0.1717 -0.4473 -0.2310
 7279TIP3    H243253   0.037   6.336  15.047 -0.2061 -0.5655 -0.1144
 7280TIP3   OH243254   1.036   1.889   3.014 -0.2916 -0.6041 -0.0653
 7280TIP3    H143255   0.942   1.908   3.012 -0.2263 -0.3209 -1.1490
 7280TIP3    H243256   1.043   1.805   2.968 -0.3132 -2.1663  2.5738
 7281TIP3   OH243257   0.179   0.551   5.441 -0.4419 -0.0166 -0.4885
 7281TIP3    H143258   0.173   0.508   5.355 -0.9928  0.3454 -0.6305
 7281TIP3    H243259   0.270   0.535   5.469 -0.1530  0.1663 -1.2982
 7282TIP3   OH243260   6.365   5.909  12.940  0.6664 -0.3805 -0.3364
 7282TIP3    H143261   6.398   5.940  13.025 -1.4020 -1.3716  0.9229
 7282TIP3    H243262   6.405   5.823  12.929  0.9219 -0.2597 -0.3711
 7283TIP3   OH243263   3.285   1.646  12.062 -0.1691  0.0731 -0.4113
 7283TIP3    H143264   3.371   1.605  12.054 -1.3641 -2.9313  0.9326
 7283TIP3    H243265   3.236   1.614  11.986 -1.7617 -2.9465  1.7072
 7284TIP3   OH243266   4.984   6.132   2.427 -0.9183  0.4619 -0.5709
 7284TIP3    H143267   5.065   6.089   2.401  1.0151  2.0006  2.3472
 7284TIP3    H243268   4.979   6.210   2.371  1.7487  2.3352  1.5352
 7285TIP3   OH243269   2.894   5.313  17.017 -0.7474 -0.1607  0.3561
 7285TIP3    H143270   2.837   5.291  16.943  1.2519 -2.4432 -0.6246
 7285TIP3    H243271   2.877   5.244  17.082  0.8091 -0.8507  0.0684
 7286TIP3   OH243272   2.930   6.213  16.643 -0.0379  0.0090 -0.1349
 7286TIP3    H143273   3.008   6.261  16.617  0.3147 -1.9137 -3.0681
 7286TIP3    H243274   2.860   6.247  16.588 -0.2193 -1.3686 -0.8005
 7287TIP3   OH243275   5.388   1.663  12.041  0.0101  0.3171  0.0724
 7287TIP3    H143276   5.397   1.589  12.101  2.6861  0.2998 -0.2179
 7287TIP3    H243277   5.451   1.645  11.972  0.7681  2.8583  0.0036
 7288TIP3   OH243278   3.227   5.980   4.098 -0.4791 -0.1405 -0.2166
 7288TIP3    H143279   3.198   5.967   4.188 -0.7056 -1.0297 -0.4157
 7288TIP3    H243280   3.269   5.897   4.074  0.7601  0.5341 -0.4917
 7289TIP3   OH243281   3.514   1.890  10.951 -0.2058  0.1403  0.5332
 7289TIP3    H143282   3.439   1.948  10.962 -0.9607 -1.0765  2.1681
 7289TIP3    H243283   3.484   1.823  10.889  0.3517  0.9075 -0.6150
 7290TIP3   OH243284   0.758   0.442  13.959 -0.3719  0.3528 -0.2914
 7290TIP3    H143285   0.777   0.395  13.878 -0.4361  1.1372 -0.7707
 7290TIP3    H243286   0.667   0.419  13.980  0.2102 -1.3237  0.5865
 7291TIP3   OH243287   3.068   0.864   5.792 -1.1677  0.3370  0.6386
 7291TIP3    H143288   3.133   0.906   5.847 -1.8209  1.1262  0.8323
 7291TIP3    H243289   3.017   0.809   5.852  0.5235 -1.8627  0.1790
 7292TIP3   OH243290   5.560   0.693  14.061 -0.2696  0.4975  0.5536
 7292TIP3    H143291   5.605   0.770  14.026  1.2016 -0.7725 -0.4996
 7292TIP3    H243292   5.468   0.717  14.059 -0.1032  1.3349 -2.2384
 7293TIP3   OH243293   5.973   5.832  12.761  0.2093 -0.0761  0.2137
 7293TIP3    H143294   5.998   5.907  12.707  2.0558 -0.9986 -0.2863
 7293TIP3    H243295   6.040   5.766  12.742  0.9552 -0.4468  3.6297
 7294TIP3   OH243296   6.719   0.655   2.720  0.3246 -0.5232  0.4337
 7294TIP3    H143297   6.785   0.611   2.666  0.4590  0.4463 -0.2146
 7294TIP3    H243298   6.654   0.688   2.658  0.2401  0.2182  0.8975
 7295TIP3   OH243299   0.829   1.469   2.442  0.1583 -0.3279  0.6353
 7295TIP3    H143300   0.748   1.438   2.483  0.5187 -0.3294  1.3713
 7295TIP3    H243301   0.838   1.415   2.363 -1.4167  0.8130 -0.3932
 7296TIP3   OH243302   1.662   0.743   0.769  0.2464  0.0368 -0.0291
 7296TIP3    H143303   1.625   0.796   0.840  0.5376 -0.8495  0.8230
 7296TIP3    H243304   1.717   0.679   0.815  3.4930  1.7532 -1.2301
 7297TIP3   OH243305   2.583   2.560   0.418 -0.4193 -0.3044  0.6236
 7297TIP3    H143306   2.575   2.559   0.514 -1.4476 -0.1449  0.5566
 7297TIP3    H243307   2.492   2.557   0.387 -0.1040 -0.1326 -0.3446
 7298TIP3   OH243308   1.332   1.578   5.648  0.2109  0.2689 -0.0407
 7298TIP3    H143309   1.396   1.507   5.640  1.1866  1.1068  0.2841
 7298TIP3    H243310   1.290   1.581   5.561  0.2289 -0.6232 -0.0939
 7299TIP3   OH243311   0.553   1.161  13.196 -0.2049 -0.0382 -0.3270
 7299TIP3    H143312   0.577   1.090  13.256 -1.2154  1.4399  1.9992
 7299TIP3    H243313   0.635   1.209  13.183 -0.1033  0.0520  0.5426
 7300TIP3   OH243314   0.476   0.613  12.286  0.8283 -0.1954 -0.2137
 7300TIP3    H143315   0.479   0.706  12.309 -2.6084  0.3526 -1.4065
 7300TIP3    H243316   0.501   0.611  12.193  3.3303 -0.8987  0.3927
 7301TIP3   OH243317   1.716   0.309  16.012 -0.0864 -0.1265 -0.3208
 7301TIP3    H143318   1.716   0.403  16.027  1.6074 -0.0604 -0.4951
 7301TIP3    H243319   1.624   0.283  16.017 -0.5657  1.5122 -0.1810
 7302TIP3   OH243320   0.922   1.266  15.266 -0.4807  0.0330  0.2110
 7302TIP3    H143321   0.895   1.320  15.192  0.2040  0.1698  0.0545
 7302TIP3    H243322   0.861   1.192  15.265 -1.2350  0.6419  0.2478
 7303TIP3   OH243323   1.622   5.032  11.114 -0.1246 -0.0638 -0.0100
 7303TIP3    H143324   1.675   5.076  11.047 -0.4892  1.1964  0.4901
 7303TIP3    H243325   1.532   5.042  11.085 -0.3256  0.9516  0.8959
 7304TIP3   OH243326   3.307   1.624  11.291 -0.0426  0.0554  0.0297
 7304TIP3    H143327   3.276   1.565  11.222 -1.6530  0.5804  0.2639
 7304TIP3    H243328   3.258   1.705  11.277 -0.2443  0.2424  1.6547
 7305TIP3   OH243329   1.248   6.614  14.762 -0.2150 -0.3799 -0.3947
 7305TIP3    H143330   1.273   6.585  14.674  0.6212  1.1397 -0.6914
 7305TIP3    H243331   1.259   6.709  14.760  1.0909 -0.4227  1.7204
 7306TIP3   OH243332   1.337   1.612   2.829  0.3415 -0.1016 -0.3780
 7306TIP3    H143333   1.248   1.635   2.855  0.3288 -0.6530  0.0926
 7306TIP3    H243334   1.326   1.541   2.766  0.4769 -1.6042  1.2007
 7307TIP3   OH243335   5.983   4.038   6.427  1.3115 -0.4345  0.0829
 7307TIP3    H143336   5.986   4.043   6.523  0.4876 -2.0035  0.2128
 7307TIP3    H243337   6.013   3.950   6.406 -1.1695 -1.1429 -0.8945
 7308TIP3   OH243338   3.001   3.047   3.034 -0.8564 -0.1824 -0.0811
 7308TIP3    H143339   2.985   3.035   2.940 -1.3748  0.3365 -0.0573
 7308TIP3    H243340   3.059   2.974   3.057  1.3579  1.0739 -1.3263
 7309TIP3   OH243341   1.844   4.433   6.478 -0.5334  0.4707 -0.3642
 7309TIP3    H143342   1.918   4.467   6.529 -1.1150  1.0490  0.1028
 7309TIP3    H243343   1.804   4.367   6.536  0.1867 -0.5642 -1.0009
 7310TIP3   OH243344   3.061   0.702   0.187 -0.2770 -0.3284 -0.3809
 7310TIP3    H143345   3.077   0.792   0.160 -0.9981  0.0724  0.4735
 7310TIP3    H243346   2.979   0.677   0.145 -0.5362 -0.2730  0.0805
 7311TIP3   OH243347   2.692   3.320   4.153 -0.3792  0.7021  0.2840
 7311TIP3    H143348   2.736   3.343   4.235  1.0531  0.5225 -0.4051
 7311TIP3    H243349   2.693   3.401   4.101 -0.7653  0.6654  0.2144
 7312TIP3   OH243350   3.089   1.809   1.512  0.0556  0.7532  0.2598
 7312TIP3    H143351   3.175   1.831   1.475 -0.7565  2.1559 -0.8778
 7312TIP3    H243352   3.031   1.802   1.437 -1.3069  2.1243  1.1354
 7313TIP3   OH243353   5.954   6.148  17.072 -0.3682  0.0691  0.4874
 7313TIP3    H143354   5.904   6.095  17.135 -1.1516  2.2606  1.8189
 7313TIP3    H243355   5.968   6.090  16.998 -0.8593 -2.1012  1.9945
 7314TIP3   OH243356   4.087   2.914  11.556  0.0885  0.0143  0.1995
 7314TIP3    H143357   4.122   2.907  11.645 -1.3380 -0.0966  0.7770
 7314TIP3    H243358   4.116   2.833  11.513 -0.4277 -0.6346  1.0233
 7315TIP3   OH243359   0.659   2.673   2.088 -0.0134  0.0208 -0.3665
 7315TIP3    H143360   0.731   2.613   2.066  1.0561  1.4363 -0.8839
 7315TIP3    H243361   0.594   2.617   2.130  0.7986 -1.5616 -1.1035
 7316TIP3   OH243362   2.462   5.995  12.271  0.4895 -0.3937 -0.1294
 7316TIP3    H143363   2.478   6.032  12.358 -2.1581 -0.5534  0.5214
 7316TIP3    H243364   2.426   6.067  12.220  0.2038 -0.7722 -0.4766
 7317TIP3   OH243365   1.700   0.466   0.646 -0.0467 -0.1630  0.6689
 7317TIP3    H143366   1.731   0.379   0.671  2.3564  0.2504 -0.6113
 7317TIP3    H243367   1.730   0.523   0.717  2.9105  0.3190 -0.7996
 7318TIP3   OH243368   5.802   4.744   6.069 -0.2651  0.1507 -0.2670
 7318TIP3    H143369   5.882   4.692   6.060 -1.1133 -1.1292 -0.7463
 7318TIP3    H243370   5.767   4.719   6.154 -1.1659 -0.8026 -0.9015
 7319TIP3   OH243371   2.563   5.271   4.367 -0.0600  0.0129  0.0827
 7319TIP3    H143372   2.657   5.267   4.380 -0.2028  0.6773  1.4931
 7319TIP3    H243373   2.528   5.198   4.418 -0.2278 -1.2943 -1.8022
 7320TIP3   OH243374   3.898   2.342  16.748  0.4558 -0.4742 -0.1875
 7320TIP3    H143375   3.953   2.355  16.825  1.2987  0.6297 -0.9505
 7320TIP3    H243376   3.959   2.316  16.679 -0.1035 -0.1492 -0.8129
 7321TIP3   OH243377   0.179   4.589   0.677  0.1761  0.0367  0.2178
 7321TIP3    H143378   0.196   4.654   0.608  0.1512 -0.2067 -0.0182
 7321TIP3    H243379   0.228   4.512   0.649 -0.8707 -0.4923 -0.1787
 7322TIP3   OH243380   2.311   4.762   3.933 -0.0830  0.1510 -0.6617
 7322TIP3    H143381   2.398   4.744   3.969 -0.8675 -0.0937  1.2011
 7322TIP3    H243382   2.264   4.806   4.004 -0.5401  3.2022 -2.6601
 7323TIP3   OH243383   2.542   4.303  11.492  0.6225 -0.3727  0.0118
 7323TIP3    H143384   2.634   4.275  11.490  0.4927 -0.7812 -0.4674
 7323TIP3    H243385   2.506   4.260  11.569  0.8242 -0.2427  0.1807
 7324TIP3   OH243386   6.073   1.188   1.215 -0.0376  0.4047  0.4872
 7324TIP3    H143387   6.133   1.258   1.188 -0.5841  0.4023 -0.8219
 7324TIP3    H243388   6.011   1.231   1.273 -1.2636  1.4156 -1.4581
 7325TIP3   OH243389   6.354   1.690  11.347  0.2254  0.0048  0.0843
 7325TIP3    H143390   6.418   1.747  11.303 -1.1058  1.7156  0.2498
 7325TIP3    H243391   6.383   1.687  11.438  2.1441 -2.3342 -0.5039
 7326TIP3   OH243392   3.470   4.278  11.725  0.0220 -0.0078 -0.2172
 7326TIP3    H143393   3.498   4.209  11.786  1.5674  1.6307  1.0087
 7326TIP3    H243394   3.487   4.360  11.771  1.2661  1.3274 -2.8208
 7327TIP3   OH243395   4.802   0.608  14.583  0.5742 -0.0679  0.4350
 7327TIP3    H143396   4.719   0.587  14.627  0.4015 -1.9989 -0.7094
 7327TIP3    H243397   4.868   0.558  14.631  1.3980  2.5690  2.2540
 7328TIP3   OH243398   3.589   2.506   3.085  0.3492 -0.1853  0.6966
 7328TIP3    H143399   3.609   2.588   3.040  1.9491 -1.0451 -0.2639
 7328TIP3    H243400   3.504   2.521   3.127 -1.3130  0.6514 -2.6636
 7329TIP3   OH243401   5.308   2.114  12.680  0.5329 -0.5790  0.2677
 7329TIP3    H143402   5.296   2.200  12.639 -0.2349 -0.2805  1.0824
 7329TIP3    H243403   5.233   2.106  12.739  1.0672 -1.4465  0.8360
 7330TIP3   OH243404   4.369   0.494  13.114  0.3283  0.7604 -0.3032
 7330TIP3    H143405   4.374   0.523  13.205  1.0042  1.1568 -0.4592
 7330TIP3    H243406   4.275   0.484  13.097  0.2390 -0.3311  0.7382
 7331TIP3   OH243407   0.381   4.055   0.899 -0.1237 -0.2064  0.5564
 7331TIP3    H143408   0.359   4.145   0.876 -0.9033 -0.6896 -0.6574
 7331TIP3    H243409   0.347   4.044   0.988 -0.7628  0.4407  0.3931
 7332TIP3   OH243410   4.388   6.647   4.133  0.1089 -0.1041 -0.5040
 7332TIP3    H143411   4.403   6.626   4.041 -0.9870 -1.4946 -0.4048
 7332TIP3    H243412   4.304   6.604   4.153  1.0041 -1.0154  1.5086
 7333TIP3   OH243413   4.207   0.985  11.722 -0.7924 -0.2227 -0.1630
 7333TIP3    H143414   4.285   0.932  11.707 -0.0833  0.3985  1.2532
 7333TIP3    H243415   4.184   1.019  11.635  0.4133 -0.5353 -0.6172
 7334TIP3   OH243416   4.174   2.289  13.904  0.2262  0.0339 -0.0094
 7334TIP3    H143417   4.256   2.307  13.858 -0.0974 -0.2173 -0.7147
 7334TIP3    H243418   4.200   2.237  13.980  0.8274  0.8627  0.3575
 7335TIP3   OH243419   0.161   0.443   2.621 -0.3184  0.2465  0.6654
 7335TIP3    H143420   0.159   0.473   2.530 -1.9377  0.4342  0.7337
 7335TIP3    H243421   0.252   0.419   2.636  0.4956  2.4361 -0.2831
 7336TIP3   OH243422   0.227   2.732  16.055  0.2686  0.3053 -0.0212
 7336TIP3    H143423   0.157   2.696  16.109  0.1843  0.6881  0.1269
 7336TIP3    H243424   0.261   2.657  16.007 -0.7940  0.2571 -0.7319
 7337TIP3   OH243425   1.951   5.174   5.156 -0.3784  0.5312 -0.1049
 7337TIP3    H143426   1.863   5.185   5.191 -0.3818 -0.8545  0.4104
 7337TIP3    H243427   1.959   5.079   5.143  1.7808  0.3223  1.9803
 7338TIP3   OH243428   2.429   3.018   2.652  0.0165 -0.0705 -0.1604
 7338TIP3    H143429   2.466   3.101   2.623  0.0690 -0.2846 -0.7082
 7338TIP3    H243430   2.358   3.000   2.591 -0.8656  0.2293  0.7537
 7339TIP3   OH243431   2.304   2.836   5.893 -0.5041  0.4556  0.2100
 7339TIP3    H143432   2.385   2.883   5.911 -0.4893  0.5192 -0.0141
 7339TIP3    H243433   2.264   2.823   5.978 -1.1669  2.0301  0.1744
 7340TIP3   OH243434   4.512   3.243   5.268  0.1285 -0.2228 -0.0411
 7340TIP3    H143435   4.519   3.339   5.262  2.3033 -0.3606 -0.1876
 7340TIP3    H243436   4.601   3.213   5.286 -0.4579 -2.2663 -0.3240
 7341TIP3   OH243437   5.752   5.920  15.906  0.6403  0.1225  0.1516
 7341TIP3    H143438   5.786   5.847  15.854 -0.7850 -0.9089  0.6038
 7341TIP3    H243439   5.731   5.881  15.991  0.3309  1.1786  0.5750
 7342TIP3   OH243440   2.584   4.174   3.484  0.4052 -0.4587 -0.6025
 7342TIP3    H143441   2.587   4.115   3.560 -0.9916  0.5994  0.3326
 7342TIP3    H243442   2.506   4.146   3.436  0.8084 -0.5753 -1.1983
 7343TIP3   OH243443   3.119   5.279  15.814  0.3380  0.2873 -0.0739
 7343TIP3    H143444   3.092   5.369  15.831 -0.0247 -0.0396  1.1586
 7343TIP3    H243445   3.105   5.233  15.897 -0.1364 -1.0702 -0.8671
 7344TIP3   OH243446   0.724   0.902   2.180  0.2131  0.8738 -0.1251
 7344TIP3    H143447   0.779   0.972   2.143  0.5870  1.2146  1.0307
 7344TIP3    H243448   0.694   0.937   2.264 -0.8303  0.2257 -0.2131
 7345TIP3   OH243449   1.566   5.952  17.241 -0.0974  0.0544 -0.4217
 7345TIP3    H143450   1.612   5.939  17.324  0.5554  1.4300 -0.5387
 7345TIP3    H243451   1.482   5.991  17.266 -0.6672 -1.2129 -0.3012
 7346TIP3   OH243452   2.227   5.391   3.682  0.6883  0.5303 -0.3442
 7346TIP3    H143453   2.231   5.317   3.742  1.2795  0.3423 -0.6121
 7346TIP3    H243454   2.311   5.391   3.637  0.2444  0.6415 -1.2082
 7347TIP3   OH243455   4.086   5.011  15.011 -0.0563 -0.3395  0.6207
 7347TIP3    H143456   4.140   5.058  15.075  0.5696  0.5171 -0.4922
 7347TIP3    H243457   4.078   5.072  14.938 -1.6365 -0.8853  0.2977
 7348TIP3   OH243458   4.984   3.431  14.758  0.1987 -0.2692  0.7101
 7348TIP3    H143459   4.898   3.464  14.733  0.2725  0.6396  1.6007
 7348TIP3    H243460   4.971   3.337  14.771 -0.5004 -0.2470  0.2035
 7349TIP3   OH243461   3.492   3.406  12.221  0.5577  0.2848 -0.7013
 7349TIP3    H143462   3.541   3.350  12.281  0.2179 -1.5120 -2.0103
 7349TIP3    H243463   3.558   3.464  12.183  0.9358  0.7395  0.5948
 7350TIP3   OH243464   5.726   0.664   4.644 -0.2012  0.2080 -0.4546
 7350TIP3    H143465   5.695   0.584   4.687  0.2066  0.4585  0.3380
 7350TIP3    H243466   5.648   0.699   4.602 -0.1430 -1.1909 -1.8041
 7351TIP3   OH243467   6.644   6.131  16.140 -0.5210  0.3544  0.0951
 7351TIP3    H143468   6.588   6.053  16.140 -0.4272  0.2484  1.6052
 7351TIP3    H243469   6.673   6.140  16.049 -0.2447 -1.5874 -0.0490
 7352TIP3   OH243470   1.276   2.656  11.926 -0.4654  0.2041  0.1382
 7352TIP3    H143471   1.300   2.591  11.992  0.1020  1.3123  1.0447
 7352TIP3    H243472   1.356   2.669  11.874 -0.8406 -0.4858 -0.6443
 7353TIP3   OH243473   1.583   3.722  16.635  0.0003 -0.1224 -0.3363
 7353TIP3    H143474   1.635   3.700  16.558  0.8345 -2.2610  0.7530
 7353TIP3    H243475   1.493   3.698  16.610  0.5871 -3.0804  0.0649
 7354TIP3   OH243476   3.827   2.578   4.946  0.1489  0.3096  0.0045
 7354TIP3    H143477   3.754   2.531   4.985  0.0336  0.4433 -0.0460
 7354TIP3    H243478   3.805   2.584   4.853 -0.8627  2.2690  0.3223
 7355TIP3   OH243479   5.176   6.289   1.226  0.0822 -0.4200 -0.2871
 7355TIP3    H143480   5.132   6.374   1.217  0.5664 -0.3472 -2.4546
 7355TIP3    H243481   5.266   6.305   1.197  1.0900 -1.0147  2.2568
 7356TIP3   OH243482   3.810   6.334  13.374  0.2629 -0.0547 -0.4167
 7356TIP3    H143483   3.802   6.383  13.456 -0.9409 -0.2816 -0.3683
 7356TIP3    H243484   3.742   6.267  13.380 -0.1337  0.1869 -1.7825
 7357TIP3   OH243485   1.014   5.745  15.251 -0.1815  0.2640  0.3674
 7357TIP3    H143486   1.107   5.748  15.230 -0.0809  0.9093  0.8781
 7357TIP3    H243487   0.974   5.702  15.176  0.5093  0.1286  0.0716
 7358TIP3   OH243488   0.616   0.892  12.091  0.3883 -0.1477 -1.0937
 7358TIP3    H143489   0.566   0.912  12.169  1.3779 -2.6014  0.2874
 7358TIP3    H243490   0.555   0.843  12.035  0.5003 -0.9082 -0.5551
 7359TIP3   OH243491   1.227   0.305  16.953  0.0405 -0.2536 -0.2970
 7359TIP3    H143492   1.253   0.227  17.002 -0.6979 -0.1671  0.2491
 7359TIP3    H243493   1.301   0.364  16.959  1.2779 -1.5012 -2.0592
 7360TIP3   OH243494   4.517   2.168  16.024  0.0198 -0.1135  0.1136
 7360TIP3    H143495   4.475   2.088  16.057  1.5012 -1.0805 -0.2190
 7360TIP3    H243496   4.462   2.239  16.055 -1.8415 -1.2955 -0.2876
 7361TIP3   OH243497   1.394   6.650  13.859 -0.4403  0.0986  0.3559
 7361TIP3    H143498   1.348   6.731  13.838 -0.9148  0.3587  2.2131
 7361TIP3    H243499   1.327   6.582  13.855  0.2956 -0.6353 -3.0667
 7362TIP3   OH243500   5.183   2.553   0.632 -0.4841 -0.0041 -0.1100
 7362TIP3    H143501   5.114   2.601   0.586  0.4231  1.0029 -0.4793
 7362TIP3    H243502   5.253   2.617   0.643  0.4539 -1.0370  0.1223
 7363TIP3   OH243503   6.305   4.154   1.266  0.1430  0.0709 -0.5652
 7363TIP3    H143504   6.258   4.193   1.340  0.7339 -1.0057  0.4024
 7363TIP3    H243505   6.261   4.071   1.251  1.5133 -0.8335  0.1851
 7364TIP3   OH243506   1.513   2.079   6.202 -0.1398  0.0854 -0.8085
 7364TIP3    H143507   1.587   2.139   6.205 -0.6005  0.6362  0.2923
 7364TIP3    H243508   1.537   2.008   6.262 -0.5591  0.3525 -0.3150
 7365TIP3   OH243509   3.544   0.569  12.335  0.0928 -0.5978 -0.1882
 7365TIP3    H143510   3.600   0.629  12.285 -0.4500  1.1959  1.2622
 7365TIP3    H243511   3.455   0.591  12.306 -0.1268 -0.5337  0.5324
 7366TIP3   OH243512   6.762   0.664  15.370  0.1933  0.4567  0.5797
 7366TIP3    H143513   6.793   0.583  15.330  0.9680 -0.5564  3.0927
 7366TIP3    H243514   6.834   0.726  15.358 -0.1243  0.6204 -0.7102
 7367TIP3   OH243515   1.341   3.689   2.593  0.4138 -0.2887 -0.2353
 7367TIP3    H143516   1.285   3.711   2.519 -0.6584 -1.7498  0.1087
 7367TIP3    H243517   1.373   3.601   2.575  0.2178 -0.6308  0.9787
 7368TIP3   OH243518   1.064   0.409   1.562 -0.3445  1.1514  0.3899
 7368TIP3    H143519   1.139   0.369   1.519  1.3370  1.9728  2.3987
 7368TIP3    H243520   1.040   0.483   1.506  0.5935  1.0925 -0.1025
 7369TIP3   OH243521   0.651   4.671  11.984  0.3129  0.0909  0.4256
 7369TIP3    H143522   0.599   4.744  11.952  0.9841  0.3300 -0.1454
 7369TIP3    H243523   0.689   4.702  12.066 -0.2843 -0.0186  0.7489
 7370TIP3   OH243524   2.286   4.604   0.825 -0.0562 -0.2895  0.0262
 7370TIP3    H143525   2.278   4.585   0.731 -2.1098 -1.5927  0.4048
 7370TIP3    H243526   2.203   4.645   0.848  0.4430  0.0452  1.2778
 7371TIP3   OH243527   3.451   0.433  15.078  0.1203  0.4566  0.3670
 7371TIP3    H143528   3.403   0.514  15.096 -1.2353 -0.1318 -0.4529
 7371TIP3    H243529   3.386   0.364  15.086  0.4042 -0.2436 -2.3023
 7372TIP3   OH243530   3.529   0.245  11.169  0.6033 -0.8025 -0.7559
 7372TIP3    H143531   3.511   0.185  11.097 -0.7388  0.4672 -1.5337
 7372TIP3    H243532   3.446   0.289  11.186  1.6919  1.4326 -0.8186
 7373TIP3   OH243533   3.243   0.818   1.457  0.4340  0.1392  0.0647
 7373TIP3    H143534   3.327   0.785   1.488  0.7854  0.0470 -0.9310
 7373TIP3    H243535   3.209   0.868   1.530  0.8618 -0.6923  0.8636
 7374TIP3   OH243536   2.858   1.592   5.397 -0.8314  0.1183  0.6033
 7374TIP3    H143537   2.904   1.533   5.336 -1.0859 -1.1392  1.5836
 7374TIP3    H243538   2.840   1.670   5.345 -0.1524 -0.5116 -0.6434
 7375TIP3   OH243539   6.465   2.159   2.272 -0.8773  0.6361 -0.1542
 7375TIP3    H143540   6.532   2.227   2.283  1.0627 -0.9409 -1.4941
 7375TIP3    H243541   6.398   2.181   2.336  1.1406  2.0680  1.6086
 7376TIP3   OH243542   5.355   6.254   3.838  0.2427 -0.4575  0.1570
 7376TIP3    H143543   5.315   6.206   3.910  0.4039  0.1923  0.6969
 7376TIP3    H243544   5.281   6.282   3.784  0.1726 -1.6132 -0.3764
 7377TIP3   OH243545   4.122   0.461  11.576 -0.3213 -0.4708 -0.0183
 7377TIP3    H143546   4.037   0.504  11.563 -0.1791 -0.0696  0.3612
 7377TIP3    H243547   4.136   0.410  11.496  1.3307  3.2211 -2.2924
 7378TIP3   OH243548   2.908   2.427  16.054 -0.0737 -0.0106  0.0907
 7378TIP3    H143549   2.840   2.490  16.079 -0.1887  0.4761 -1.3796
 7378TIP3    H243550   2.930   2.449  15.964  1.3163 -0.8260  0.1986
 7379TIP3   OH243551   6.090   3.759   6.385 -0.3635 -0.3019 -0.1984
 7379TIP3    H143552   6.067   3.724   6.471  1.3968  0.5320  0.6372
 7379TIP3    H243553   6.166   3.814   6.400  0.1450 -0.3292 -2.3378
 7380TIP3   OH243554   5.281   4.553  15.612 -0.4015 -0.0166  0.4589
 7380TIP3    H143555   5.285   4.585  15.702  0.3494  0.6909  0.1871
 7380TIP3    H243556   5.196   4.509  15.606 -1.1665  1.3018  1.0752
 7381TIP3   OH243557   2.535   0.119   0.046  0.0414  0.0074 -0.3394
 7381TIP3    H143558   2.466   0.069   0.089  0.0528 -0.2818 -0.6546
 7381TIP3    H243559   2.508   0.124  -0.045  0.0232  0.6116 -0.3023
 7382TIP3   OH243560   3.391   5.610  16.138 -0.2175  0.3971  0.6302
 7382TIP3    H143561   3.460   5.620  16.204  0.8145 -0.5569 -0.2592
 7382TIP3    H243562   3.378   5.515  16.131 -2.2509  0.5655  1.3645
 7383TIP3   OH243563   5.955   4.465  14.411 -0.6405  0.1097 -0.1728
 7383TIP3    H143564   5.981   4.482  14.502 -1.6270  1.0162 -0.0387
 7383TIP3    H243565   6.019   4.402  14.379 -0.8620 -0.9851  1.4536
 7384TIP3   OH243566   6.743   6.622   5.444  0.5993 -0.2881  0.0976
 7384TIP3    H143567   6.674   6.577   5.395 -1.4033  1.8259  0.7872
 7384TIP3    H243568   6.797   6.552   5.480 -0.5463 -1.9994 -1.3465
 7385TIP3   OH243569   1.649   5.136   2.498 -0.2015 -0.1767 -0.1777
 7385TIP3    H143570   1.555   5.138   2.484 -0.0965  1.7800 -0.8627
 7385TIP3    H243571   1.686   5.171   2.417  1.2674 -2.7456 -0.7452
 7386TIP3   OH243572   5.764   5.344   0.792 -0.0492  0.3177  0.0583
 7386TIP3    H143573   5.845   5.294   0.788 -1.1583 -1.5834  0.1519
 7386TIP3    H243574   5.743   5.347   0.886 -1.1916 -1.1656 -0.1082
 7387TIP3   OH243575   1.754   4.096   1.654  0.0224  0.1671  0.6885
 7387TIP3    H143576   1.716   4.038   1.720 -0.0180 -0.1681  0.3744
 7387TIP3    H243577   1.717   4.066   1.571  0.8503 -0.0680  0.3950
 7388TIP3   OH243578   4.304   4.622  14.642 -0.1208 -0.0341 -0.1061
 7388TIP3    H143579   4.254   4.682  14.697 -2.0037 -1.5336 -0.0567
 7388TIP3    H243580   4.386   4.608  14.690 -0.8832  0.2403  1.3201
 7389TIP3   OH243581   3.493   1.920  15.733 -0.2282  0.2346 -0.2601
 7389TIP3    H143582   3.416   1.907  15.677 -1.7284  1.2297  1.4638
 7389TIP3    H243583   3.498   1.840  15.785  1.1106 -0.6498 -1.6515
 7390TIP3   OH243584   0.782   2.281   0.800  0.1642  0.1378 -0.0915
 7390TIP3    H143585   0.753   2.302   0.711  1.0542  1.3109 -0.1283
 7390TIP3    H243586   0.836   2.202   0.789  1.4396  1.0670 -0.8455
 7391TIP3   OH243587   4.726   6.726  14.020 -0.1057  0.5297  0.6214
 7391TIP3    H143588   4.720   6.683  14.105 -0.8369 -0.5141  0.0643
 7391TIP3    H243589   4.661   6.797  14.024  0.5451  1.1115  1.2562
 7392TIP3   OH243590   3.756   3.921   0.072  0.0798 -0.5066  0.0900
 7392TIP3    H143591   3.691   3.934   0.141 -0.0072 -2.7802  0.4959
 7392TIP3    H243592   3.840   3.932   0.116  0.0241 -1.9075  0.5740
 7393TIP3   OH243593   6.400   2.458   5.644  0.4254  0.2058  0.6605
 7393TIP3    H143594   6.437   2.430   5.560  0.7283  0.4386  0.7143
 7393TIP3    H243595   6.465   2.432   5.709  0.7361  1.0660  0.7061
 7394TIP3   OH243596   5.720   3.340   6.617  0.8704 -0.2618 -0.4564
 7394TIP3    H143597   5.676   3.404   6.560  1.5622  2.2044  1.5902
 7394TIP3    H243598   5.654   3.272   6.632 -0.2538  0.4400 -1.9419
 7395TIP3   OH243599   5.001   0.152   0.624 -0.7328  0.1050 -0.7629
 7395TIP3    H143600   4.951   0.172   0.703 -0.2881  1.0727 -0.7123
 7395TIP3    H243601   5.075   0.099   0.655 -1.3314 -0.7269 -0.7399
 7396TIP3   OH243602   6.727   4.008   1.261  0.7261  0.2975 -0.0819
 7396TIP3    H143603   6.790   4.044   1.198  0.0073 -0.2585 -1.1403
 7396TIP3    H243604   6.689   4.086   1.302  0.1828  0.7301 -1.3597
 7397TIP3   OH243605   1.658   4.278   5.292 -0.3722  0.1444 -0.3017
 7397TIP3    H143606   1.704   4.345   5.241  0.1045 -0.4648 -0.6771
 7397TIP3    H243607   1.630   4.214   5.227  0.7161 -0.9290  0.2561
 7398TIP3   OH243608   3.975   3.869  14.178  0.1924 -0.2423 -0.6823
 7398TIP3    H143609   4.047   3.817  14.214  0.8519 -0.9385 -2.8008
 7398TIP3    H243610   3.908   3.869  14.245  1.5214 -0.9963  0.6963
 7399TIP3   OH243611   1.544   5.037   6.406 -0.1662 -0.0875 -0.1794
 7399TIP3    H143612   1.502   5.121   6.425  1.0358  0.4754  0.1041
 7399TIP3    H243613   1.472   4.974   6.404 -0.9674  0.7689  0.6551
 7400TIP3   OH243614   0.245   0.652  13.857 -0.1510  0.1764  0.6574
 7400TIP3    H143615   0.317   0.711  13.877 -0.0209  0.4838 -0.6099
 7400TIP3    H243616   0.283   0.565  13.858  0.0065  0.2490  0.9988
 7401TIP3   OH243617   4.484   6.498  15.120 -0.0371 -0.5880 -0.1490
 7401TIP3    H143618   4.537   6.511  15.199 -0.6001  0.5299  0.0644
 7401TIP3    H243619   4.449   6.410  15.129 -1.9054  0.2774  1.9912
 7402TIP3   OH243620   1.634   1.294  14.570 -0.6771  0.0849  0.2037
 7402TIP3    H143621   1.606   1.376  14.530  0.4409  1.1005  1.4090
 7402TIP3    H243622   1.559   1.235  14.560 -1.7095  1.4247 -0.1762
 7403TIP3   OH243623   0.763   6.427  11.729 -0.0226  0.5447  0.3393
 7403TIP3    H143624   0.718   6.427  11.813 -1.2684 -0.0808 -0.2896
 7403TIP3    H243625   0.717   6.360  11.677  1.7282 -0.2077 -0.3148
 7404TIP3   OH243626   1.368   2.846  13.278  0.2555 -0.0788  0.6960
 7404TIP3    H143627   1.324   2.810  13.355 -0.1549 -0.3825  0.3181
 7404TIP3    H243628   1.308   2.913  13.245  0.4025  0.0062  0.6006
 7405TIP3   OH243629   3.501   5.026  14.326  0.7266  1.1215 -0.4484
 7405TIP3    H143630   3.553   5.065  14.396 -1.2906 -0.1568  1.8954
 7405TIP3    H243631   3.529   4.935  14.322 -0.8358  0.5752  0.4171
 7406TIP3   OH243632   3.192   0.663   2.804 -0.0701 -0.0089  0.0999
 7406TIP3    H143633   3.110   0.692   2.846  0.9367  0.3058  1.9817
 7406TIP3    H243634   3.179   0.680   2.711 -0.9971  2.9841  0.6754
 7407TIP3   OH243635   2.844   2.848  16.238 -0.1377  0.3251 -0.2796
 7407TIP3    H143636   2.872   2.897  16.161 -0.6918 -0.4478 -0.9739
 7407TIP3    H243637   2.784   2.781  16.205 -0.7273  0.2577  0.8712
 7408TIP3   OH243638   3.287   0.091  15.480 -0.0078 -0.7722  0.3233
 7408TIP3    H143639   3.363   0.130  15.524 -1.5203  3.4122 -0.2989
 7408TIP3    H243640   3.323   0.056  15.398  1.3897  0.7364  0.2332
 7409TIP3   OH243641   2.126   0.762   4.235 -0.1238  0.0969 -0.2763
 7409TIP3    H143642   2.125   0.692   4.169  1.0448 -0.7021  0.5193
 7409TIP3    H243643   2.050   0.744   4.290  0.0117 -0.3953 -0.2417
 7410TIP3   OH243644   3.467   4.362  16.319 -0.3235 -0.2773 -0.1816
 7410TIP3    H143645   3.403   4.432  16.311  0.1435  0.3182  1.0646
 7410TIP3    H243646   3.503   4.352  16.231 -1.0376  0.4269 -0.5634
 7411TIP3   OH243647   3.488   5.661   5.459 -0.9230 -1.0851  0.0372
 7411TIP3    H143648   3.520   5.743   5.496 -1.5476 -1.8353  2.3944
 7411TIP3    H243649   3.471   5.681   5.367 -0.3818  1.2121  0.3857
 7412TIP3   OH243650   6.329   5.280  16.203  0.5254  0.0887 -0.0018
 7412TIP3    H143651   6.355   5.320  16.120 -0.5602 -0.6238 -0.7176
 7412TIP3    H243652   6.386   5.203  16.212  1.2707  0.6793  0.3879
 7413TIP3   OH243653   3.252   4.180   6.865  0.3965  0.0137 -0.3717
 7413TIP3    H143654   3.215   4.105   6.912  2.1758  0.5928  2.2316
 7413TIP3    H243655   3.238   4.254   6.924  1.1356  1.1951 -1.6155
 7414TIP3   OH243656   5.500   5.796  13.613  0.0824  0.0259  0.4392
 7414TIP3    H143657   5.537   5.879  13.585  2.3247 -1.1582 -0.3666
 7414TIP3    H243658   5.434   5.775  13.547  0.4393  0.5518 -0.0911
 7415TIP3   OH243659   3.470   6.613  14.951  0.5759  0.0077  0.0287
 7415TIP3    H143660   3.564   6.596  14.941  0.2043 -1.1080 -2.1359
 7415TIP3    H243661   3.455   6.692  14.899 -0.3341 -2.3012 -3.5520
 7416TIP3   OH243662   2.859   1.824   0.304 -0.0232  0.0435  0.4266
 7416TIP3    H143663   2.787   1.762   0.311  0.9492 -1.2762 -0.5895
 7416TIP3    H243664   2.825   1.896   0.252 -1.3410  0.6650  2.0777
 7417TIP3   OH243665   2.992   1.838   4.656 -0.6825 -0.1065 -0.0762
 7417TIP3    H143666   3.012   1.799   4.571  0.1652 -1.5094  0.7271
 7417TIP3    H243667   2.897   1.844   4.659 -0.7885 -1.2323 -0.6373
 7418TIP3   OH243668   2.039   2.807  13.011  0.1979 -0.4363 -0.0152
 7418TIP3    H143669   2.041   2.824  12.917 -0.1530 -1.4277 -0.2188
 7418TIP3    H243670   1.972   2.866  13.045  1.0408  0.6684 -0.2113
 7419TIP3   OH243671   2.341   6.670   4.384  0.3123 -0.5038 -0.1696
 7419TIP3    H143672   2.409   6.703   4.442 -0.9984  0.0122  1.1260
 7419TIP3    H243673   2.272   6.736   4.388 -0.6134 -1.3981 -0.8335
 7420TIP3   OH243674   1.357   1.971  16.718  0.5551  0.2529  0.0198
 7420TIP3    H143675   1.353   2.059  16.758  1.1864 -0.5738  2.0506
 7420TIP3    H243676   1.378   1.913  16.791  0.3834 -1.5843 -1.3261
 7421TIP3   OH243677   3.884   4.180   2.353 -0.4065 -0.1847 -0.8149
 7421TIP3    H143678   3.941   4.110   2.384  0.6881  0.8390 -0.4442
 7421TIP3    H243679   3.799   4.161   2.394  0.4339 -0.0796  1.1130
 7422TIP3   OH243680   4.110   3.788   2.023 -0.6849 -0.3529  0.1535
 7422TIP3    H143681   4.107   3.876   1.985 -0.9452 -1.2085 -1.9380
 7422TIP3    H243682   4.165   3.738   1.962 -1.0614 -1.7983  0.9691
 7423TIP3   OH243683   5.361   1.428  12.197 -0.0829  0.1305 -0.9651
 7423TIP3    H143684   5.347   1.334  12.212 -0.2958  0.4004  0.8516
 7423TIP3    H243685   5.343   1.468  12.282  2.3904  1.5640 -1.0261
 7424TIP3   OH243686   6.662   2.994   1.983 -0.3144 -0.4607 -0.4429
 7424TIP3    H143687   6.684   2.956   2.067 -0.6618 -0.3002 -0.2760
 7424TIP3    H243688   6.738   3.047   1.959 -0.0190 -0.8884 -0.4600
 7425TIP3   OH243689   5.455   5.179   1.085 -0.1015  0.7703  0.3927
 7425TIP3    H143690   5.415   5.265   1.099  1.3708  1.6207 -0.3322
 7425TIP3    H243691   5.487   5.153   1.171  0.9681  1.7741  0.3160
 7426TIP3   OH243692   2.116   3.084   2.754  0.3340  0.1901  0.1659
 7426TIP3    H143693   2.185   3.142   2.785 -0.0601 -0.0749  1.5996
 7426TIP3    H243694   2.043   3.099   2.814 -0.8335  0.3631 -1.2144
 7427TIP3   OH243695   0.892   5.036  13.661  0.4266  0.3272 -0.3093
 7427TIP3    H143696   0.855   5.125  13.657 -0.7746 -0.1886 -1.5313
 7427TIP3    H243697   0.819   4.982  13.691  0.4266 -0.5719 -1.8162
 7428TIP3   OH243698   1.804   4.481   5.131  0.1781 -0.6267  0.3583
 7428TIP3    H143699   1.837   4.496   5.042  0.6311  0.1382  0.6504
 7428TIP3    H243700   1.788   4.568   5.166  0.2526 -0.9129  1.1203
 7429TIP3   OH243701   6.424   3.193  12.326  0.0051 -0.0774  0.2421
 7429TIP3    H143702   6.470   3.151  12.399  0.1490  1.0560  0.8317
 7429TIP3    H243703   6.409   3.122  12.263  1.4307 -0.7266  0.5892
 7430TIP3   OH243704   0.356   4.273  12.616  0.4944  0.1243 -0.0185
 7430TIP3    H143705   0.274   4.313  12.586 -0.3176 -1.1676  0.4060
 7430TIP3    H243706   0.364   4.299  12.707  1.1290  1.1297 -0.3470
 7431TIP3   OH243707   6.673   2.066  13.831  0.2144 -0.2018 -0.3329
 7431TIP3    H143708   6.584   2.033  13.818  0.2562 -0.3314 -0.2973
 7431TIP3    H243709   6.691   2.119  13.754  0.7409 -1.5659 -1.1754
 7432TIP3   OH243710   0.678   6.240  14.008  0.6349  0.1267 -0.2827
 7432TIP3    H143711   0.708   6.307  13.947  1.3082 -0.0041 -0.1098
 7432TIP3    H243712   0.752   6.180  14.016 -0.1202 -0.9038 -0.7882
 7433TIP3   OH243713   6.465   2.130   0.777  0.2568  0.1860  0.7225
 7433TIP3    H143714   6.553   2.163   0.799  0.5947  0.3157 -0.7423
 7433TIP3    H243715   6.426   2.108   0.862  1.5907  0.4095  1.4218
 7434TIP3   OH243716   6.204   1.511   5.999  0.8639  0.1804  0.4113
 7434TIP3    H143717   6.226   1.489   6.089  1.8380  1.2773  0.4638
 7434TIP3    H243718   6.289   1.530   5.958  0.4340 -0.2524 -0.7195
 7435TIP3   OH243719   5.092   4.299   3.973  0.1473  0.5603 -0.5065
 7435TIP3    H143720   5.002   4.317   4.000  0.6377 -0.1838  1.7760
 7435TIP3    H243721   5.085   4.223   3.915 -0.5530 -0.9461  1.4284
 7436TIP3   OH243722   6.292   2.255  13.336 -0.3097 -0.3663  0.6919
 7436TIP3    H143723   6.268   2.263  13.428  0.4003  0.0550  0.8495
 7436TIP3    H243724   6.387   2.250  13.337 -0.3573 -1.6890  0.0686
 7437TIP3   OH243725   4.956   0.583  16.902 -0.0639 -0.0831 -0.3845
 7437TIP3    H143726   4.990   0.524  16.834 -1.7003 -0.2842 -1.0580
 7437TIP3    H243727   4.861   0.581  16.891 -0.3723  0.0927  1.7425
 7438TIP3   OH243728   1.928   0.640  12.932 -0.0511  0.1116 -0.1921
 7438TIP3    H143729   1.858   0.676  12.987 -2.3666 -1.5663 -1.8271
 7438TIP3    H243730   1.945   0.708  12.867 -0.5132  0.3743 -0.0426
 7439TIP3   OH243731   1.254   3.497   2.011 -0.0787 -0.0069  0.1366
 7439TIP3    H143732   1.175   3.453   2.043 -0.0945 -0.7838 -0.9320
 7439TIP3    H243733   1.292   3.436   1.948  1.7692  0.0340  1.1303
 7440TIP3   OH243734   6.543   4.618  11.546 -0.3193 -0.8006 -0.1813
 7440TIP3    H143735   6.497   4.702  11.537  0.6081 -0.3571 -0.8332
 7440TIP3    H243736   6.602   4.631  11.621  1.9184  0.1442 -1.9976
 7441TIP3   OH243737   6.768   4.566   3.511 -0.1862  0.6054  0.8275
 7441TIP3    H143738   6.827   4.630   3.473 -0.0044  0.1429  0.3159
 7441TIP3    H243739   6.770   4.584   3.605  2.0298 -0.4268  1.0468
 7442TIP3   OH243740   3.974   2.897  14.664  0.0151  0.0974 -0.0335
 7442TIP3    H143741   4.045   2.898  14.728  0.2769  1.4407 -0.3067
 7442TIP3    H243742   3.894   2.891  14.716  0.2071  1.4552  0.4612
 7443TIP3   OH243743   3.680   5.653   4.675  0.2172  0.4438  0.3328
 7443TIP3    H143744   3.596   5.609   4.688  0.8533 -1.7524 -2.2362
 7443TIP3    H243745   3.746   5.590   4.702  1.1086  1.2886  0.2208
 7444TIP3   OH243746   0.725   5.590   5.105 -0.2936 -0.8054 -0.6941
 7444TIP3    H143747   0.716   5.627   5.016 -1.5857 -1.7898 -0.9854
 7444TIP3    H243748   0.752   5.500   5.090  0.9194 -0.5764 -0.0194
 7445TIP3   OH243749   1.284   0.074   1.811 -0.4061  0.1057 -0.0416
 7445TIP3    H143750   1.192   0.067   1.786 -0.4905 -0.0924  0.3182
 7445TIP3    H243751   1.318   0.148   1.760 -0.9344  0.6154  0.3311
 7446TIP3   OH243752   0.260   1.736  15.321 -0.1644 -0.7824 -0.0323
 7446TIP3    H143753   0.235   1.740  15.414 -3.4012 -1.0103 -0.7978
 7446TIP3    H243754   0.213   1.661  15.286  1.2229 -0.8816 -1.8569
 7447TIP3   OH243755   5.530   0.076  13.114 -0.5298 -0.5174 -0.6587
 7447TIP3    H143756   5.459   0.057  13.053 -1.7832 -2.7555  1.3345
 7447TIP3    H243757   5.488   0.120  13.188  0.6144  0.3293 -0.4704
 7448TIP3   OH243758   2.885   2.121  10.478 -0.3100  0.0106 -0.2227
 7448TIP3    H143759   2.917   2.072  10.402  0.7146 -1.4973  1.1199
 7448TIP3    H243760   2.885   2.058  10.550 -1.9244  1.2101  0.9019
 7449TIP3   OH243761   2.884   4.437  12.203  0.3221  0.9908 -0.5700
 7449TIP3    H143762   2.964   4.452  12.255  0.5284 -1.3627 -0.1222
 7449TIP3    H243763   2.916   4.402  12.120 -0.2028  0.9342 -0.7483
 7450TIP3   OH243764   2.827   1.236   5.374 -0.2840 -0.0256 -0.2907
 7450TIP3    H143765   2.748   1.276   5.410 -0.1363 -0.9033  1.0963
 7450TIP3    H243766   2.895   1.255   5.439 -0.3549 -3.0243  0.8155
 7451TIP3   OH243767   3.624   1.798  12.071 -0.4695 -0.9147 -0.8045
 7451TIP3    H143768   3.606   1.707  12.096 -1.2112 -1.1428 -2.0705
 7451TIP3    H243769   3.538   1.834  12.048 -0.2737  0.3118  0.2701
 7452TIP3   OH243770   5.048   6.364   3.489 -0.0093  0.2725  0.5737
 7452TIP3    H143771   5.026   6.287   3.436  1.2835  0.4305 -0.2416
 7452TIP3    H243772   5.063   6.329   3.577  1.6719 -0.6204 -0.0177
 7453TIP3   OH243773   2.429   1.819  13.766  0.4826 -0.1399  0.3412
 7453TIP3    H143774   2.335   1.837  13.772  0.4183 -0.5942  0.7479
 7453TIP3    H243775   2.437   1.726  13.787  1.0234 -0.1091  0.2808
 7454TIP3   OH243776   1.835   0.708  15.357 -0.3221  0.4694 -0.3780
 7454TIP3    H143777   1.769   0.777  15.347  1.0873  2.0429  0.5745
 7454TIP3    H243778   1.893   0.720  15.281 -0.9087 -0.7007 -1.0409
 7455TIP3   OH243779   5.113   3.010   4.488  0.2245  0.4893 -0.6017
 7455TIP3    H143780   5.169   3.067   4.436 -0.2641  0.7487 -0.8413
 7455TIP3    H243781   5.026   3.048   4.482  0.0971  0.3419  0.1411
 7456TIP3   OH243782   6.106   5.126  14.183  0.4802 -0.4985 -0.0655
 7456TIP3    H143783   6.099   5.159  14.094 -2.2262  1.0553  0.6111
 7456TIP3    H243784   6.154   5.193  14.230 -4.4728  2.7465  1.1610
 7457TIP3   OH243785   5.990   3.826  11.425 -0.2528  0.3231 -0.2259
 7457TIP3    H143786   5.947   3.883  11.361 -0.4827 -0.9487 -1.2432
 7457TIP3    H243787   5.943   3.743  11.417 -0.2229  0.1042  1.5481
 7458TIP3   OH243788   0.519   3.415  15.367 -0.0774  0.2903  0.0809
 7458TIP3    H143789   0.585   3.474  15.404 -0.8005  0.3375  1.3221
 7458TIP3    H243790   0.485   3.367  15.442 -1.6446  0.4464 -0.5040
 7459TIP3   OH243791   1.064   2.257   6.290 -0.0365  0.0518 -0.1136
 7459TIP3    H143792   1.018   2.238   6.208 -1.2288  1.7061  0.1087
 7459TIP3    H243793   1.127   2.187   6.299 -1.1180 -1.1715 -1.5327
 7460TIP3   OH243794   2.853   3.622   5.337 -0.1544 -0.3345  0.0457
 7460TIP3    H143795   2.947   3.607   5.347 -0.0220  0.7146  0.6018
 7460TIP3    H243796   2.812   3.561   5.397  0.2586  0.1967  0.8935
 7461TIP3   OH243797   5.356   1.345   3.078  0.1473 -0.4771 -0.0684
 7461TIP3    H143798   5.426   1.352   3.014 -1.3098 -1.5299 -1.8491
 7461TIP3    H243799   5.288   1.405   3.047 -0.8077 -1.4019  0.1685
 7462TIP3   OH243800   0.040   5.492  11.857  1.0017  0.1759  0.9776
 7462TIP3    H143801   0.061   5.533  11.773 -0.9526 -1.4082 -0.3616
 7462TIP3    H243802  -0.023   5.552  11.897 -1.5428 -1.1345 -0.7983
 7463TIP3   OH243803   2.276   5.523   1.679  0.3812  0.2282  0.0080
 7463TIP3    H143804   2.287   5.563   1.592 -2.0388  0.6349 -0.1776
 7463TIP3    H243805   2.202   5.569   1.717  0.5719 -0.8516  1.7817
 7464TIP3   OH243806   5.474   4.364   4.443  0.2662  0.4936  0.2253
 7464TIP3    H143807   5.406   4.380   4.509 -1.1355 -3.5810  0.0327
 7464TIP3    H243808   5.552   4.345   4.495  0.1814  1.0381  0.5699
 7465TIP3   OH243809   2.113   4.576  11.566 -0.2245  0.1272 -0.4259
 7465TIP3    H143810   2.049   4.505  11.560 -2.1826  1.7402  0.2162
 7465TIP3    H243811   2.131   4.583  11.660  1.2451 -0.5633 -0.6377
 7466TIP3   OH243812   0.341   3.702  17.049 -0.2661  0.0881  0.5676
 7466TIP3    H143813   0.297   3.645  17.112  0.0700  0.4005  1.0935
 7466TIP3    H243814   0.422   3.729  17.093  0.5536 -0.6330 -0.4543
 7467TIP3   OH243815   3.622   5.533  16.328  0.3745  0.0209 -0.1923
 7467TIP3    H143816   3.682   5.466  16.360  1.2002 -0.5892 -2.7989
 7467TIP3    H243817   3.673   5.583  16.264 -1.1114  1.2305 -0.4958
 7468TIP3   OH243818   0.440   2.551   6.068 -0.5857  0.6780  0.3889
 7468TIP3    H143819   0.379   2.484   6.035 -0.2404  0.8404 -0.6209
 7468TIP3    H243820   0.410   2.569   6.157  0.0112 -1.6746  1.1318
 7469TIP3   OH243821   4.386   2.489   4.566  0.2432  0.1143 -0.1873
 7469TIP3    H143822   4.330   2.480   4.489  0.6907  0.0546 -0.5155
 7469TIP3    H243823   4.407   2.400   4.592  1.2723  0.1331 -0.8892
 7470TIP3   OH243824   4.637   1.652  11.367  0.1756  0.2178  0.4067
 7470TIP3    H143825   4.676   1.736  11.389  1.3587 -0.8656  2.9312
 7470TIP3    H243826   4.569   1.639  11.434 -0.3827 -0.6064 -0.2882
 7471TIP3   OH243827   1.684   4.298  13.330 -0.0533  0.1327  0.2977
 7471TIP3    H143828   1.615   4.361  13.314 -0.1855 -0.0661  0.0761
 7471TIP3    H243829   1.639   4.218  13.356  0.0648 -0.1417 -0.3220
 7472TIP3   OH243830   6.618   6.633  15.094  0.4397 -0.0168 -0.1373
 7472TIP3    H143831   6.537   6.629  15.145 -0.0677  1.6421 -0.7207
 7472TIP3    H243832   6.631   6.544  15.062 -1.3558 -0.2583 -0.3027
 7473TIP3   OH243833   4.937   2.434   4.956  0.0965  0.3458 -0.1229
 7473TIP3    H143834   4.878   2.492   4.908 -0.7190  0.8976  1.4827
 7473TIP3    H243835   4.963   2.484   5.033  0.9307 -0.7044  0.3031
 7474TIP3   OH243836   0.378   3.207  15.051 -0.3030  0.2618 -0.2817
 7474TIP3    H143837   0.345   3.145  15.115  1.1036 -0.3037 -0.0679
 7474TIP3    H243838   0.470   3.220  15.075 -0.0104  0.7911 -1.5905
 7475TIP3   OH243839   2.538   3.779  12.202 -0.1542 -0.3595  0.3389
 7475TIP3    H143840   2.564   3.687  12.208  1.0399 -0.1535 -1.1667
 7475TIP3    H243841   2.447   3.776  12.173  0.8100 -1.1175 -3.0114
 7476TIP3   OH243842   3.522   0.031  17.079 -0.0381 -0.2336  0.0746
 7476TIP3    H143843   3.434   0.062  17.059 -0.5717 -1.0465  1.0341
 7476TIP3    H243844   3.520   0.015  17.174  0.9131 -0.9898 -0.0221
 7477TIP3   OH243845   6.677   3.830  12.851  0.0228 -0.5872  0.6291
 7477TIP3    H143846   6.587   3.863  12.850 -0.0965 -0.8288  1.8874
 7477TIP3    H243847   6.722   3.882  12.784 -0.8823  0.0036  0.4509
 7478TIP3   OH243848   6.109   1.370  11.793 -0.3851 -0.1106 -0.4681
 7478TIP3    H143849   6.020   1.339  11.780 -2.0739  4.3856 -1.4581
 7478TIP3    H243850   6.155   1.349  11.712 -1.5503  0.3391 -1.2641
 7479TIP3   OH243851   1.950   5.392   5.407 -0.7762  0.0915  0.6544
 7479TIP3    H143852   1.982   5.424   5.322 -0.2731  1.1532  1.2226
 7479TIP3    H243853   1.856   5.383   5.394 -0.6970  0.1516 -0.0485
 7480TIP3   OH243854   0.142   1.742  16.328  0.0829 -0.1186 -0.2007
 7480TIP3    H143855   0.069   1.706  16.279  0.3105 -1.6145  0.4740
 7480TIP3    H243856   0.126   1.836  16.332 -0.5565 -0.1206 -2.0589
 7481TIP3   OH243857   0.996   0.736   2.358  0.0005  0.1007 -0.4324
 7481TIP3    H143858   0.997   0.828   2.333  0.1646  0.2525  0.1034
 7481TIP3    H243859   0.905   0.709   2.347  0.5428 -0.7388 -4.2302
 7482TIP3   OH243860   1.118   3.259  13.116  0.1234 -0.2597 -0.3285
 7482TIP3    H143861   1.039   3.308  13.094  0.1824 -0.0135 -0.0063
 7482TIP3    H243862   1.183   3.327  13.134  0.7359 -0.4518 -1.7340
 7483TIP3   OH243863   3.975   5.016   4.613  0.3116 -0.5748  0.2168
 7483TIP3    H143864   4.054   5.064   4.637  0.5907 -0.1210 -1.4953
 7483TIP3    H243865   3.913   5.035   4.683  1.0765  0.6788  0.5840
 7484TIP3   OH243866   0.794   5.016   3.561  0.1261  0.0939  0.1974
 7484TIP3    H143867   0.826   5.103   3.586 -0.6321  0.4898 -0.1557
 7484TIP3    H243868   0.852   4.955   3.606  0.6948  0.7828  0.4220
 7485TIP3   OH243869   4.155   5.670   2.773  0.1440 -0.5323  0.2884
 7485TIP3    H143870   4.200   5.720   2.705  0.7850  0.2701  1.2707
 7485TIP3    H243871   4.171   5.579   2.750 -1.4825 -0.3703 -1.8312
 7486TIP3   OH243872   2.086   3.917   5.330 -0.5451  0.2521  0.2153
 7486TIP3    H143873   2.008   3.942   5.281 -0.8119  0.2105  0.6109
 7486TIP3    H243874   2.125   3.999   5.357 -0.6265  0.2680  0.2853
 7487TIP3   OH243875   4.192   4.653   2.464  0.0494  0.4020 -0.1442
 7487TIP3    H143876   4.123   4.614   2.411  0.7045  2.8098 -3.0659
 7487TIP3    H243877   4.148   4.720   2.516 -0.2444 -0.3877  0.6581
 7488TIP3   OH243878   6.429   0.908   5.767 -0.1274  0.0582 -0.0069
 7488TIP3    H143879   6.362   0.913   5.699 -0.1515 -0.5366 -0.0251
 7488TIP3    H243880   6.507   0.877   5.722  0.2646  1.0625 -0.0545
 7489TIP3   OH243881   5.289   2.494  13.691  0.2104  0.3213  0.2593
 7489TIP3    H143882   5.282   2.422  13.753  1.6462  0.3990  0.5637
 7489TIP3    H243883   5.325   2.454  13.611  0.4810  0.5871  0.2412
 7490TIP3   OH243884   1.080   6.248   1.838  0.0307 -0.0942 -0.2574
 7490TIP3    H143885   1.145   6.231   1.770 -0.2238  4.5313 -1.9510
 7490TIP3    H243886   1.007   6.189   1.817  0.0041  1.0493 -4.0742
 7491TIP3   OH243887   2.974   6.272   1.484 -0.0446 -0.2766 -0.4078
 7491TIP3    H143888   2.936   6.196   1.440  0.2090 -0.7275  0.1426
 7491TIP3    H243889   3.019   6.319   1.414  2.1125 -2.0743 -0.3695
 7492TIP3   OH243890   0.626   0.853  17.056 -0.2944  0.1794  0.0696
 7492TIP3    H143891   0.560   0.830  17.122 -1.3959  0.8126 -0.7840
 7492TIP3    H243892   0.586   0.828  16.972 -0.4449  2.6837 -0.6831
 7493TIP3   OH243893   2.912   6.576   1.781 -0.2620 -0.1637  0.0383
 7493TIP3    H143894   2.862   6.500   1.751  0.2157 -1.0527  1.3987
 7493TIP3    H243895   2.984   6.584   1.718 -1.4567  0.4796 -1.3181
 7494TIP3   OH243896   0.120   5.721   4.181 -0.6417  0.0141 -0.3654
 7494TIP3    H143897   0.074   5.793   4.225 -2.1050 -0.8351 -0.4308
 7494TIP3    H243898   0.135   5.753   4.092 -2.3008 -0.1488 -0.7336
 7495TIP3   OH243899   2.098   3.829   5.984 -0.1648 -0.1274 -0.2355
 7495TIP3    H143900   2.038   3.819   5.910 -0.4409 -0.2935  0.0075
 7495TIP3    H243901   2.183   3.845   5.944 -0.2828 -0.3667 -0.5921
 7496TIP3   OH243902   1.067   5.310  16.091  0.1661  0.4012  0.4016
 7496TIP3    H143903   1.053   5.224  16.052  1.3912  0.5948 -0.5517
 7496TIP3    H243904   1.084   5.293  16.183  1.7812 -0.5481 -0.0314
 7497TIP3   OH243905   5.155   5.943   0.557 -0.3965 -0.3771  0.1756
 7497TIP3    H143906   5.095   5.983   0.620  1.0774 -0.0371  1.4031
 7497TIP3    H243907   5.127   5.978   0.472 -0.2823  1.9092  1.0147
 7498TIP3   OH243908   3.164   2.487   2.599  0.1028 -0.4581 -0.2348
 7498TIP3    H143909   3.180   2.407   2.549  0.6408 -0.7828  0.4465
 7498TIP3    H243910   3.069   2.499   2.595  0.1302 -0.4287 -1.3961
 7499TIP3   OH243911   4.163   5.177  12.150  0.0972 -0.0275 -0.2399
 7499TIP3    H143912   4.084   5.226  12.130  2.4666  4.3349 -0.1610
 7499TIP3    H243913   4.186   5.134  12.067 -1.3057  0.1912 -0.7732
 7500TIP3   OH243914   2.121   3.114   1.172 -0.3874 -0.4180 -0.1151
 7500TIP3    H143915   2.175   3.192   1.157 -2.8178  1.2008 -0.9273
 7500TIP3    H243916   2.130   3.062   1.092  0.9777 -0.8618  0.2976
 7501TIP3   OH243917   0.040   3.538   3.217  0.2888 -0.0787 -0.4855
 7501TIP3    H143918  -0.053   3.551   3.238  0.9521 -0.1126  3.1157
 7501TIP3    H243919   0.070   3.624   3.189 -0.6613  0.0922 -1.0230
 7502TIP3   OH243920   4.227   1.688  13.780 -0.4170 -0.0237 -0.0240
 7502TIP3    H143921   4.209   1.703  13.687 -0.6636 -1.3806 -0.2209
 7502TIP3    H243922   4.271   1.603  13.782 -1.7540 -0.7253  1.2296
 7503TIP3   OH243923   2.266   4.562   0.312  0.6778 -0.3549  0.3917
 7503TIP3    H143924   2.205   4.490   0.329  0.0591  0.0474 -0.0697
 7503TIP3    H243925   2.257   4.620   0.388 -0.3776  0.2782 -0.1879
 7504TIP3   OH243926   5.137   2.159  12.299 -0.4896 -0.8875  0.6210
 7504TIP3    H143927   5.145   2.064  12.286 -0.5645 -0.9583  1.0802
 7504TIP3    H243928   5.080   2.168  12.375 -1.4698 -0.4515 -0.1372
 7505TIP3   OH243929   5.410   6.211  17.085 -0.4539  0.2213  0.0494
 7505TIP3    H143930   5.476   6.193  17.017  1.5608  0.2472  1.8770
 7505TIP3    H243931   5.376   6.124  17.108 -1.1865  0.2164 -0.9798
 7506TIP3   OH243932   5.528   2.396   2.900 -0.3159  0.3168 -0.5267
 7506TIP3    H143933   5.460   2.446   2.945 -0.6655 -0.3588 -0.2822
 7506TIP3    H243934   5.480   2.346   2.833 -0.1610 -0.6400  0.0554
 7507TIP3   OH243935   5.592   3.524  15.733 -0.3289 -0.1073 -0.5883
 7507TIP3    H143936   5.630   3.459  15.673  0.9801  0.1535 -0.0583
 7507TIP3    H243937   5.639   3.511  15.815 -1.6087  0.0318  0.1919
 7508TIP3   OH243938   6.758   5.433   2.378  0.2517 -0.5254  0.0063
 7508TIP3    H143939   6.675   5.391   2.358  0.0177  1.0112 -2.6570
 7508TIP3    H243940   6.822   5.392   2.320  1.1068 -0.7120  1.0305
 7509TIP3   OH243941   5.218   2.742  13.739  0.1703 -0.0527  0.1396
 7509TIP3    H143942   5.267   2.670  13.700 -1.9659 -1.7737  0.4898
 7509TIP3    H243943   5.154   2.700  13.796 -0.7147  2.1687  0.8987
 7510TIP3   OH243944   2.248   4.697   1.946 -0.4692  0.0457 -0.3028
 7510TIP3    H143945   2.280   4.607   1.934 -2.0845 -0.2174 -3.6964
 7510TIP3    H243946   2.159   4.687   1.980  0.0617  0.5280  1.3570
 7511TIP3   OH243947   1.510   5.716  17.084 -0.9163  0.7571  0.0875
 7511TIP3    H143948   1.496   5.675  17.170 -0.6591 -0.3128 -0.3730
 7511TIP3    H243949   1.540   5.805  17.106  0.7367 -0.0086  1.1533
 7512TIP3   OH243950   3.503   1.741   2.536 -0.0888  0.1217 -0.0769
 7512TIP3    H143951   3.491   1.680   2.463  1.7698 -1.8993  1.1684
 7512TIP3    H243952   3.445   1.708   2.604  0.4245  0.1722  0.3863
 7513TIP3   OH243953   3.066   4.892   3.569 -0.1301 -0.3291 -0.0999
 7513TIP3    H143954   3.113   4.857   3.493 -1.0964 -0.6722 -0.5632
 7513TIP3    H243955   2.975   4.864   3.556 -0.2224 -0.8558  1.4585
 7514TIP3   OH243956   4.322   5.483  12.935  0.4650 -0.0774  0.1562
 7514TIP3    H143957   4.336   5.392  12.906 -0.5399 -0.5629  1.1240
 7514TIP3    H243958   4.282   5.527  12.860  0.2521 -0.6412 -0.0658
 7515TIP3   OH243959   0.350   2.127  15.590 -0.1002  0.0729  0.1325
 7515TIP3    H143960   0.268   2.112  15.543  0.4285  0.0716 -0.8058
 7515TIP3    H243961   0.395   2.043  15.589  1.8617  0.9757 -3.2090
 7516TIP3   OH243962   6.188   6.482   2.518 -0.1728  0.5528 -0.3196
 7516TIP3    H143963   6.232   6.403   2.486 -1.3396 -0.8161  1.2408
 7516TIP3    H243964   6.119   6.499   2.454 -0.8952 -0.6507  0.1035
 7517TIP3   OH243965   4.650   5.362  11.913  0.5533 -0.3061  0.2693
 7517TIP3    H143966   4.742   5.385  11.930  0.8223 -2.4012  2.1647
 7517TIP3    H243967   4.644   5.357  11.818  1.9429  1.4548  0.0189
 7518TIP3   OH243968   5.376   6.265  14.407  0.3243  0.1669  0.7569
 7518TIP3    H143969   5.353   6.356  14.428 -0.4172  0.3786 -0.7556
 7518TIP3    H243970   5.316   6.213  14.459 -0.1586  0.6009  0.6515
 7519TIP3   OH243971   1.120   0.758   5.917  0.4463 -0.1384  0.0811
 7519TIP3    H143972   1.100   0.689   5.854 -2.4587 -2.0279  2.7603
 7519TIP3    H243973   1.132   0.713   6.000  0.7085  2.4512  1.5764
 7520TIP3   OH243974   5.841   4.974  16.955  0.2734 -0.0123  0.3392
 7520TIP3    H143975   5.884   4.948  16.873 -0.6435  0.4353 -0.2991
 7520TIP3    H243976   5.862   5.067  16.964  0.1806 -0.0054  0.4912
 7521TIP3   OH243977   3.708   2.282  14.110 -0.0178  0.0842 -0.0480
 7521TIP3    H143978   3.624   2.244  14.135  0.1857 -2.3089 -2.6161
 7521TIP3    H243979   3.773   2.216  14.133  1.0004  1.1696  0.3062
 7522TIP3   OH243980   3.648   4.170   0.669 -0.0953 -0.4653 -0.0318
 7522TIP3    H143981   3.731   4.217   0.664 -0.5334  0.1835 -1.8696
 7522TIP3    H243982   3.627   4.147   0.578 -1.6388 -1.1303  0.4503
 7523TIP3   OH243983   4.951   1.358   5.280 -0.6262  0.2680 -0.1503
 7523TIP3    H143984   4.962   1.268   5.312 -0.7304  0.3360  0.0751
 7523TIP3    H243985   4.957   1.350   5.185  1.7578  0.3613 -0.0558
 7524TIP3   OH243986   1.767   1.698   2.441 -0.1405  0.7303  0.0474
 7524TIP3    H143987   1.674   1.693   2.419  0.2713  1.8793 -2.2368
 7524TIP3    H243988   1.807   1.622   2.397 -0.0746 -0.3702  1.8797
 7525TIP3   OH243989   3.140   0.793  16.234  0.2655  0.3348 -0.3214
 7525TIP3    H143990   3.166   0.729  16.167  0.3232 -0.8622  0.7894
 7525TIP3    H243991   3.111   0.870  16.184  0.2666 -0.5212 -1.7160
 7526TIP3   OH243992   6.113   5.547  11.168 -0.0132 -0.4180 -0.2129
 7526TIP3    H143993   6.193   5.519  11.124  0.4828 -0.1288  0.4881
 7526TIP3    H243994   6.075   5.613  11.109  1.6949  1.4681  0.6770
 7527TIP3   OH243995   0.750   0.258  14.845  0.1689  0.1275 -0.4333
 7527TIP3    H143996   0.744   0.181  14.790 -0.9238 -0.8326  0.9466
 7527TIP3    H243997   0.661   0.270  14.879  1.0854 -0.3298  2.3724
 7528TIP3   OH243998   1.124   4.275   2.013  0.3858  0.1334  0.7486
 7528TIP3    H143999   1.044   4.260   2.063 -2.2443  1.4059 -2.7047
 7528TIP3    H244000   1.128   4.370   2.001  1.3479 -0.0440 -0.6647
 7529TIP3   OH244001   4.766   2.714   3.410 -0.0253  0.0511  0.2465
 7529TIP3    H144002   4.697   2.659   3.448 -1.1395  0.4589 -1.1151
 7529TIP3    H244003   4.847   2.672   3.438 -0.7755 -0.0251  2.5167
 7530TIP3   OH244004   0.740   6.185  13.577 -0.2560 -0.1971 -0.0055
 7530TIP3    H144005   0.655   6.179  13.621 -0.2812 -0.0675 -0.0372
 7530TIP3    H244006   0.737   6.117  13.510  0.4678 -1.6516  1.3607
 7531TIP3   OH244007   5.695   6.241  16.510  0.2967  0.0363 -0.3885
 7531TIP3    H144008   5.663   6.295  16.437 -1.1106 -0.8117 -0.4257
 7531TIP3    H244009   5.790   6.236  16.496  0.1500  0.5342 -1.7128
 7532TIP3   OH244010   1.809   5.197  12.184 -0.2842  0.5421 -0.3392
 7532TIP3    H144011   1.769   5.276  12.221 -1.3030 -0.6103  1.1598
 7532TIP3    H244012   1.901   5.219  12.173 -0.4856  1.8269  0.3563
 7533TIP3   OH244013   0.481   6.690   4.128  0.5252 -0.1049  0.3281
 7533TIP3    H144014   0.519   6.744   4.197  0.9008 -1.7433  1.4659
 7533TIP3    H244015   0.520   6.603   4.140 -0.0433 -0.6635 -1.4271
 7534TIP3   OH244016   2.279   4.878   0.465 -0.0692  0.3810  0.4790
 7534TIP3    H144017   2.216   4.910   0.529 -1.0644  0.0114 -0.2900
 7534TIP3    H244018   2.296   4.952   0.407  0.6943  0.6641  1.0589
 7535TIP3   OH244019   2.250   0.601  14.407  0.4943 -0.5087 -0.0899
 7535TIP3    H144020   2.218   0.562  14.489  0.5060 -0.0798  0.1198
 7535TIP3    H244021   2.186   0.668  14.386  0.3434 -0.8056 -0.5849
 7536TIP3   OH244022   1.675   5.402  12.289 -1.1452 -0.0541  0.3427
 7536TIP3    H144023   1.757   5.450  12.306 -1.2397 -0.0134  0.6935
 7536TIP3    H244024   1.617   5.468  12.250 -0.3792 -0.5448 -1.7626
 7537TIP3   OH244025   2.090   1.167  11.199 -0.8432 -0.0298 -0.1037
 7537TIP3    H144026   2.108   1.081  11.237 -0.8693 -0.0320 -0.0967
 7537TIP3    H244027   2.046   1.148  11.116 -1.5217 -0.0080  0.2466
 7538TIP3   OH244028   2.284   5.522   4.288 -0.2594 -0.1583  0.0996
 7538TIP3    H144029   2.200   5.551   4.325 -1.0324 -1.0995 -0.8215
 7538TIP3    H244030   2.262   5.440   4.243  1.2371 -0.5766  0.1026
 7539TIP3   OH244031   3.650   0.665   5.734  0.0152  0.3708 -0.4201
 7539TIP3    H144032   3.564   0.660   5.692  0.5224 -1.1346 -1.3448
 7539TIP3    H244033   3.710   0.624   5.672  1.4719  1.6148  0.0914
 7540TIP3   OH244034   5.467   5.457   1.541  0.0441  0.2555 -0.3090
 7540TIP3    H144035   5.384   5.415   1.563  0.0608 -0.1909 -1.0502
 7540TIP3    H244036   5.471   5.534   1.598 -0.8014  0.1988 -0.1537
 7541TIP3   OH244037   3.031   6.381  14.720  0.1994 -0.0213  0.1729
 7541TIP3    H144038   2.972   6.453  14.745  0.4521 -0.1542  1.2053
 7541TIP3    H244039   3.117   6.408  14.753  0.1668 -1.0886  1.1987
 7542TIP3   OH244040   4.438   1.423   0.586 -0.2900  0.1485  0.0447
 7542TIP3    H144041   4.397   1.492   0.638 -0.0763 -0.7140  1.4235
 7542TIP3    H244042   4.373   1.401   0.520 -1.4839 -0.1614  1.2700
 7543TIP3   OH244043   3.795   3.178   5.347  0.4325 -0.1069 -0.2970
 7543TIP3    H144044   3.794   3.097   5.296  0.9339  0.0122 -0.5049
 7543TIP3    H244045   3.828   3.152   5.433 -2.2146 -0.6646  0.6230
 7544TIP3   OH244046   1.949   6.021   3.893 -0.4025  0.3276  0.1628
 7544TIP3    H144047   1.941   5.993   3.802  0.3989 -1.8003  0.6906
 7544TIP3    H244048   1.884   6.091   3.902 -1.3087 -0.2042 -1.7266
 7545TIP3   OH244049   3.665   6.152   1.005  0.4109  0.0411 -0.1648
 7545TIP3    H144050   3.690   6.108   0.924 -0.9685  2.0663 -1.8354
 7545TIP3    H244051   3.729   6.223   1.014 -0.3646  0.7912 -0.4101
 7546TIP3   OH244052   2.493   5.300  15.739  0.3055  0.0921 -0.5331
 7546TIP3    H144053   2.556   5.372  15.752  0.6495 -0.3635  0.4503
 7546TIP3    H244054   2.546   5.228  15.705  0.0018  0.2197 -1.2988
 7547TIP3   OH244055   0.856   0.353   5.614 -0.3023 -0.1655 -0.2186
 7547TIP3    H144056   0.760   0.358   5.612 -0.2614  0.3835 -1.0756
 7547TIP3    H244057   0.882   0.408   5.687 -0.6246 -0.0969 -0.1561
 7548TIP3   OH244058   0.836   4.608   0.747  0.4748 -0.0496  0.2951
 7548TIP3    H144059   0.923   4.586   0.779 -0.1832  0.2709  2.4651
 7548TIP3    H244060   0.776   4.554   0.798 -0.8545  3.0139  2.3011
 7549TIP3   OH244061   5.569   6.187  12.116 -0.0235  0.1661  0.3164
 7549TIP3    H144062   5.641   6.158  12.061  0.5100 -1.0421  1.5975
 7549TIP3    H244063   5.605   6.259  12.168  0.6486 -1.1339  1.7316
 7550TIP3   OH244064   3.150   2.127  11.576 -0.1566  0.8118 -0.1904
 7550TIP3    H144065   3.218   2.071  11.537 -0.9228  0.8418 -1.6532
 7550TIP3    H244066   3.146   2.203  11.519  0.9722  2.4988  1.8631
 7551TIP3   OH244067   0.421   3.221  13.759  0.3218 -0.2973 -0.5658
 7551TIP3    H144068   0.437   3.140  13.808 -0.4528 -0.2978 -0.2967
 7551TIP3    H244069   0.340   3.205  13.712  2.2631 -1.2134 -3.8674
 7552TIP3   OH244070   6.035   1.133   3.406  0.5050  0.1903 -0.3824
 7552TIP3    H144071   5.946   1.147   3.439 -0.3245  0.9881 -2.7344
 7552TIP3    H244072   6.092   1.175   3.471 -1.0432  2.0480 -0.1413
 7553TIP3   OH244073   4.962   6.626   3.467  0.2488 -0.2214  1.0079
 7553TIP3    H144074   4.995   6.537   3.452 -0.2947 -0.1036 -1.2650
 7553TIP3    H244075   4.893   6.637   3.401  0.8376  2.1577  0.6840
 7554TIP3   OH244076   1.199   6.015   5.797 -0.1150  0.8362  0.1051
 7554TIP3    H144077   1.208   6.021   5.892  1.2685 -0.7749  0.1125
 7554TIP3    H244078   1.279   6.054   5.763  1.5584 -2.4522 -0.1904
 7555TIP3   OH244079   2.208   1.463  14.770 -0.0132 -0.1235  0.8198
 7555TIP3    H144080   2.281   1.456  14.709  0.6945  2.1889  1.2891
 7555TIP3    H244081   2.244   1.510  14.846 -1.8096  0.5112  1.3346
 7556TIP3   OH244082   3.317   5.069  16.004 -0.1958  0.0518  0.7012
 7556TIP3    H144083   3.406   5.041  15.983 -0.1102  1.0601 -0.4122
 7556TIP3    H244084   3.323   5.164  16.013 -0.7513 -0.0718  2.8824
 7557TIP3   OH244085   2.388   1.148  11.800 -0.1965 -0.0818  0.5166
 7557TIP3    H144086   2.336   1.176  11.875 -1.1726  0.1664 -0.2373
 7557TIP3    H244087   2.473   1.190  11.814 -1.2559  2.4520  0.0135
 7558TIP3   OH244088   2.836   4.565  13.127  0.0673 -0.2341 -0.1409
 7558TIP3    H144089   2.867   4.646  13.169  0.3501 -1.0236  1.2340
 7558TIP3    H244090   2.894   4.497  13.160 -1.3008 -1.2816  0.2124
 7559TIP3   OH244091   2.485   1.636   6.148  0.1056  0.0506  0.4007
 7559TIP3    H144092   2.396   1.652   6.180  0.3638  0.4637  0.9277
 7559TIP3    H244093   2.530   1.719   6.159  0.5878 -0.1841  0.2286
 7560TIP3   OH244094   1.243   0.619   4.525  0.1895 -0.4985  0.0996
 7560TIP3    H144095   1.285   0.621   4.611  1.9829  0.1522 -0.7407
 7560TIP3    H244096   1.311   0.590   4.465 -0.2274  1.5227 -1.4939
 7561TIP3   OH244097   3.082   4.038   0.009 -0.2783  0.1641 -0.2543
 7561TIP3    H144098   3.098   4.005  -0.079 -0.1704 -0.4312 -0.0144
 7561TIP3    H244099   3.056   3.961   0.060  0.3412  0.3786  0.4039
 7562TIP3   OH244100   1.273   3.765  15.358  0.1943 -0.5652 -0.6169
 7562TIP3    H144101   1.246   3.856  15.367  0.5043 -0.4346 -0.9874
 7562TIP3    H244102   1.288   3.736  15.448 -1.7651 -0.8386 -0.3371
 7563TIP3   OH244103   5.996   2.388  11.546  0.4997  0.3471  0.3584
 7563TIP3    H144104   6.031   2.304  11.574  2.2643  0.6652 -0.7353
 7563TIP3    H244105   6.045   2.453  11.596 -0.3517  0.7609  0.6771
 7564TIP3   OH244106   0.913   2.087   4.273  0.3823  0.0007  0.4245
 7564TIP3    H144107   0.861   2.155   4.232  2.2794  2.2480  1.5272
 7564TIP3    H244108   0.849   2.034   4.321 -1.2367  0.4169 -1.1608
 7565TIP3   OH244109   6.396   5.470  16.809 -0.9559 -0.7307 -0.1480
 7565TIP3    H144110   6.389   5.480  16.904 -0.6941  1.8342 -0.3252
 7565TIP3    H244111   6.455   5.396  16.797 -0.4357 -0.6681  1.7080
 7566TIP3   OH244112   0.389   6.415  14.607  0.3660 -0.2614  0.3002
 7566TIP3    H144113   0.336   6.447  14.534  1.8472 -1.4050 -1.3620
 7566TIP3    H244114   0.477   6.447  14.589  1.0758 -1.8606  0.7229
 7567TIP3   OH244115   0.992   1.783  11.660 -0.3003 -0.2580 -0.3923
 7567TIP3    H144116   1.062   1.805  11.598 -1.2617 -0.0333 -1.4214
 7567TIP3    H244117   0.964   1.695  11.633 -0.4302 -0.3406  0.0113
 7568TIP3   OH244118   2.447   5.709  16.732 -0.1605  0.1924  0.4933
 7568TIP3    H144119   2.539   5.709  16.705  0.0267  1.6207  0.9979
 7568TIP3    H244120   2.398   5.702  16.650  0.4040  2.1682 -0.0860
 7569TIP3   OH244121   0.855   0.879  11.810 -0.3520  0.0518 -0.0470
 7569TIP3    H144122   0.832   0.946  11.874  1.2770  1.0891 -0.4905
 7569TIP3    H244123   0.834   0.796  11.854 -0.7215  0.7897  1.2160
 7570TIP3   OH244124   4.422   2.836  15.326 -0.3274  0.1276  0.0620
 7570TIP3    H144125   4.368   2.839  15.248  0.4482  0.8246 -0.4722
 7570TIP3    H244126   4.382   2.769  15.382 -0.3627 -1.0550 -1.3264
 7571TIP3   OH244127   5.839   3.693  12.990  0.3299  0.5011  0.4166
 7571TIP3    H144128   5.753   3.736  12.995 -0.2413  0.1149 -3.1726
 7571TIP3    H244129   5.896   3.758  12.949  1.2997  0.1168  1.1065
 7572TIP3   OH244130   0.594   1.208  13.621  0.5053  0.4452 -0.5232
 7572TIP3    H144131   0.609   1.124  13.662  1.2782  0.6223 -0.4178
 7572TIP3    H244132   0.510   1.199  13.576 -0.8905  0.5860  1.9219
 7573TIP3   OH244133   5.005   1.870   3.754  0.0710  0.2980  0.2793
 7573TIP3    H144134   4.923   1.904   3.718 -0.3868  0.2783  1.2708
 7573TIP3    H244135   4.980   1.789   3.798  0.3215  1.1099  1.9754
 7574TIP3   OH244136   6.321   2.655  16.819  0.1246  0.4775 -0.7214
 7574TIP3    H144137   6.299   2.658  16.912  0.1427 -0.5116 -0.6777
 7574TIP3    H244138   6.370   2.736  16.803  1.1145  0.1186  0.3904
 7575TIP3   OH244139   3.754   4.294  11.353  0.2544 -0.4438  0.6473
 7575TIP3    H144140   3.832   4.321  11.402  0.3688  2.1169 -0.8205
 7575TIP3    H244141   3.681   4.328  11.403  0.0216 -2.3940  1.7415
 7576TIP3   OH244142   2.744   1.929   4.952  0.5482 -0.2498  0.7989
 7576TIP3    H144143   2.732   1.964   4.864 -0.5208 -2.0898  0.1750
 7576TIP3    H244144   2.687   1.983   5.007 -0.6276 -0.5841 -0.0456
 7577TIP3   OH244145   3.402   0.430   1.872 -1.0818 -0.1309  0.7754
 7577TIP3    H144146   3.333   0.405   1.811  0.3058  1.2987 -1.5311
 7577TIP3    H244147   3.446   0.348   1.895 -1.5917 -0.6976 -0.2212
 7578TIP3   OH244148   2.647   1.548  15.148 -0.3056  0.0294 -0.1348
 7578TIP3    H144149   2.569   1.591  15.182 -0.0706  0.7148 -0.4464
 7578TIP3    H244150   2.711   1.618  15.138  0.1820 -0.4398 -0.3778
 7579TIP3   OH244151   1.930   4.410  15.218  0.7629 -0.3518 -0.5374
 7579TIP3    H144152   1.849   4.455  15.242  0.1702 -1.5249 -0.2566
 7579TIP3    H244153   1.998   4.457  15.266  0.1964  0.3864 -0.4356
 7580TIP3   OH244154   4.672   6.154  11.698  0.0248  0.5437  0.1708
 7580TIP3    H144155   4.586   6.124  11.730  0.5305 -0.9934  0.1657
 7580TIP3    H244156   4.653   6.193  11.612 -0.5143 -1.1056 -0.5091
 7581TIP3   OH244157   3.700   5.503  15.888  0.0785 -0.5275  0.1011
 7581TIP3    H144158   3.635   5.570  15.868  1.2545  0.2134 -1.4298
 7581TIP3    H244159   3.685   5.434  15.823  0.3207 -0.7093  0.2355
 7582TIP3   OH244160   5.099   0.871   1.433 -0.0685 -0.3898  0.3067
 7582TIP3    H144161   5.132   0.782   1.417  2.0969 -0.2477  3.1781
 7582TIP3    H244162   5.033   0.884   1.365  1.1035 -3.3283 -1.6283
 7583TIP3   OH244163   0.396   6.028   1.228 -0.0933 -0.1930 -0.0846
 7583TIP3    H144164   0.401   6.107   1.175  1.1190 -0.2766 -0.1204
 7583TIP3    H244165   0.341   5.968   1.177 -1.8956  0.9590  0.4229
 7584TIP3   OH244166   5.870   3.641  16.158 -0.4620  0.0395 -0.0478
 7584TIP3    H144167   5.914   3.725  16.148  3.5069 -2.0523 -2.2564
 7584TIP3    H244168   5.898   3.610  16.244  0.2091 -0.1250 -0.3224
 7585TIP3   OH244169   5.929   0.118   0.354 -0.6273 -0.3992  0.1184
 7585TIP3    H144170   6.004   0.109   0.295 -0.5069  0.3655  0.1466
 7585TIP3    H244171   5.949   0.195   0.407 -0.7135 -1.1050  1.2028
 7586TIP3   OH244172   4.714   1.938   0.727  0.0880  0.4422  0.8720
 7586TIP3    H144173   4.793   1.972   0.685  0.6986 -1.9841 -0.1469
 7586TIP3    H244174   4.747   1.870   0.786 -1.2103 -0.3487  0.7118
 7587TIP3   OH244175   2.107   5.740   5.414 -0.4160 -0.0813  0.3701
 7587TIP3    H144176   2.012   5.745   5.429 -0.2781  0.5366  1.1232
 7587TIP3    H244177   2.129   5.649   5.435 -0.8109 -0.1685  0.4276
 7588TIP3   OH244178   3.452   2.558  13.860  0.0637  0.1669 -0.1422
 7588TIP3    H144179   3.368   2.518  13.837 -1.3816  2.3262  1.0161
 7588TIP3    H244180   3.457   2.637  13.805  0.1199  1.3682  1.5096
 7589TIP3   OH244181   3.896   2.588   4.599  0.4781  0.1019  0.2079
 7589TIP3    H144182   3.985   2.614   4.622  1.0650 -2.3508  0.8964
 7589TIP3    H244183   3.904   2.544   4.514 -0.4570  1.7129 -0.7866
 7590TIP3   OH244184   4.848   2.480  15.238 -0.3118  0.2622 -0.1494
 7590TIP3    H144185   4.759   2.511  15.217 -0.9121 -1.5638 -0.4978
 7590TIP3    H244186   4.905   2.545  15.197 -1.4985 -0.2585 -2.8721
 7591TIP3   OH244187   6.674   6.397  14.945 -0.0731 -0.7285  0.3998
 7591TIP3    H144188   6.680   6.414  14.851 -2.3230 -0.0149  0.3267
 7591TIP3    H244189   6.590   6.352  14.956 -0.0908 -0.3425  2.1097
 7592TIP3   OH244190   4.824   2.613  16.298  0.1403 -0.4510  0.0932
 7592TIP3    H144191   4.864   2.566  16.371 -0.6141 -1.0647  0.1283
 7592TIP3    H244192   4.743   2.564  16.279 -0.2336  0.3441 -0.4296
 7593TIP3   OH244193   4.428   1.760  17.228  0.0496  0.3666  0.0995
 7593TIP3    H144194   4.501   1.702  17.251 -1.2690 -1.3854  0.1017
 7593TIP3    H244195   4.370   1.756  17.304 -1.7629 -1.1743 -1.2702
 7594TIP3   OH244196   1.083   5.447  15.233  0.0140  0.6913 -0.3799
 7594TIP3    H144197   1.088   5.529  15.282 -0.8761 -0.3404  1.5152
 7594TIP3    H244198   1.109   5.380  15.296 -0.1743 -0.5935 -1.6317
 7595TIP3   OH244199   2.209   3.096  15.999 -0.0649 -0.2488  0.9508
 7595TIP3    H144200   2.221   3.018  16.052  1.3491 -0.2405  0.6878
 7595TIP3    H244201   2.206   3.168  16.062 -0.4913 -0.4376  1.1430
 7596TIP3   OH244202   6.086   2.344   2.720  0.0612  0.0329 -0.5000
 7596TIP3    H144203   6.030   2.410   2.678 -0.2106  0.3619  0.3406
 7596TIP3    H244204   6.172   2.385   2.725 -0.1187  0.3477  0.0626
 7597TIP3   OH244205   5.555   1.956   1.204  0.3710 -0.0421 -0.6073
 7597TIP3    H144206   5.507   1.942   1.286  0.8645 -1.1698 -0.4848
 7597TIP3    H244207   5.608   2.034   1.221  1.2096 -0.8161  0.5347
 7598TIP3   OH244208   3.791   1.494  11.089  0.4616 -1.0214  0.5520
 7598TIP3    H144209   3.742   1.447  11.022  0.2747 -1.3659  0.9246
 7598TIP3    H244210   3.725   1.545  11.136  0.7898  0.4369 -0.4921
 7599TIP3   OH244211   0.932   3.965   5.640 -0.0246  0.3658  0.0552
 7599TIP3    H144212   0.875   3.978   5.717 -0.3100  0.9493 -0.2506
 7599TIP3    H244213   0.937   3.870   5.631  1.4706  0.2091  1.8597
 7600TIP3   OH244214   6.058   1.322   2.611  0.2633  0.6552 -0.0440
 7600TIP3    H144215   6.043   1.315   2.706 -0.5471  1.4030 -0.1002
 7600TIP3    H244216   6.149   1.349   2.603  0.2273  0.9865  0.5532
 7601TIP3   OH244217   0.957   2.602  16.591 -0.1042 -0.1314 -0.3142
 7601TIP3    H144218   0.964   2.602  16.687  0.8045  0.1665 -0.3658
 7601TIP3    H244219   0.935   2.512  16.569 -2.2430  0.1910  0.2700
 7602TIP3   OH244220   1.636   1.212  10.855  0.2127  0.0466  0.2631
 7602TIP3    H144221   1.729   1.235  10.853  0.4241 -0.8259 -0.7861
 7602TIP3    H244222   1.602   1.244  10.772 -0.3415  0.0207  0.4802
 7603TIP3   OH244223   3.489   3.682   0.765 -0.0643 -0.6820 -0.0767
 7603TIP3    H144224   3.426   3.687   0.838 -0.7962  2.2436 -0.7863
 7603TIP3    H244225   3.575   3.684   0.808 -0.4808  0.2087  0.7663
 7604TIP3   OH244226   0.299   1.211  16.330 -0.8050  0.2077  0.6196
 7604TIP3    H144227   0.219   1.159  16.329 -1.6263  1.4219 -0.0012
 7604TIP3    H244228   0.301   1.252  16.243  0.3704  0.3788  0.7180
 7605TIP3   OH244229   2.734   3.019  13.457  0.5910 -0.9404 -0.0432
 7605TIP3    H144230   2.647   2.981  13.459  0.4772 -0.9007 -2.0212
 7605TIP3    H244231   2.787   2.962  13.513 -0.4094 -1.7027  0.1547
 7606TIP3   OH244232   5.985   0.722   4.798 -0.0762  0.0326  0.7625
 7606TIP3    H144233   5.911   0.750   4.744 -1.0443 -0.7618  1.6376
 7606TIP3    H244234   5.945   0.681   4.875  1.2768 -0.3875  1.2791
 7607TIP3   OH244235   6.715   1.501   4.449 -0.4733  0.1783 -0.3210
 7607TIP3    H144236   6.691   1.502   4.541 -0.4129 -0.1679 -0.3000
 7607TIP3    H244237   6.787   1.438   4.444 -0.4113  0.2699 -0.5866
 7608TIP3   OH244238   1.974   0.747  15.124 -0.0826 -0.1696 -0.2068
 7608TIP3    H144239   1.904   0.736  15.061  0.8670 -2.8133 -0.9130
 7608TIP3    H244240   2.054   0.754  15.071  0.5163 -0.4666  0.6287
 7609TIP3   OH244241   0.022   1.471   3.031 -0.3039  0.3553  1.0182
 7609TIP3    H144242  -0.026   1.494   2.951 -1.1654  0.1742  1.4691
 7609TIP3    H244243  -0.007   1.382   3.051  0.0344  0.3386  1.4358
 7610TIP3   OH244244   2.154   0.794  14.142  0.4041 -0.0813 -0.5076
 7610TIP3    H144245   2.085   0.754  14.089 -1.0880 -0.1459  1.3671
 7610TIP3    H244246   2.142   0.888  14.130 -0.1543 -0.0880 -0.0370
 7611TIP3   OH244247   5.613   3.884  12.550  0.1576  0.0981  0.1107
 7611TIP3    H144248   5.598   3.959  12.493  1.6618 -0.0623 -0.5377
 7611TIP3    H244249   5.554   3.816  12.517 -0.9878  0.8750  0.5090
 7612TIP3   OH244250   3.204   3.918  16.828  0.4107 -0.2592  0.5644
 7612TIP3    H144251   3.145   3.946  16.898  0.1755 -0.4726  0.4512
 7612TIP3    H244252   3.151   3.861  16.772 -0.0214  1.5179 -0.9528
 7613TIP3   OH244253   5.986   6.281  16.500 -0.7352 -0.1366 -0.3256
 7613TIP3    H144254   6.068   6.299  16.454 -0.9397  0.4334 -0.4700
 7613TIP3    H244255   5.970   6.359  16.552 -0.0193 -1.1180  1.4768
 7614TIP3   OH244256   1.630   1.150  13.801  0.1620 -0.4022  0.3890
 7614TIP3    H144257   1.657   1.065  13.766 -0.4773 -0.2819 -0.4355
 7614TIP3    H244258   1.536   1.154  13.782  0.1558  0.4082  0.5815
 7615TIP3   OH244259   3.728   0.804   0.356  0.6485 -0.0377 -0.1458
 7615TIP3    H144260   3.802   0.780   0.301 -1.4195 -2.5153 -2.1044
 7615TIP3    H244261   3.735   0.747   0.433  0.7544 -0.3318 -0.3711
 7616TIP3   OH244262   4.921   6.045   0.021  0.2578 -0.1390  0.0141
 7616TIP3    H144263   4.893   5.973  -0.035  1.1026 -0.0488 -0.5398
 7616TIP3    H244264   4.845   6.102   0.027  0.3513  0.1789 -1.5682
 7617TIP3   OH244265   5.277   6.486  14.523 -0.4748 -0.0816  0.0068
 7617TIP3    H144266   5.217   6.534  14.581 -0.5772  0.1909 -0.3210
 7617TIP3    H244267   5.318   6.553  14.469 -0.0678 -0.2946  0.0475
 7618TIP3   OH244268   0.459   6.290  12.615  0.3599  0.6550  0.3181
 7618TIP3    H144269   0.401   6.284  12.538  0.3422  2.2955  0.1690
 7618TIP3    H244270   0.441   6.210  12.664 -1.0282  0.4595 -0.4373
 7619TIP3   OH244271   5.754   5.016  11.613 -0.1452  0.5197  0.6526
 7619TIP3    H144272   5.789   4.955  11.548 -1.6332  1.8039 -1.4883
 7619TIP3    H244273   5.704   4.961  11.674  1.9362 -0.8046  1.2877
 7620TIP3   OH244274   1.225   4.985   1.352  0.8812  0.5642  0.0883
 7620TIP3    H144275   1.306   5.036   1.348  0.9240  0.4869 -0.0343
 7620TIP3    H244276   1.223   4.936   1.270  1.5666 -0.7239  0.8207
 7621TIP3   OH244277   4.193   1.984  12.999  0.6939  0.2734  0.1952
 7621TIP3    H144278   4.182   1.889  13.006  2.7686  0.0269  0.7719
 7621TIP3    H244279   4.169   2.017  13.086  0.6701  0.2019  0.2162
 7622TIP3   OH244280   1.740   2.941   3.180  0.4664 -0.0927 -0.2508
 7622TIP3    H144281   1.746   2.870   3.116  0.4158  0.2341 -0.6232
 7622TIP3    H244282   1.750   2.898   3.265 -0.2930 -0.6406 -0.4285
 7623TIP3   OH244283   6.587   1.349  13.499  1.0428 -0.6106 -0.6288
 7623TIP3    H144284   6.552   1.263  13.474 -0.3808  0.1842 -1.5388
 7623TIP3    H244285   6.534   1.375  13.574 -0.1563  0.4650 -1.8112
 7624TIP3   OH244286   3.201   1.678  13.069 -0.5297  0.2719 -0.4069
 7624TIP3    H144287   3.107   1.677  13.083 -0.2302  1.0175  2.0854
 7624TIP3    H244288   3.239   1.689  13.156  1.8424  0.8736 -1.4155
 7625TIP3   OH244289   6.333   5.431   5.069 -0.7449  0.2536 -0.6858
 7625TIP3    H144290   6.276   5.360   5.097  0.8500 -0.5147  0.7872
 7625TIP3    H244291   6.358   5.409   4.979  0.2428 -1.4460 -0.0338
 7626TIP3   OH244292   5.151   6.757   5.896 -0.3702  0.1232  0.0184
 7626TIP3    H144293   5.061   6.751   5.928 -0.9054  1.5221 -1.1099
 7626TIP3    H244294   5.175   6.667   5.875 -2.1872 -0.1023 -1.3860
 7627TIP3   OH244295   2.309   2.073   3.708  0.1532 -0.2209  0.3529
 7627TIP3    H144296   2.233   2.018   3.688  1.4694 -1.6244 -1.0639
 7627TIP3    H244297   2.300   2.093   3.801 -0.9098 -2.0201  0.6845
 7628TIP3   OH244298   0.445   0.200  15.596  0.1944  0.3095  0.4163
 7628TIP3    H144299   0.497   0.129  15.633 -0.7487  0.6184  2.4622
 7628TIP3    H244300   0.465   0.198  15.502  2.8388 -0.4234  0.9101
 7629TIP3   OH244301   5.724   0.192  16.441  0.3348  0.6124 -0.1500
 7629TIP3    H144302   5.748   0.244  16.365 -0.8902  0.0858 -0.9234
 7629TIP3    H244303   5.757   0.104  16.422  1.4342  0.8267  0.6641
 7630TIP3   OH244304   4.351   4.394  12.971 -0.1341  0.2839 -0.2553
 7630TIP3    H144305   4.386   4.322  13.024 -0.4314 -0.6995 -1.3363
 7630TIP3    H244306   4.256   4.381  12.974 -0.3026  1.5897  0.8188
 7631TIP3   OH244307   5.348   3.728   2.500  0.8298  0.6839 -0.1004
 7631TIP3    H144308   5.296   3.650   2.519 -2.2947  2.7583  0.5423
 7631TIP3    H244309   5.381   3.713   2.411 -1.0324 -0.7261 -0.6271
 7632TIP3   OH244310   0.928   4.990   5.691  0.1719  0.2926 -0.3400
 7632TIP3    H144311   1.007   5.007   5.639  1.6105 -0.2438  1.5490
 7632TIP3    H244312   0.925   4.894   5.698  0.2953  0.3666  0.9350
 7633TIP3   OH244313   1.374   3.124  14.303 -0.1849 -0.6190 -0.1529
 7633TIP3    H144314   1.370   3.161  14.391 -0.6909 -2.8047  0.8022
 7633TIP3    H244315   1.462   3.088  14.295 -0.3425 -0.9870 -0.2819
 7634TIP3   OH244316   1.616   3.474  11.155  0.1161 -0.3046 -0.0497
 7634TIP3    H144317   1.708   3.470  11.129  0.0297 -1.5056 -0.2495
 7634TIP3    H244318   1.570   3.510  11.079  0.1016 -2.1313 -0.9636
 7635TIP3   OH244319   0.121   3.004   5.921  0.8232  0.6456 -0.0550
 7635TIP3    H144320   0.109   2.940   5.850  4.4467  0.3498 -0.6271
 7635TIP3    H244321   0.061   2.975   5.989 -0.9212 -0.6417 -1.9843
 7636TIP3   OH244322   6.227   4.782  12.755 -0.5143  0.5846 -0.3705
 7636TIP3    H144323   6.171   4.858  12.772 -0.7692  0.2813  0.1497
 7636TIP3    H244324   6.214   4.764  12.661 -1.2209  0.5833 -0.2845
 7637TIP3   OH244325   0.627   1.442   1.965  0.1567 -0.3071  0.6165
 7637TIP3    H144326   0.575   1.517   1.935  0.1681  0.6895  2.8677
 7637TIP3    H244327   0.581   1.365   1.930 -1.2057  0.6621  0.1833
 7638TIP3   OH244328   1.072   4.533   1.106  0.0324 -0.1715  0.2635
 7638TIP3    H144329   1.119   4.457   1.140 -0.0056 -0.4055 -0.1966
 7638TIP3    H244330   1.098   4.538   1.014 -1.4017 -0.7628 -0.2162
 7639TIP3   OH244331   5.770   5.332   3.776  0.0901  0.0726 -0.3791
 7639TIP3    H144332   5.814   5.332   3.861  0.9220  0.1343 -0.8031
 7639TIP3    H244333   5.677   5.321   3.797  0.2782  0.1865  0.5401
 7640TIP3   OH244334   1.302   3.712   0.206  0.1470  0.2941 -0.3549
 7640TIP3    H144335   1.293   3.790   0.261  1.0334  0.4871 -0.4629
 7640TIP3    H244336   1.354   3.651   0.259 -1.6552 -0.7872  0.2822
 7641TIP3   OH244337   5.072   4.443   2.501  0.5331 -0.1308  0.1621
 7641TIP3    H144338   5.099   4.384   2.431 -0.0240 -0.3278  0.1092
 7641TIP3    H244339   5.027   4.387   2.564 -0.0401  0.2376  0.0879
 7642TIP3   OH244340   4.243   1.732  15.946 -0.2112  0.2306 -0.6422
 7642TIP3    H144341   4.184   1.737  16.020  1.4790  0.5601  0.7518
 7642TIP3    H244342   4.215   1.654  15.898 -0.8301 -0.4738  0.8076
 7643TIP3   OH244343   1.126   3.151  11.638 -0.0153  0.2576 -0.5010
 7643TIP3    H144344   1.111   3.208  11.563  2.0464  0.8772 -0.4988
 7643TIP3    H244345   1.215   3.172  11.667 -0.3463 -0.7637  1.4297
 7644TIP3   OH244346   1.880   3.233  13.884 -0.0808  0.1638  0.0603
 7644TIP3    H144347   1.844   3.275  13.962 -0.1371  1.7744 -0.8041
 7644TIP3    H244348   1.815   3.247  13.817 -1.0467 -3.0713  0.1516
 7645TIP3   OH244349   0.420   6.363   2.831 -0.4205  0.0988  0.3799
 7645TIP3    H144350   0.485   6.412   2.881  0.2447  0.2473 -0.5936
 7645TIP3    H244351   0.452   6.273   2.831 -0.2005  0.1730 -0.1066
 7646TIP3   OH244352   0.859   3.345   4.884 -0.4640  0.3182 -0.2052
 7646TIP3    H144353   0.766   3.364   4.872  0.1331  3.7878 -0.1225
 7646TIP3    H244354   0.900   3.369   4.801  0.4948 -0.5778 -0.0243
 7647TIP3   OH244355   4.061   3.944   0.889  1.1053 -0.2569  0.1358
 7647TIP3    H144356   4.045   3.855   0.920 -1.5683  0.4421  1.0491
 7647TIP3    H244357   4.053   3.998   0.967  0.3350  0.9846 -0.7673
 7648TIP3   OH244358   3.202   5.089  14.581 -0.2894  0.3539  0.3969
 7648TIP3    H144359   3.162   5.117  14.663  0.8818  0.7275  0.8688
 7648TIP3    H244360   3.165   5.147  14.515 -0.6315  0.5923  0.7939
 7649TIP3   OH244361   3.395   0.784  10.664  0.3766  0.0624 -0.3263
 7649TIP3    H144362   3.388   0.869  10.620  1.0123 -0.2007 -0.9522
 7649TIP3    H244363   3.334   0.791  10.738  1.6162  1.6555  0.6227
 7650TIP3   OH244364   5.429   0.974   5.411  0.9129  0.7332 -0.3987
 7650TIP3    H144365   5.477   0.900   5.450  1.1719  2.5105  2.9553
 7650TIP3    H244366   5.371   0.933   5.346 -0.3192 -2.7107  2.5588
 7651TIP3   OH244367   2.213   3.208   3.003  0.1461 -0.1330  0.3468
 7651TIP3    H144368   2.225   3.220   3.098 -0.8776 -0.7730  0.5648
 7651TIP3    H244369   2.134   3.258   2.982  0.3424 -0.0330 -0.1685
 7652TIP3   OH244370   5.278   0.349  16.404 -0.2691  0.5589  0.2137
 7652TIP3    H144371   5.194   0.375  16.366 -0.3494  1.1084  0.7473
 7652TIP3    H244372   5.278   0.390  16.491 -0.6560 -1.6737  1.3484
 7653TIP3   OH244373   0.652   5.054   1.381 -0.7192  0.3446  0.0478
 7653TIP3    H144374   0.696   5.125   1.428  1.9727 -1.4236  0.4280
 7653TIP3    H244375   0.689   5.059   1.292 -1.3636  0.0882 -0.2384
 7654TIP3   OH244376   0.278   0.163   3.171 -0.5076 -0.0535 -0.6607
 7654TIP3    H144377   0.370   0.156   3.197 -0.6780  1.1884  0.3836
 7654TIP3    H244378   0.276   0.236   3.109 -0.7485 -0.2564 -0.8915
 7655TIP3   OH244379   4.144   6.084   1.438 -0.4161 -0.2265 -0.1895
 7655TIP3    H144380   4.153   6.009   1.497 -2.7423  0.5311  1.2437
 7655TIP3    H244381   4.211   6.146   1.468  0.5407 -1.1112 -0.4394
 7656TIP3   OH244382   5.654   5.509   2.400  0.2489 -0.6887  0.0752
 7656TIP3    H144383   5.723   5.453   2.437  1.2609 -0.3486 -1.2078
 7656TIP3    H244384   5.591   5.520   2.471  1.4458 -1.1333  1.2497
 7657TIP3   OH244385   6.430   0.022   3.609 -0.7856  0.3767 -0.3568
 7657TIP3    H144386   6.518  -0.010   3.631 -1.2902  0.4812  2.0355
 7657TIP3    H244387   6.432   0.115   3.630 -1.3093  0.5079 -0.8594
 7658TIP3   OH244388   0.205   3.672   4.695 -0.1382  0.5774 -0.5033
 7658TIP3    H144389   0.120   3.694   4.732 -0.2219  1.1078 -0.9817
 7658TIP3    H244390   0.220   3.739   4.628  1.3896  1.4807  0.6681
 7659TIP3   OH244391   4.762   5.253   2.789  0.0076 -0.2177 -0.1073
 7659TIP3    H144392   4.786   5.331   2.739 -0.9655  1.8019  2.3666
 7659TIP3    H244393   4.842   5.229   2.836  0.5255 -1.2587 -1.4531
 7660TIP3   OH244394   5.079   3.740  17.315 -0.4557 -0.2144  0.4193
 7660TIP3    H144395   5.122   3.710  17.395 -0.6932 -1.2726  0.1666
 7660TIP3    H244396   5.057   3.660  17.268 -1.4317  0.3518 -0.1257
 7661TIP3   OH244397   2.475   5.783  11.861  0.4476  0.0763 -0.4654
 7661TIP3    H144398   2.529   5.857  11.888 -0.0453  1.3183 -2.6339
 7661TIP3    H244399   2.389   5.821  11.844 -0.4606 -1.4307  0.5241
 7662TIP3   OH244400   2.046   1.519   6.326 -0.9210 -0.3486  0.5325
 7662TIP3    H144401   2.116   1.455   6.311 -2.3226 -2.2209  1.5862
 7662TIP3    H244402   2.063   1.588   6.262  0.8737 -1.5765 -0.4160
 7663TIP3   OH244403   4.994   6.304  12.727 -0.1948  0.1531 -0.4553
 7663TIP3    H144404   4.928   6.293  12.658  0.3686 -0.0200 -0.9749
 7663TIP3    H244405   4.965   6.247  12.798 -0.7844  0.3389 -0.5400
 7664TIP3   OH244406   1.416   5.789   1.705  0.2577 -0.5793 -0.7709
 7664TIP3    H144407   1.338   5.836   1.736  0.4527  0.0681 -1.2163
 7664TIP3    H244408   1.400   5.777   1.611 -0.2968 -2.4388 -0.4615
 7665TIP3   OH244409   1.797   1.017   0.799 -0.2669  0.3528  0.0195
 7665TIP3    H144410   1.787   1.020   0.894 -1.8168  0.4291 -0.1157
 7665TIP3    H244411   1.864   0.950   0.784 -2.8003 -2.6985  1.0696
 7666TIP3   OH244412   1.556   0.763   2.464  0.4747  0.2821  0.4528
 7666TIP3    H144413   1.490   0.729   2.525  0.1878 -0.0740 -0.0489
 7666TIP3    H244414   1.523   0.850   2.441 -0.3165 -0.2605 -0.5148
 7667TIP3   OH244415   6.100   4.083  13.124  0.2420 -0.8739 -0.1358
 7667TIP3    H144416   6.097   4.176  13.101 -0.4766 -0.8460  0.0335
 7667TIP3    H244417   6.020   4.069  13.175  2.2317 -0.6876  3.3455
 7668TIP3   OH244418   2.979   5.694   1.899 -0.4217  0.3563  0.3180
 7668TIP3    H144419   2.999   5.626   1.963 -0.5391  0.4959  0.5078
 7668TIP3    H244420   2.893   5.727   1.926 -1.6294 -1.2418 -1.3669
 7669TIP3   OH244421   3.690   3.731   0.950  0.0165 -0.0864 -0.1022
 7669TIP3    H144422   3.700   3.826   0.956 -0.3905  0.0890 -1.8105
 7669TIP3    H244423   3.716   3.699   1.037  0.8150  1.5157  0.2890
 7670TIP3   OH244424   0.466   5.004  15.738 -0.0969  0.0417  0.2800
 7670TIP3    H144425   0.455   5.062  15.663  0.4109 -0.5492 -0.2659
 7670TIP3    H244426   0.385   5.014  15.788 -0.3861  0.5445 -0.2744
 7671TIP3   OH244427   5.032   2.358   5.758 -0.3721  0.2337 -0.1131
 7671TIP3    H144428   5.037   2.323   5.847  1.3789  0.4045 -0.1053
 7671TIP3    H244429   4.939   2.375   5.744 -0.6126  1.0010  1.9962
 7672TIP3   OH244430   3.702   4.534   0.800 -0.0101 -0.0265  0.0798
 7672TIP3    H144431   3.701   4.629   0.791  1.7507 -0.0628 -0.8933
 7672TIP3    H244432   3.670   4.502   0.716 -0.3237 -0.3073  0.3041
 7673TIP3   OH244433   6.425   1.684   4.596  0.7905 -0.2832 -0.0636
 7673TIP3    H144434   6.387   1.598   4.614  2.5958 -1.1708 -0.2572
 7673TIP3    H244435   6.387   1.711   4.513  1.0481 -1.4443 -0.5826
 7674TIP3   OH244436   2.697   1.595   0.344  0.0372 -0.2265  0.0953
 7674TIP3    H144437   2.624   1.605   0.283  1.4024 -0.9612 -1.7401
 7674TIP3    H244438   2.668   1.528   0.406 -0.3883 -1.4500 -1.3760
 7675TIP3   OH244439   4.578   3.745  14.481  0.0417 -0.4501  0.4443
 7675TIP3    H144440   4.543   3.786  14.561  0.0013  1.2434 -0.4036
 7675TIP3    H244441   4.593   3.818  14.421 -1.8481 -1.8331 -1.8778
 7676TIP3   OH244442   0.200   2.534  14.504 -0.7032  1.1380 -0.4757
 7676TIP3    H144443   0.205   2.629  14.497  2.3459  1.1673  0.5207
 7676TIP3    H244444   0.284   2.509  14.543 -0.9603 -2.0689 -1.7078
 7677TIP3   OH244445   0.644   1.034  11.307  0.5155  0.1770  0.1636
 7677TIP3    H144446   0.674   0.978  11.378  1.7845 -1.6206 -1.6527
 7677TIP3    H244447   0.705   1.016  11.235 -1.6695  0.5957 -1.9332
 7678TIP3   OH244448   2.096   0.782  16.950 -0.4657 -0.2352 -0.4458
 7678TIP3    H144449   2.154   0.742  17.014 -0.1255  0.0668 -0.5614
 7678TIP3    H244450   2.109   0.877  16.961 -1.7682 -0.1254  0.2970
 7679TIP3   OH244451   2.636   6.019   2.302  0.1378  0.4941 -0.0951
 7679TIP3    H144452   2.717   6.069   2.312  1.1352 -1.1512  0.4036
 7679TIP3    H244453   2.624   6.012   2.207  0.9398  0.2344 -0.1862
 7680TIP3   OH244454   2.899   1.531   5.763  0.0948 -0.2895 -0.0250
 7680TIP3    H144455   2.940   1.565   5.843  2.1364 -0.8935 -0.7672
 7680TIP3    H244456   2.806   1.551   5.774  0.4577  0.5112  2.0575
 7681TIP3   OH244457   3.648   2.852  11.427  0.1291 -0.2241 -0.2994
 7681TIP3    H144458   3.644   2.937  11.472 -0.6263 -0.0985 -0.5823
 7681TIP3    H244459   3.558   2.835  11.401  0.2065 -1.3148  0.1018
 7682TIP3   OH244460   6.296   0.515  12.291  0.3069  0.2040  0.2352
 7682TIP3    H144461   6.277   0.571  12.366  1.2458 -1.8410  2.1045
 7682TIP3    H244462   6.275   0.427  12.321 -0.9317 -0.5508 -2.5241
 7683TIP3   OH244463   0.088   3.755  14.624 -0.2140  0.1973 -0.2261
 7683TIP3    H144464   0.150   3.822  14.596  0.9677 -0.5864  0.4512
 7683TIP3    H244465   0.142   3.686  14.663 -1.4283 -0.9683 -0.5260
 7684TIP3   OH244466   6.696   2.793   1.813  0.3776  0.4453 -0.4036
 7684TIP3    H144467   6.671   2.721   1.870  0.7890  0.4044 -0.2730
 7684TIP3    H244468   6.708   2.867   1.873  2.1568  0.0715 -0.2518
 7685TIP3   OH244469   6.063   6.728  16.290  0.5078  0.1088 -0.0081
 7685TIP3    H144470   6.005   6.663  16.330  0.3434  0.8019  0.9103
 7685TIP3    H244471   6.020   6.812  16.307  1.6590  0.6177  0.4938
 7686TIP3   OH244472   2.462   1.066  13.729  0.3322  0.2812 -0.4776
 7686TIP3    H144473   2.464   1.079  13.824  1.9247  3.4186 -0.7833
 7686TIP3    H244474   2.383   1.111  13.701 -1.3320 -2.4909 -0.5661
 7687TIP3   OH244475   5.035   4.612  11.755  0.2169  0.2962  0.3570
 7687TIP3    H144476   4.979   4.534  11.762  0.4074  0.1466  0.2318
 7687TIP3    H244477   5.044   4.643  11.845 -0.1400  0.3706  0.3651
 7688TIP3   OH244478   4.850   4.268   1.767 -0.3489 -0.1835  0.8336
 7688TIP3    H144479   4.822   4.252   1.677  1.1196 -1.3404  0.5421
 7688TIP3    H244480   4.779   4.320   1.806 -1.5400 -0.6541 -0.6352
 7689TIP3   OH244481   2.555   4.061   2.388  0.6532  0.0986  0.0056
 7689TIP3    H144482   2.567   4.005   2.312  0.9390 -0.4424  0.4382
 7689TIP3    H244483   2.491   4.014   2.442 -0.8951  1.3160 -0.6956
 7690TIP3   OH244484   6.562   4.741  14.563  0.3896 -0.6562  0.1207
 7690TIP3    H144485   6.653   4.715  14.552  0.5343 -0.2877  0.3970
 7690TIP3    H244486   6.566   4.834  14.586 -0.1185 -0.3078 -1.1112
 7691TIP3   OH244487   6.103   5.606  10.260 -0.0580 -0.0650 -0.2723
 7691TIP3    H144488   6.059   5.620  10.343 -0.5358  1.7563 -0.7901
 7691TIP3    H244489   6.035   5.620  10.194  0.3680 -1.2507 -1.0019
 7692TIP3   OH244490   5.318   2.657   2.277 -0.4543 -0.3239 -0.6848
 7692TIP3    H144491   5.314   2.753   2.269 -2.0988 -0.3226 -0.2407
 7692TIP3    H244492   5.238   2.627   2.233 -0.1022 -1.4765 -0.5531
 7693TIP3   OH244493   6.247   0.816   0.263 -0.0557  0.1096 -0.1794
 7693TIP3    H144494   6.241   0.755   0.189  2.7500 -0.8974  0.3214
 7693TIP3    H244495   6.313   0.879   0.236 -0.0877  0.6154  0.8996
 7694TIP3   OH244496   6.523   4.305  11.704 -0.1747  0.0104 -0.1072
 7694TIP3    H144497   6.605   4.258  11.718 -0.2684  0.2199  1.2818
 7694TIP3    H244498   6.480   4.257  11.632  1.3555  0.1988 -1.2093
 7695TIP3   OH244499   6.678   3.014   1.508 -0.1588  0.3824  0.2861
 7695TIP3    H144500   6.719   3.059   1.434  1.1500  0.7372  1.1917
 7695TIP3    H244501   6.633   3.083   1.557 -0.3915  0.2708  0.2316
 7696TIP3   OH244502   4.979   4.149   0.484 -0.1650  0.4181 -0.0064
 7696TIP3    H144503   4.945   4.237   0.503  0.4151  0.2002  2.3780
 7696TIP3    H244504   5.071   4.153   0.510 -0.0283 -0.7675 -0.2694
 7697TIP3   OH244505   5.595   5.626  16.142  0.2654 -0.1621 -0.1321
 7697TIP3    H144506   5.649   5.573  16.201 -1.7775 -0.5153  1.5707
 7697TIP3    H244507   5.619   5.716  16.162  0.5829 -0.3300  0.2559
 7698TIP3   OH244508   2.371   5.407  17.325 -0.6208  0.0522 -0.6656
 7698TIP3    H144509   2.278   5.385  17.330 -0.3297 -1.0001  0.5945
 7698TIP3    H244510   2.398   5.423  17.415  0.3339  0.7640 -1.0542
 7699TIP3   OH244511   6.225   3.223   0.998  0.1456  0.2748  0.4127
 7699TIP3    H144512   6.246   3.138   0.961  2.2404  0.3780  1.1908
 7699TIP3    H244513   6.133   3.217   1.024  0.3111 -1.8251  0.6623
 7700TIP3   OH244514   2.927   5.130  16.087  0.7579 -0.2854  0.0739
 7700TIP3    H144515   2.974   5.213  16.097 -0.1318  0.0794  1.5218
 7700TIP3    H244516   2.849   5.152  16.038  0.9651 -0.4444 -0.3271
 7701TIP3   OH244517   1.384   6.371  11.165  0.0885 -0.2949 -0.0523
 7701TIP3    H144518   1.413   6.315  11.093  1.7867  0.2697  0.1373
 7701TIP3    H244519   1.339   6.312  11.225  2.1259 -1.6074  0.3148
 7702TIP3   OH244520   2.220   5.001  16.720  0.2318 -0.0573 -0.1761
 7702TIP3    H144521   2.195   5.057  16.793 -0.7315 -1.2906  0.4960
 7702TIP3    H244522   2.153   5.017  16.654 -1.0683 -1.6202  0.6947
 7703TIP3   OH244523   0.922   1.412  11.084  0.1380  0.4425 -0.2200
 7703TIP3    H144524   0.943   1.486  11.028 -0.4236  1.2500  0.6190
 7703TIP3    H244525   0.836   1.432  11.121 -1.3697 -1.9065 -2.1193
 7704TIP3   OH244526   4.141   0.242  16.032  0.2650 -0.2742  0.3327
 7704TIP3    H144527   4.225   0.284  16.051 -0.6184  2.2872 -0.8999
 7704TIP3    H244528   4.079   0.283  16.092 -0.8307  1.1101 -1.6029
 7705TIP3   OH244529   5.142   0.037   4.540  0.2419 -0.6307  0.0019
 7705TIP3    H144530   5.205  -0.035   4.546 -1.4928 -2.1842  0.4666
 7705TIP3    H244531   5.131   0.051   4.446  1.6210  0.0023 -0.0840
 7706TIP3   OH244532   0.927   2.746  14.888  0.0617  0.0839 -0.6471
 7706TIP3    H144533   0.867   2.680  14.924  0.4744 -0.0007 -0.1167
 7706TIP3    H244534   1.010   2.730  14.931 -0.0955  1.6544  0.3461
 7707TIP3   OH244535   2.465   3.107   3.285 -0.1965 -0.2422  0.6465
 7707TIP3    H144536   2.386   3.070   3.245 -0.2015  0.9821 -0.5784
 7707TIP3    H244537   2.537   3.056   3.249 -0.2928  0.0459  0.0371
 7708TIP3   OH244538   4.512   6.093  12.990  0.2150 -0.6065 -0.2264
 7708TIP3    H144539   4.491   6.003  13.015  0.0473 -0.9380 -1.4673
 7708TIP3    H244540   4.489   6.146  13.066  1.3453 -1.7253  0.9507
 7709TIP3   OH244541   1.201   2.142  12.805 -0.0797 -0.0722 -0.6553
 7709TIP3    H144542   1.235   2.142  12.715 -0.8374 -0.1642 -0.9482
 7709TIP3    H244543   1.107   2.127  12.795 -0.1011 -0.5513  0.1833
 7710TIP3   OH244544   3.062   2.588   3.384  0.4945 -0.5058  0.1384
 7710TIP3    H144545   3.102   2.538   3.455  1.2725 -1.6014 -1.0342
 7710TIP3    H244546   2.977   2.546   3.371 -0.2505  0.5609  1.2904
 7711TIP3   OH244547   4.649   1.480   5.689 -0.2834 -0.2216  0.1690
 7711TIP3    H144548   4.652   1.576   5.691  1.2764 -0.2216 -0.5525
 7711TIP3    H244549   4.612   1.455   5.774 -0.4896  1.0145  0.4565
 7712TIP3   OH244550   4.208   5.554  15.841  0.0859  0.3930 -0.1881
 7712TIP3    H144551   4.128   5.574  15.890  1.9085  1.4336  2.6290
 7712TIP3    H244552   4.275   5.609  15.882  2.1939 -0.1258 -2.6992
 7713TIP3   OH244553   5.999   2.340  13.769 -0.1055 -1.0738 -0.1541
 7713TIP3    H144554   6.032   2.369  13.854  1.3253 -0.1903 -0.9799
 7713TIP3    H244555   5.950   2.415  13.736  1.2615 -0.5727 -1.0856
 7714TIP3   OH244556   3.496   0.682   4.167  0.2947 -0.2970 -0.2342
 7714TIP3    H144557   3.445   0.602   4.154  0.5728 -1.0265  2.5065
 7714TIP3    H244558   3.432   0.753   4.167  0.1531 -0.2537 -3.7708
 7715TIP3   OH244559   4.117   2.521   0.656  0.3513  0.4628  0.2122
 7715TIP3    H144560   4.189   2.459   0.663  0.6432  0.2491 -3.0397
 7715TIP3    H244561   4.038   2.469   0.674  0.7749 -0.1341  0.3754
 7716TIP3   OH244562   5.976   3.149   1.131 -0.0264  0.0544  0.6419
 7716TIP3    H144563   5.957   3.117   1.219 -2.5842  0.2045  0.2049
 7716TIP3    H244564   5.920   3.096   1.074  1.0341  0.4643 -0.8357
 7717TIP3   OH244565   5.460   0.257   4.900 -0.2643  0.0283  0.1487
 7717TIP3    H144566   5.367   0.251   4.880 -0.9721  1.1709  2.7110
 7717TIP3    H244567   5.468   0.218   4.987  1.5852  0.3955  0.1812
 7718TIP3   OH244568   1.014   4.048   0.454 -0.3660 -0.2932 -0.1059
 7718TIP3    H144569   0.996   4.138   0.482 -0.4818 -0.2577 -0.2927
 7718TIP3    H244570   0.964   3.994   0.516 -0.0157 -0.2443  0.2262
 7719TIP3   OH244571   3.088   0.935   0.794 -0.5669 -0.1503  0.2025
 7719TIP3    H144572   3.086   1.013   0.739  1.0720  0.0594  0.3951
 7719TIP3    H244573   3.114   0.865   0.734  0.6014 -0.0361  0.5567
 7720TIP3   OH244574   1.531   6.159   4.973  0.5065  0.5158 -0.1280
 7720TIP3    H144575   1.610   6.111   4.997  0.6230  0.4275 -0.6707
 7720TIP3    H244576   1.557   6.211   4.896  0.0873  0.6180 -0.2021
 7721TIP3   OH244577   4.012   3.083  16.851  0.3719 -0.3139  0.3803
 7721TIP3    H144578   4.084   3.139  16.825  1.2026 -1.6740 -0.3581
 7721TIP3    H244579   4.054   3.009  16.896 -0.2935 -2.2669 -2.0053
 7722TIP3   OH244580   5.025   1.026   4.325  0.2164  0.2745 -0.2639
 7722TIP3    H144581   4.971   0.983   4.391 -0.2252  1.3635  0.1085
 7722TIP3    H244582   5.107   1.046   4.370  0.8577 -1.1160 -0.7467
 7723TIP3   OH244583   6.650   2.558  11.805  0.3716  0.1798  0.1240
 7723TIP3    H144584   6.622   2.503  11.878 -0.7857  1.4461  0.6622
 7723TIP3    H244585   6.722   2.611  11.841  1.9269 -1.3633 -0.5737
 7724TIP3   OH244586   0.399   2.913  13.001  0.4257 -0.1797  0.2068
 7724TIP3    H144587   0.388   2.848  13.070 -1.2768  0.0594  0.2054
 7724TIP3    H244588   0.311   2.945  12.984  1.0618  1.2110 -0.6937
 7725TIP3   OH244589   3.776   1.770   1.657 -0.9819 -0.5382  0.3682
 7725TIP3    H144590   3.792   1.795   1.566 -1.0056 -0.2581  0.4404
 7725TIP3    H244591   3.705   1.706   1.652 -1.3945 -0.0846  0.2324
 7726TIP3   OH244592   1.577   3.183  14.008  0.0434  0.3523 -0.2234
 7726TIP3    H144593   1.654   3.221  14.051 -1.0083  1.6869  0.5805
 7726TIP3    H244594   1.509   3.250  14.018 -2.0490 -1.8881  1.6055
 7727TIP3   OH244595   6.304   0.556   3.003  0.4971 -0.3082 -0.1560
 7727TIP3    H144596   6.282   0.611   3.078 -2.4695 -1.6069  0.0658
 7727TIP3    H244597   6.284   0.611   2.927  0.4122 -0.0748  0.0348
 7728TIP3   OH244598   5.206   0.168  15.299 -0.6409 -0.5126  0.7545
 7728TIP3    H144599   5.232   0.097  15.241  0.3344 -0.1560  0.7327
 7728TIP3    H244600   5.179   0.124  15.380  0.6244 -0.8944  0.9913
 7729TIP3   OH244601   5.471   2.372   2.157  0.2930  0.8812  0.8158
 7729TIP3    H144602   5.514   2.373   2.243 -1.0134  0.5947  1.4965
 7729TIP3    H244603   5.385   2.411   2.173 -0.5810 -0.6206 -0.0067
 7730TIP3   OH244604   2.118   5.487  13.883  0.3273  0.0222 -0.0680
 7730TIP3    H144605   2.212   5.478  13.898  0.3271  1.0456  0.5947
 7730TIP3    H244606   2.078   5.477  13.970 -0.3209 -1.9444 -0.5369
 7731TIP3   OH244607   2.866   2.716   0.850  0.3935  0.6158 -0.3683
 7731TIP3    H144608   2.929   2.711   0.778 -0.2642 -1.1654 -0.8515
 7731TIP3    H244609   2.851   2.625   0.876 -0.6946  1.1165  0.8774
 7732TIP3   OH244610   0.748   2.208   3.919  0.0070  0.1241 -0.4102
 7732TIP3    H144611   0.660   2.238   3.941 -0.6265 -1.1696 -1.0395
 7732TIP3    H244612   0.756   2.225   3.825  0.1677 -0.3861 -0.4913
 7733TIP3   OH244613   0.467   0.891  12.334  0.0529  0.5834 -0.3143
 7733TIP3    H144614   0.520   0.924  12.407  0.1370  1.7028 -0.8588
 7733TIP3    H244615   0.384   0.939  12.342  0.1412  0.8680 -1.0679
 7734TIP3   OH244616   6.030   6.490   2.313  0.0519  0.4920 -0.1578
 7734TIP3    H144617   6.083   6.441   2.251 -0.8831  0.9708 -1.3654
 7734TIP3    H244618   5.963   6.533   2.260 -0.0333  1.9144  1.0192
 7735TIP3   OH244619   2.757   0.263  15.959 -0.7491 -0.6261 -0.1901
 7735TIP3    H144620   2.746   0.175  15.994  0.5373 -0.8637 -0.3320
 7735TIP3    H244621   2.695   0.317  16.008  0.3843 -1.0956  1.8481
 7736TIP3   OH244622   6.248   0.751   3.191 -0.4891  0.2538 -0.5490
 7736TIP3    H144623   6.268   0.756   3.284  0.0493  2.1609 -0.7142
 7736TIP3    H244624   6.171   0.807   3.180 -0.4255  0.2128 -1.2835
 7737TIP3   OH244625   1.670   6.770  14.327 -0.3335  0.4061 -0.7182
 7737TIP3    H144626   1.579   6.741  14.335 -0.0688 -0.1983  0.2211
 7737TIP3    H244627   1.671   6.824  14.248 -1.7301  1.2306 -0.2191
 7738TIP3   OH244628   6.248   3.045  16.300  0.6789 -0.1906 -0.5083
 7738TIP3    H144629   6.180   3.080  16.242 -0.5178  0.3092  1.1446
 7738TIP3    H244630   6.298   2.985  16.244  0.2543  1.0607 -2.3400
 7739TIP3   OH244631   1.102   6.225  16.765  0.5531  0.4960  0.0400
 7739TIP3    H144632   1.183   6.192  16.725  1.4821 -0.5408  2.5909
 7739TIP3    H244633   1.112   6.320  16.764  2.1478  0.3662  0.9087
 7740TIP3   OH244634   0.285   4.013   2.048  0.1788 -0.3975 -0.1342
 7740TIP3    H144635   0.203   3.991   2.003 -0.1626  0.2586  0.1586
 7740TIP3    H244636   0.268   4.098   2.089  0.8110 -0.5345  0.4250
 7741TIP3   OH244637   0.951   4.494  16.743 -0.3334 -0.5906  0.2447
 7741TIP3    H144638   1.005   4.465  16.670 -0.3136  0.6284 -0.2575
 7741TIP3    H244639   0.863   4.500  16.707 -0.5527 -1.1899  0.6713
 7742TIP3   OH244640   3.389   0.409  10.923 -0.3299  0.2351  0.5802
 7742TIP3    H144641   3.468   0.449  10.887 -1.3927  1.4926 -0.4248
 7742TIP3    H244642   3.403   0.315  10.913  0.4993  0.4792 -0.7528
 7743TIP3   OH244643   0.789   2.865   5.997 -0.3653 -0.3907  0.2763
 7743TIP3    H144644   0.835   2.944   5.968  0.2386 -1.2560 -1.2461
 7743TIP3    H244645   0.736   2.839   5.922 -2.3478 -0.1795  1.5501
 7744TIP3   OH244646   6.619   3.736   4.390 -0.0385 -0.0731  0.2889
 7744TIP3    H144647   6.539   3.684   4.391  1.0812 -1.9021  1.2360
 7744TIP3    H244648   6.599   3.811   4.334 -2.0842 -0.9574 -0.2505
 7745TIP3   OH244649   6.488   2.925   1.161 -0.7773  0.4976 -0.1655
 7745TIP3    H144650   6.426   2.995   1.182 -0.4423  0.2168  2.0108
 7745TIP3    H244651   6.562   2.941   1.220 -1.0326 -2.1244  0.9785
 7746TIP3   OH244652   5.746   6.149  12.598  0.3072 -0.1718 -0.4976
 7746TIP3    H144653   5.704   6.136  12.683 -0.7534  2.6994 -0.4674
 7746TIP3    H244654   5.676   6.185  12.543  1.3653 -0.5612 -2.1573
 7747TIP3   OH244655   6.060   2.506  15.328  0.0861 -0.2482 -0.1523
 7747TIP3    H144656   6.034   2.439  15.265 -1.4970  0.7976 -0.6640
 7747TIP3    H244657   6.145   2.477  15.360 -0.0149 -1.8671 -1.2438
 7748TIP3   OH244658   0.410   1.634   1.985 -0.0541 -0.4222 -0.5714
 7748TIP3    H144659   0.360   1.556   1.960 -0.3336 -0.1686 -0.8165
 7748TIP3    H244660   0.413   1.686   1.904 -0.7675  0.3068 -0.1433
 7749TIP3   OH244661   3.774   3.104   1.982 -0.1154 -0.1471  0.3965
 7749TIP3    H144662   3.795   3.195   1.962  0.3543 -0.8596 -2.9438
 7749TIP3    H244663   3.825   3.085   2.061  1.7743  1.7887 -0.2551
 7750TIP3   OH244664   5.489   0.610  16.617  0.3293 -0.6026  0.1814
 7750TIP3    H144665   5.567   0.555  16.619  0.4066 -0.7421 -2.7659
 7750TIP3    H244666   5.416   0.549  16.628  0.5124 -0.8906 -0.2089
 7751TIP3   OH244667   4.375   4.906  11.808 -0.2155 -0.8315 -0.4610
 7751TIP3    H144668   4.344   4.870  11.724 -1.2112  0.3145 -0.6205
 7751TIP3    H244669   4.405   4.830  11.857 -0.7960 -1.6859 -1.3771
 7752TIP3   OH244670   0.806   5.758   4.802 -0.0526 -0.4778 -0.2713
 7752TIP3    H144671   0.888   5.709   4.803 -0.2611 -0.8267  1.4389
 7752TIP3    H244672   0.827   5.842   4.844 -0.3539 -0.1604 -0.7327
 7753TIP3   OH244673   3.050   1.146   0.340  0.1281 -0.0085 -0.3255
 7753TIP3    H144674   3.041   1.242   0.344 -0.6104 -0.0640 -0.4352
 7753TIP3    H244675   3.105   1.124   0.415 -0.1700  0.4557  0.0430
 7754TIP3   OH244676   1.279   1.527  17.064 -0.2866 -0.2532 -0.6236
 7754TIP3    H144677   1.367   1.503  17.034 -0.4315 -0.4106 -0.9296
 7754TIP3    H244678   1.234   1.556  16.984 -0.2745  0.5590 -0.3447
 7755TIP3   OH244679   1.134   6.327  10.795 -0.1434  0.0887 -0.2144
 7755TIP3    H144680   1.217   6.320  10.843  0.1124  1.0455 -0.4971
 7755TIP3    H244681   1.151   6.394  10.728 -0.9884 -0.0873 -0.6102
 7756TIP3   OH244682   4.532   5.833   4.868 -0.4383  0.4072 -0.1179
 7756TIP3    H144683   4.453   5.886   4.860  0.9124  2.8231  1.0492
 7756TIP3    H244684   4.502   5.743   4.870 -2.9864  1.1468 -1.3164
 7757TIP3   OH244685   5.501   2.198   5.451 -0.0993 -0.5333  0.1830
 7757TIP3    H144686   5.514   2.291   5.465  3.1700 -0.7658 -0.3603
 7757TIP3    H244687   5.542   2.156   5.528  3.4027 -1.4669 -1.9312
 7758TIP3   OH244688   2.634   1.482  11.533 -0.0960  0.3749 -0.0327
 7758TIP3    H144689   2.726   1.456  11.534  0.7824  3.1045  0.8931
 7758TIP3    H244690   2.617   1.513  11.444 -0.5836 -1.4470 -0.6004
 7759TIP3   OH244691   6.096   3.407   5.140 -0.6194 -0.4977 -0.0492
 7759TIP3    H144692   6.008   3.384   5.110 -0.2759 -1.2384 -0.5104
 7759TIP3    H244693   6.122   3.333   5.196 -0.6290  0.1318  0.8063
 7760TIP3   OH244694   4.486   2.225  10.784  0.3750  0.3117 -0.0068
 7760TIP3    H144695   4.450   2.172  10.855 -0.6061  0.5906 -0.2800
 7760TIP3    H244696   4.532   2.163  10.729 -0.4451 -0.2150 -0.1210
 7761TIP3   OH244697   1.007   1.973  15.972 -0.3298  0.1553  0.1557
 7761TIP3    H144698   0.973   1.908  15.910  0.7203 -0.2001 -0.0587
 7761TIP3    H244699   1.098   1.986  15.945 -0.4347  1.4922  0.3847
 7762TIP3   OH244700   3.808   1.952   3.075  0.5488 -0.1846 -0.0910
 7762TIP3    H144701   3.865   1.972   3.000  1.8693 -1.4122  0.5229
 7762TIP3    H244702   3.755   2.030   3.086  0.4046  0.0912 -2.2185
 7763TIP3   OH244703   3.136   5.368   3.246  0.5238 -0.0377 -0.0524
 7763TIP3    H144704   3.106   5.301   3.184  0.1096 -0.0819  0.1951
 7763TIP3    H244705   3.224   5.339   3.271  0.7580  0.0570 -0.7241
 7764TIP3   OH244706   5.672   4.969  15.193  0.5525 -0.2973 -0.0958
 7764TIP3    H144707   5.715   5.027  15.256  0.6263 -0.6731  0.2037
 7764TIP3    H244708   5.651   4.890  15.243  1.2057 -0.8690 -0.6852
 7765TIP3   OH244709   3.183   3.220  15.610 -0.4559  0.1780  0.0152
 7765TIP3    H144710   3.274   3.241  15.631 -0.2321 -1.7508  1.2649
 7765TIP3    H244711   3.137   3.304  15.612  1.0640  1.0307  0.6367
 7766TIP3   OH244712   4.862   3.272   3.058  0.0874  0.0280 -0.0245
 7766TIP3    H144713   4.812   3.279   2.977  0.2579 -1.9695 -0.3629
 7766TIP3    H244714   4.817   3.203   3.107  1.5401 -0.6549  0.3908
 7767TIP3   OH244715   3.212   0.251   2.153  0.7793 -0.2723 -0.4587
 7767TIP3    H144716   3.242   0.285   2.237  0.6108  2.0960 -1.2708
 7767TIP3    H244717   3.292   0.229   2.105  0.9082 -0.7812 -0.0144
 7768TIP3   OH244718   4.223   4.007  15.572 -0.0951 -0.6325 -0.0231
 7768TIP3    H144719   4.218   3.999  15.477 -0.3191  0.4834 -0.1227
 7768TIP3    H244720   4.132   4.009  15.601 -0.0320 -0.5476  0.1734
 7769TIP3   OH244721   0.998   0.295   2.747  0.6497  0.6204  0.5038
 7769TIP3    H144722   1.021   0.208   2.713  1.2043  1.3869 -1.2150
 7769TIP3    H244723   1.006   0.287   2.842 -1.0980 -1.7058  0.5611
 7770TIP3   OH244724   1.050   0.322   0.852  0.0938  0.3076 -0.4022
 7770TIP3    H144725   0.981   0.310   0.917  1.0336 -0.2033  0.5188
 7770TIP3    H244726   1.090   0.236   0.843  1.8330  0.9721  0.4900
 7771TIP3   OH244727   5.019   5.223   5.172  0.2809  0.2463  0.2692
 7771TIP3    H144728   5.025   5.137   5.214 -0.0029  0.9825  1.8793
 7771TIP3    H244729   5.108   5.259   5.178  1.6284 -1.5617 -4.2896
 7772TIP3   OH244730   4.239   5.638  11.058  0.8628 -0.0116 -0.7194
 7772TIP3    H144731   4.316   5.661  11.111 -0.7727  0.7084  1.4798
 7772TIP3    H244732   4.228   5.544  11.070  0.1943  0.2319  0.7160
 7773TIP3   OH244733   6.484   3.253  15.970  0.1270 -0.1451 -0.3606
 7773TIP3    H144734   6.536   3.230  15.893 -0.9709  1.0645 -1.5034
 7773TIP3    H244735   6.401   3.208  15.957 -0.1706  0.3048 -0.0299
 7774TIP3   OH244736   5.887   4.083  15.699  0.1046  0.2199 -0.0157
 7774TIP3    H144737   5.946   4.033  15.644  0.1330  1.6144 -1.3439
 7774TIP3    H244738   5.940   4.156  15.731 -0.4230  0.5063  0.2237
 7775TIP3   OH244739   4.176   0.278  15.398 -0.1669  0.3603 -0.1109
 7775TIP3    H144740   4.102   0.261  15.456 -1.0623 -1.9330 -1.7495
 7775TIP3    H244741   4.155   0.230  15.318  1.6709  2.1998 -1.8281
 7776TIP3   OH244742   0.846   1.637   1.728  0.3714  0.3748  0.0198
 7776TIP3    H144743   0.809   1.722   1.751  1.5456  0.6322  1.0574
 7776TIP3    H244744   0.823   1.581   1.802 -1.6885 -0.6682 -1.3096
 7777TIP3   OH244745   6.330   5.044  16.860  0.0093  0.3449  0.3700
 7777TIP3    H144746   6.269   5.035  16.786 -1.8542  4.3372  1.1669
 7777TIP3    H244747   6.400   5.099  16.826  0.8771 -0.5166  0.7268
 7778TIP3   OH244748   0.138   4.918  12.931  0.3375  0.5887  0.1290
 7778TIP3    H144749   0.076   4.847  12.946 -0.6154  1.2630 -0.5625
 7778TIP3    H244750   0.222   4.874  12.916 -0.5627 -0.4971 -2.0232
 7779TIP3   OH244751   2.267   5.458  15.028  0.5771 -0.6250  0.7369
 7779TIP3    H144752   2.259   5.362  15.027  1.1567 -0.6863 -0.7002
 7779TIP3    H244753   2.231   5.486  14.944  2.3358  0.2219  0.2041
 7780TIP3   OH244754   5.046   3.202   5.725 -0.7808  0.1343  0.0633
 7780TIP3    H144755   4.980   3.266   5.697 -1.4972 -0.2571  0.8217
 7780TIP3    H244756   5.110   3.254   5.774 -1.6837  0.1982  1.2087
 7781TIP3   OH244757   5.905   5.445   0.064 -0.2102 -1.1006  0.5819
 7781TIP3    H144758   5.932   5.529   0.101 -0.8807 -0.6356  0.0466
 7781TIP3    H244759   5.826   5.421   0.114 -0.4180 -1.0639  0.2746
 7782TIP3   OH244760   6.454   5.966   5.534 -0.8830 -0.1772 -0.1471
 7782TIP3    H144761   6.483   5.900   5.471 -1.1454 -0.7687  0.3354
 7782TIP3    H244762   6.361   5.980   5.513 -0.8740 -0.1008 -0.1355
 7783TIP3   OH244763   0.738   0.659  10.560  0.0858  0.0223  0.2261
 7783TIP3    H144764   0.745   0.724  10.630  3.3273  0.7949 -0.6364
 7783TIP3    H244765   0.657   0.680  10.515 -1.2221  0.5753  2.6621
 7784TIP3   OH244766   0.831   2.153   1.696  0.0889 -0.1204 -0.4328
 7784TIP3    H144767   0.807   2.102   1.619  0.2207 -3.5759  1.5879
 7784TIP3    H244768   0.918   2.188   1.676 -0.1105 -0.4782 -2.0280
 7785TIP3   OH244769   2.146   4.389   1.185 -0.5038  0.0522 -0.4343
 7785TIP3    H144770   2.060   4.408   1.147 -0.8663  2.0010  1.2022
 7785TIP3    H244771   2.127   4.364   1.275  0.6629  0.9621  0.0884
 7786TIP3   OH244772   4.450   1.937   3.490 -0.0450  0.4721  0.5088
 7786TIP3    H144773   4.423   2.016   3.444  1.8337  0.4443 -0.7354
 7786TIP3    H244774   4.546   1.937   3.486  0.0356 -1.5588  0.9917
 7787TIP3   OH244775   0.040   2.066   1.944  0.0403 -0.4746  0.0744
 7787TIP3    H144776  -0.034   2.127   1.938  0.5583  0.0194 -2.3533
 7787TIP3    H244777   0.012   1.989   1.894  1.5143  0.1987 -1.9521
 7788TIP3   OH244778   0.903   2.881  13.568  0.2338  0.4814  0.3923
 7788TIP3    H144779   0.967   2.915  13.631  1.1194 -2.4465  1.2277
 7788TIP3    H244780   0.888   2.790  13.595  0.5000 -0.9176 -3.4829
 7789TIP3   OH244781   2.766   5.461  14.139 -0.3490  0.1530  0.1429
 7789TIP3    H144782   2.691   5.411  14.169 -1.9374  2.3574  0.1055
 7789TIP3    H244783   2.790   5.516  14.213 -0.0713  0.9200 -0.4983
 7790TIP3   OH244784   0.752   0.861  14.989 -0.0867 -0.2877 -0.1295
 7790TIP3    H144785   0.835   0.869  15.036 -0.5271  0.2765  0.5613
 7790TIP3    H244786   0.685   0.869  15.057 -0.7248  0.0139 -0.7853
 7791TIP3   OH244787   1.604   2.733   1.903 -0.1370  0.2881  0.1083
 7791TIP3    H144788   1.692   2.764   1.883  0.0146  1.7131  2.6264
 7791TIP3    H244789   1.559   2.809   1.939 -2.4336 -0.4098 -1.0849
 7792TIP3   OH244790   3.503   1.526  15.120 -0.5339  0.1329  0.0326
 7792TIP3    H144791   3.551   1.570  15.050  0.9875 -0.8771  0.4018
 7792TIP3    H244792   3.537   1.437  15.121 -2.9878 -0.8917 -0.1767
 7793TIP3   OH244793   3.388   2.301  14.927  0.0298  0.1684 -0.0325
 7793TIP3    H144794   3.347   2.384  14.905 -2.2610 -0.6385  0.9478
 7793TIP3    H244795   3.327   2.258  14.986  1.1016 -2.2641 -0.5604
 7794TIP3   OH244796   5.021   2.303   1.035  0.1698  0.0208 -0.0709
 7794TIP3    H144797   5.096   2.269   1.085 -1.8121 -0.2510  2.9880
 7794TIP3    H244798   4.975   2.360   1.097 -2.3841 -0.1733 -1.6465
 7795TIP3   OH244799   1.691   3.119   4.855 -0.1135 -0.0806  0.1333
 7795TIP3    H144800   1.659   3.078   4.935 -3.6730 -0.5588 -1.3246
 7795TIP3    H244801   1.723   3.205   4.882 -0.6644 -0.4627  2.1172
 7796TIP3   OH244802   6.305   3.909   6.512 -0.1634  0.5398  0.0949
 7796TIP3    H144803   6.371   3.940   6.449  0.1493 -1.3139 -0.5426
 7796TIP3    H244804   6.292   3.984   6.571  1.4129  1.4632 -0.6464
 7797TIP3   OH244805   0.809   4.389  15.934 -0.3874 -0.2013 -0.7310
 7797TIP3    H144806   0.743   4.400  15.866 -0.8590  0.2380 -0.2077
 7797TIP3    H244807   0.834   4.297  15.929 -1.6738 -0.5886 -0.3566
 7798TIP3   OH244808   1.552   4.232   4.167 -0.5221  0.0079 -0.7719
 7798TIP3    H144809   1.511   4.256   4.251  0.9262  0.5151 -0.1910
 7798TIP3    H244810   1.624   4.173   4.192 -0.5720 -0.4800 -1.7389
 7799TIP3   OH244811   3.083   5.757   6.467  0.1748 -0.3037  0.4752
 7799TIP3    H144812   3.082   5.818   6.394 -0.9566  0.5798  1.1937
 7799TIP3    H244813   3.169   5.715   6.462  0.0217 -0.4697 -1.4957
 7800TIP3   OH244814   5.563   2.855   6.388  0.1749 -0.2869 -0.2032
 7800TIP3    H144815   5.658   2.862   6.377  0.3691 -0.5544  1.1402
 7800TIP3    H244816   5.546   2.895   6.474 -0.8390 -0.8354 -0.1359
 7801TIP3   OH244817   0.009   6.211   2.670  0.3862  0.6856  0.4558
 7801TIP3    H144818   0.083   6.153   2.689  0.3255  0.0826 -0.9946
 7801TIP3    H244819   0.010   6.220   2.575 -3.1889 -1.8960 -0.0262
 7802TIP3   OH244820   3.585   5.288  16.929 -0.2598 -0.0204  0.1802
 7802TIP3    H144821   3.668   5.304  16.885 -0.9336  1.3650 -0.6710
 7802TIP3    H244822   3.607   5.290  17.022  0.8091 -0.7260 -0.0336
 7803TIP3   OH244823   3.298   2.825  17.115 -0.2149 -0.0837  0.0508
 7803TIP3    H144824   3.316   2.770  17.038 -0.3706 -0.3965  0.2366
 7803TIP3    H244825   3.365   2.800  17.178 -0.5920 -0.4317  0.3218
 7804TIP3   OH244826   2.378   6.284   4.922  0.0895 -0.1669  0.1792
 7804TIP3    H144827   2.334   6.338   4.987  0.9230  2.9972 -1.6390
 7804TIP3    H244828   2.471   6.292   4.943  0.2371 -0.6995 -0.2622
 7805TIP3   OH244829   6.190   3.777  16.631  0.4987 -0.2556 -0.3096
 7805TIP3    H144830   6.217   3.838  16.699  0.2922  1.3532 -1.6060
 7805TIP3    H244831   6.267   3.769  16.574  0.6380 -1.4982  0.0224
 7806TIP3   OH244832   1.089   0.709   3.045  0.6009  0.1314 -0.5671
 7806TIP3    H144833   1.167   0.763   3.030  0.0214  0.5838 -2.0909
 7806TIP3    H244834   1.060   0.684   2.958 -0.5885 -0.6003  0.0132
 7807TIP3   OH244835   1.532   4.485   5.675 -0.7211 -0.4535 -0.3445
 7807TIP3    H144836   1.612   4.434   5.688 -1.3474 -1.6648 -1.1363
 7807TIP3    H244837   1.508   4.515   5.763 -0.8564 -2.3160  0.2882
 7808TIP3   OH244838   1.026   4.340  14.060 -0.1520 -0.6754  0.1034
 7808TIP3    H144839   1.061   4.412  14.008  1.6375  0.0639  2.1624
 7808TIP3    H244840   0.958   4.381  14.114 -0.0915 -0.8275  0.2939
 7809TIP3   OH244841   2.149   2.556   1.296 -0.1711  0.4663 -0.0465
 7809TIP3    H144842   2.114   2.487   1.352 -0.9376  1.2498  0.4704
 7809TIP3    H244843   2.071   2.606   1.269  0.2813  0.6543 -1.0562
 7810TIP3   OH244844   3.900   2.908   2.381 -0.3292  0.3403 -0.3834
 7810TIP3    H144845   3.958   2.847   2.335  1.2814 -0.0315  1.9366
 7810TIP3    H244846   3.824   2.856   2.405  0.7012 -0.6066  0.9358
 7811TIP3   OH244847   0.304   6.222   2.476 -0.1807  0.0343 -0.1663
 7811TIP3    H144848   0.349   6.279   2.538 -2.4426  1.1869  0.5066
 7811TIP3    H244849   0.289   6.141   2.524  2.0456 -0.7911 -0.7570
 7812TIP3   OH244850   2.799   4.977  16.503 -0.3013  0.5859 -0.2281
 7812TIP3    H144851   2.885   5.013  16.525  1.7700 -2.6172 -2.2286
 7812TIP3    H244852   2.757   4.961  16.587  2.2820 -0.3634  0.9993
 7813TIP3   OH244853   4.839   1.732   2.291 -0.3236 -0.0607  0.0472
 7813TIP3    H144854   4.837   1.686   2.207 -0.5507 -0.8308  0.4666
 7813TIP3    H244855   4.830   1.663   2.357 -0.0509  0.5220  0.7127
 7814TIP3   OH244856   0.130   0.191   6.396  0.5707  0.3733 -0.8942
 7814TIP3    H144857   0.065   0.142   6.445  1.7552 -0.4115 -0.0406
 7814TIP3    H244858   0.186   0.123   6.356  2.5315  0.9612  0.6927
 7815TIP3   OH244859   2.699   2.847   3.694 -0.1607  0.1730  0.2241
 7815TIP3    H144860   2.779   2.874   3.739 -1.1063  1.5885  1.0998
 7815TIP3    H244861   2.671   2.768   3.740  0.6502 -0.2842 -0.0312
 7816TIP3   OH244862   5.788   4.705   3.934 -0.6316  0.3728  0.1572
 7816TIP3    H144863   5.749   4.730   3.850 -2.2912  1.7765  1.2775
 7816TIP3    H244864   5.747   4.621   3.956  0.0830 -0.1834 -0.5784
 7817TIP3   OH244865   4.424   3.146  13.479 -0.3754 -0.1801 -0.4181
 7817TIP3    H144866   4.462   3.234  13.469  0.2247 -0.3664  0.1419
 7817TIP3    H244867   4.331   3.162  13.491 -0.1277  0.4973  0.8972
 7818TIP3   OH244868   0.263   4.286   6.090 -0.1075 -0.4117 -0.2830
 7818TIP3    H144869   0.355   4.268   6.104  0.1385  0.6663 -0.3824
 7818TIP3    H244870   0.232   4.216   6.034  0.7593 -0.5376 -0.6138
 7819TIP3   OH244871   4.843   5.777  13.633  0.1019  0.3918 -0.1187
 7819TIP3    H144872   4.938   5.780  13.618  0.0306  0.5354 -0.5708
 7819TIP3    H244873   4.808   5.733  13.556 -0.2218  0.5586 -0.0699
 7820TIP3   OH244874   3.367   5.939  14.609 -0.4575  0.0894 -0.0720
 7820TIP3    H144875   3.280   5.950  14.571 -0.0879  0.2785 -0.8844
 7820TIP3    H244876   3.425   5.926  14.534 -0.1075 -2.3714  0.5297
 7821TIP3   OH244877   0.192   6.633   4.382  0.2224 -0.4975  0.4571
 7821TIP3    H144878   0.208   6.540   4.396 -0.3911 -0.6530  0.1385
 7821TIP3    H244879   0.222   6.650   4.293 -0.5986 -0.6163  0.1491
 7822TIP3   OH244880   3.992   5.558  15.575  0.1380 -0.4854  0.6142
 7822TIP3    H144881   4.067   5.616  15.579  1.2269 -1.7676 -0.2498
 7822TIP3    H244882   3.980   5.527  15.664 -0.7453  1.3556  1.1772
 7823TIP3   OH244883   3.966   1.989   0.204  0.1966 -0.0887  0.6010
 7823TIP3    H144884   3.917   1.911   0.178  0.6820 -0.7275  1.5724
 7823TIP3    H244885   3.922   2.021   0.282  0.9323 -0.3104  1.1228
 7824TIP3   OH244886   5.792   0.801  17.081 -0.5794 -0.1579 -0.8166
 7824TIP3    H144887   5.798   0.880  17.027  0.9257  0.0896 -0.3233
 7824TIP3    H244888   5.714   0.757  17.048 -1.2359  1.3221 -1.3762
 7825TIP3   OH244889   3.864   4.826  15.029  0.3935 -0.1669  0.5767
 7825TIP3    H144890   3.941   4.880  15.013 -0.7975  1.3405 -0.4076
 7825TIP3    H244891   3.818   4.824  14.945 -1.5981  0.5875  1.5747
 7826TIP3   OH244892   5.496   5.681   4.612 -0.5297  0.1645  0.3967
 7826TIP3    H144893   5.401   5.682   4.622 -0.8267 -0.7907 -1.7354
 7826TIP3    H244894   5.524   5.604   4.661 -1.1589 -0.8559 -0.7905
 7827TIP3   OH244895   2.641   1.690   5.555 -0.3651 -0.5773 -0.2050
 7827TIP3    H144896   2.609   1.641   5.630 -1.1794 -3.2673 -2.1762
 7827TIP3    H244897   2.718   1.641   5.525 -0.8850 -0.4147 -1.9300
 7828TIP3   OH244898   4.771   0.859  12.480 -0.3407  0.5004  0.5562
 7828TIP3    H144899   4.834   0.875  12.410 -1.6537  0.8048 -0.6095
 7828TIP3    H244900   4.748   0.947  12.512 -0.6593  0.4418  0.4984
 7829TIP3   OH244901   5.433   2.700  16.675  0.2071 -0.2337 -0.0750
 7829TIP3    H144902   5.433   2.774  16.736  2.5765 -1.2768  1.3346
 7829TIP3    H244903   5.484   2.730  16.600 -0.8176  0.3014 -0.5776
 7830TIP3   OH244904   2.611   4.330  15.590  0.9351 -0.2378 -0.5364
 7830TIP3    H144905   2.546   4.298  15.527 -2.5756  1.1132  2.0879
 7830TIP3    H244906   2.651   4.250  15.625 -0.4249 -1.2149 -1.1382
 7831TIP3   OH244907   0.610   3.325   2.553 -0.2529 -0.0278  0.0161
 7831TIP3    H144908   0.545   3.382   2.595 -0.0940  1.3927 -1.5443
 7831TIP3    H244909   0.694   3.361   2.580 -0.1507  0.7345 -1.2344
 7832TIP3   OH244910   3.103   0.353  13.445 -0.1196  0.7073  0.6648
 7832TIP3    H144911   3.195   0.377  13.446  0.0541  0.3552 -1.7918
 7832TIP3    H244912   3.102   0.262  13.476  0.5706  0.2088 -0.7091
 7833TIP3   OH244913   3.848   5.897  13.786  0.5771  0.2423 -0.0936
 7833TIP3    H144914   3.881   5.944  13.862 -0.8005 -1.2011  1.4691
 7833TIP3    H244915   3.781   5.955  13.748 -0.3626  0.0176  1.1807
 7834TIP3   OH244916   1.181   1.461  11.841  0.3328 -0.0386 -0.7379
 7834TIP3    H144917   1.195   1.510  11.922  0.8528  0.3707 -1.0683
 7834TIP3    H244918   1.119   1.392  11.865 -1.6976  1.7112 -0.5878
 7835TIP3   OH244919   4.733   1.339   2.840  0.2316 -0.3232  0.0354
 7835TIP3    H144920   4.766   1.284   2.912 -2.1109 -2.1854 -0.1820
 7835TIP3    H244921   4.810   1.386   2.809  1.8673 -1.5338  1.9735
 7836TIP3   OH244922   1.339   1.950   2.246 -0.0245  0.3039  0.2996
 7836TIP3    H144923   1.246   1.933   2.227 -0.2846  1.7636  0.1861
 7836TIP3    H244924   1.356   2.036   2.209  0.5227  1.5068  3.0960
 7837TIP3   OH244925   1.583   2.255   0.445 -0.5522  0.1043  0.3320
 7837TIP3    H144926   1.679   2.257   0.438 -0.5122 -0.6833  0.5538
 7837TIP3    H244927   1.553   2.232   0.357 -0.4499 -1.1896  0.6067
 7838TIP3   OH244928   6.312   2.308   0.630  0.4701  0.6967  0.6767
 7838TIP3    H144929   6.380   2.251   0.666 -0.1606 -0.8470 -0.4287
 7838TIP3    H244930   6.360   2.380   0.589  1.5361 -0.6932 -0.6480
 7839TIP3   OH244931   3.382   1.028   0.090 -0.0733  0.5072 -0.7657
 7839TIP3    H144932   3.458   1.028   0.032  1.2632  0.6001  0.8947
 7839TIP3    H244933   3.386   1.112   0.136  1.4127 -1.1271  2.4315
 7840TIP3   OH244934   2.143   1.496   5.879 -0.1552  0.0119 -0.6990
 7840TIP3    H144935   2.195   1.485   5.959  0.1990  1.2741 -0.7370
 7840TIP3    H244936   2.198   1.458   5.810 -0.0756 -0.2865 -0.4737
 7841TIP3   OH244937   5.753   5.950  16.453  0.2506 -0.0795 -0.0296
 7841TIP3    H144938   5.719   5.991  16.532 -3.5463 -0.8495 -1.0748
 7841TIP3    H244939   5.794   5.869  16.482  0.4917  0.4862  1.2581
 7842TIP3   OH244940   5.040   5.497  13.015  0.4009 -0.5838  0.2626
 7842TIP3    H144941   5.133   5.518  13.029  0.2626 -0.8698  1.7808
 7842TIP3    H244942   5.041   5.408  12.980  0.6917 -0.9828  1.2300
 7843TIP3   OH244943   3.642   4.231  14.569  0.3994 -0.3990  0.0338
 7843TIP3    H144944   3.721   4.231  14.515  0.5025 -2.4438  0.1010
 7843TIP3    H244945   3.602   4.316  14.553  2.3420  0.4850 -0.3984
 7844TIP3   OH244946   4.552   2.468  10.900 -0.2305 -1.0597 -0.2978
 7844TIP3    H144947   4.539   2.524  10.823  1.5133 -0.7266 -0.3878
 7844TIP3    H244948   4.541   2.379  10.866 -1.1703 -0.8533 -0.5575
 7845TIP3   OH244949   6.500   5.979   3.245  0.0674  0.2233  0.2629
 7845TIP3    H144950   6.449   6.056   3.221 -0.0771 -0.4135 -1.6594
 7845TIP3    H244951   6.451   5.905   3.207  2.4264 -0.3982 -1.8440
 7846TIP3   OH244952   3.052   3.995   1.840 -0.0141  0.1269 -0.0689
 7846TIP3    H144953   3.010   3.916   1.876 -0.6812  0.0713 -0.9420
 7846TIP3    H244954   3.139   3.995   1.880  0.3271 -1.5453 -0.7048
 7847TIP3   OH244955   5.953   6.601  12.997 -0.0221  0.2461  0.1879
 7847TIP3    H144956   6.015   6.632  13.063 -0.2116 -0.4411  0.7060
 7847TIP3    H244957   5.868   6.635  13.026 -0.3070 -1.0565  1.0132
 7848TIP3   OH244958   4.182   5.103  15.297  0.3374  0.6587  0.0766
 7848TIP3    H144959   4.194   5.140  15.385  0.9251 -0.8231  0.6566
 7848TIP3    H244960   4.236   5.024  15.298 -0.7532 -0.1198 -1.1635
 7849TIP3   OH244961   0.869   4.997  16.722 -0.1318  0.2783  0.0441
 7849TIP3    H144962   0.847   4.985  16.630  0.0408  1.0796 -0.1118
 7849TIP3    H244963   0.916   4.917  16.746  0.3225  0.2994 -0.7237
 7850TIP3   OH244964   4.187   4.235   3.910  0.2223 -0.4655  0.3565
 7850TIP3    H144965   4.165   4.145   3.888 -1.5027 -0.0907  0.4248
 7850TIP3    H244966   4.279   4.232   3.934  0.0934 -2.2681  0.7290
 7851TIP3   OH244967   4.830   2.637   5.855  0.2466 -0.4283  0.2096
 7851TIP3    H144968   4.816   2.613   5.946  0.3001 -1.6597 -0.0812
 7851TIP3    H244969   4.858   2.729   5.858  0.0653 -0.3962  1.4043
 7852TIP3   OH244970   5.849   3.111  14.600 -0.8552  0.0596 -0.5089
 7852TIP3    H144971   5.869   3.165  14.677 -0.7786  0.4108 -0.7763
 7852TIP3    H244972   5.830   3.024  14.637 -0.3657  0.1068 -0.1288
 7853TIP3   OH244973   3.389   5.845  15.818  0.2307  0.0564 -0.4263
 7853TIP3    H144974   3.378   5.861  15.725  2.2064 -1.1341 -0.9190
 7853TIP3    H244975   3.462   5.783  15.824  1.1153  1.1904  1.9883
 7854TIP3   OH244976   2.374   6.019   3.479  0.3317 -0.0020  0.2374
 7854TIP3    H144977   2.434   5.969   3.533 -0.3629 -0.8678  0.2353
 7854TIP3    H244978   2.381   5.979   3.392  0.0831  0.1811  0.1322
 7855TIP3   OH244979   3.152   3.206   3.542 -0.4309  0.5233  0.5381
 7855TIP3    H144980   3.134   3.195   3.449  0.0799 -1.2732  0.6134
 7855TIP3    H244981   3.224   3.270   3.545  0.8009 -0.7639 -0.4335
 7856TIP3   OH244982   0.157   3.077   1.909 -0.1250 -0.1885  0.0079
 7856TIP3    H144983   0.172   3.105   1.819  2.0031 -0.2876  0.2663
 7856TIP3    H244984   0.175   2.983   1.909  0.2114 -0.1347  0.5714
 7857TIP3   OH244985   4.595   2.975  17.240  0.2029 -0.4213  0.1828
 7857TIP3    H144986   4.571   2.933  17.323 -0.9037  1.1537  0.7016
 7857TIP3    H244987   4.675   3.023  17.260 -0.4417  0.5287  0.5651
 7858TIP3   OH244988   4.231   6.526  13.053 -0.0218 -0.5112 -0.6840
 7858TIP3    H144989   4.282   6.535  13.133  0.5769  0.2140 -1.1429
 7858TIP3    H244990   4.296   6.515  12.984 -0.5462 -1.6896 -1.0194
 7859TIP3   OH244991   5.709   5.804   2.446 -0.3932  0.4263  0.0781
 7859TIP3    H144992   5.748   5.872   2.390 -1.0787  1.0859  0.3817
 7859TIP3    H244993   5.782   5.747   2.468  0.8064  2.4800  1.8932
 7860TIP3   OH244994   1.852   0.676   5.037  0.4279 -0.1625 -0.8144
 7860TIP3    H144995   1.765   0.678   5.076  0.4530  0.6293 -0.7736
 7860TIP3    H244996   1.847   0.735   4.962  0.9773  0.0574 -0.6899
 7861TIP3   OH244997   0.199   1.335   5.463  0.1302  0.7164 -0.2326
 7861TIP3    H144998   0.290   1.333   5.433 -0.4928  0.3595 -2.2357
 7861TIP3    H244999   0.205   1.358   5.555  2.3250 -0.5975  0.0235
 7862TIP3   OH245000   2.003   5.181  15.292  0.1502  0.9465  0.1098
 7862TIP3    H145001   2.073   5.169  15.227  0.4651  0.9902  0.4416
 7862TIP3    H245002   1.923   5.159  15.244  0.3747  1.0223 -0.3122
 7863TIP3   OH245003   6.604   6.132   5.008  0.2872 -0.0981  0.3814
 7863TIP3    H145004   6.567   6.180   4.934 -0.0680 -0.8565  0.0560
 7863TIP3    H245005   6.689   6.100   4.977 -0.3043 -1.3014 -0.0890
 7864TIP3   OH245006   6.451   0.680  15.090 -0.3804 -0.1719 -0.4489
 7864TIP3    H145007   6.496   0.650  15.169 -0.6465 -0.3209 -0.3508
 7864TIP3    H245008   6.436   0.600  15.039 -1.1786 -0.2217 -0.1441
 7865TIP3   OH245009   5.307   3.935  12.964 -0.0749 -0.0916 -0.3847
 7865TIP3    H145010   5.233   3.991  12.988  1.1218  2.0740 -1.4824
 7865TIP3    H245011   5.381   3.968  13.014  0.8531 -0.1089 -1.6937
 7866TIP3   OH245012   0.466   2.462  14.596 -0.3005 -0.2626  0.0744
 7866TIP3    H145013   0.531   2.472  14.527 -0.9002 -1.0708 -0.6265
 7866TIP3    H245014   0.515   2.428  14.671 -0.0250 -1.5290 -0.6664
 7867TIP3   OH245015   6.564   0.421   3.425  0.3153 -0.5061  0.0587
 7867TIP3    H145016   6.484   0.474   3.420  0.7603  0.0730 -2.1049
 7867TIP3    H245017   6.536   0.333   3.398  0.6254  0.0697 -2.4124
 7868TIP3   OH245018   3.038   1.037  13.294 -0.0320  0.1201 -0.5083
 7868TIP3    H145019   3.081   0.967  13.343 -0.8948 -0.2760 -0.3064
 7868TIP3    H245020   3.106   1.104  13.285  0.3770 -0.1247  0.5472
 7869TIP3   OH245021   2.582   2.827  15.067  0.3363  0.1616  0.1416
 7869TIP3    H145022   2.667   2.836  15.110  0.2291  1.2499  0.1638
 7869TIP3    H245023   2.529   2.778  15.129  0.7782 -0.0290  0.3734
 7870TIP3   OH245024   0.081   3.400  12.295  0.2502 -0.1521  0.4070
 7870TIP3    H145025  -0.004   3.443  12.290  0.2744 -0.1591 -0.0778
 7870TIP3    H245026   0.067   3.313  12.259 -0.1751 -1.1736  2.8158
 7871TIP3   OH245027   1.924   0.140  14.709 -0.0269  0.1442 -0.5350
 7871TIP3    H145028   1.858   0.083  14.671  1.0263  0.9865 -4.0040
 7871TIP3    H245029   1.902   0.228  14.678  1.3278  0.8290  0.3099
 7872TIP3   OH245030   0.027   5.539  13.670  0.0437 -0.0312  0.1968
 7872TIP3    H145031  -0.050   5.540  13.613  0.1566  1.5127  0.0452
 7872TIP3    H245032  -0.010   5.545  13.759 -0.0233  2.4839  0.0700
 7873TIP3   OH245033   2.697   0.795   6.770 -0.6829 -0.3062 -0.1673
 7873TIP3    H145034   2.717   0.710   6.731 -2.2991 -0.7248 -0.1778
 7873TIP3    H245035   2.667   0.775   6.859 -0.6533  0.2913 -0.0136
 7874TIP3   OH245036   3.037   1.065   1.432 -0.3907  0.4116 -0.4599
 7874TIP3    H145037   2.966   1.110   1.386 -1.8404  0.0563  1.2817
 7874TIP3    H245038   3.038   0.977   1.394 -0.4481  0.6211 -0.9482
 7875TIP3   OH245039   2.236   1.583  11.571 -0.1620 -0.4287 -0.1468
 7875TIP3    H145040   2.199   1.664  11.534  1.2837 -0.6067 -2.1448
 7875TIP3    H245041   2.308   1.613  11.626 -1.4819 -0.2427  1.5679
 7876TIP3   OH245042   0.985   4.008   0.178  0.0279 -0.4989 -0.3313
 7876TIP3    H145043   0.993   4.019   0.273 -0.6229 -2.4199  0.0046
 7876TIP3    H245044   0.968   4.096   0.145 -1.4815  0.0120  1.5584
 7877TIP3   OH245045   3.373   3.842   5.057  0.3105 -0.0527  0.6170
 7877TIP3    H145046   3.385   3.872   4.967 -0.3569  0.8198  0.8004
 7877TIP3    H245047   3.362   3.747   5.050 -0.7094  0.1154 -0.3316
 7878TIP3   OH245048   4.976   5.676   5.228  0.3090  0.0954  0.2590
 7878TIP3    H145049   5.068   5.702   5.236 -0.0224  1.1343  0.8603
 7878TIP3    H245050   4.934   5.749   5.184  0.2253 -1.4614 -2.4875
 7879TIP3   OH245051   5.286   0.600   1.961 -0.3827 -0.0336  0.4592
 7879TIP3    H145052   5.306   0.656   2.037 -2.5526 -0.7690  1.6664
 7879TIP3    H245053   5.271   0.662   1.889  3.7344  0.6241 -0.0501
 7880TIP3   OH245054   5.607   1.098  10.826 -0.4073 -0.3479 -0.3786
 7880TIP3    H145055   5.687   1.109  10.776 -1.3682  1.1946 -1.6680
 7880TIP3    H245056   5.627   1.135  10.912  0.0506  0.7506 -0.9397
 7881TIP3   OH245057   6.206   3.582  11.143  0.4073 -0.0272  0.0359
 7881TIP3    H145058   6.116   3.579  11.108  1.0599  0.7166 -1.8650
 7881TIP3    H245059   6.234   3.491  11.145 -0.4035 -0.2782  0.7468
 7882TIP3   OH245060   6.022   2.535   4.894  0.2310 -1.0643  0.1842
 7882TIP3    H145061   6.087   2.592   4.852 -2.0548 -0.8247 -3.4574
 7882TIP3    H245062   5.954   2.595   4.925 -0.2389 -1.5545  0.1149
 7883TIP3   OH245063   2.595   0.960   3.294 -0.0733  0.0476  0.6832
 7883TIP3    H145064   2.660   1.018   3.255 -1.2218  0.8092 -0.1424
 7883TIP3    H245065   2.510   0.998   3.270 -0.8606 -1.7216  0.4820
 7884TIP3   OH245066   1.693   1.454  12.101 -0.0793 -0.3275  0.5300
 7884TIP3    H145067   1.721   1.478  12.189  1.1628  2.3881 -0.4896
 7884TIP3    H245068   1.768   1.408  12.063  0.5102  0.9980  0.0200
 7885TIP3   OH245069   3.735   4.581  11.877  0.1162 -0.0075  0.0823
 7885TIP3    H145070   3.714   4.651  11.815 -3.1201  0.0172  1.0331
 7885TIP3    H245071   3.654   4.530  11.884  1.8002 -2.7973  0.8048
 7886TIP3   OH245072   2.599   4.011  16.554 -0.1755  0.0723  0.6477
 7886TIP3    H145073   2.663   3.944  16.576 -1.1122 -0.6999  1.1330
 7886TIP3    H245074   2.562   3.982  16.470 -2.9807 -1.9842  2.3896
 7887TIP3   OH245075   1.366   6.701   0.938 -0.2268  0.3694 -0.3463
 7887TIP3    H145076   1.388   6.655   0.858 -2.1563 -1.0436 -0.1611
 7887TIP3    H245077   1.287   6.751   0.916 -0.5150  0.3255  0.5415
 7888TIP3   OH245078   1.516   5.109   0.751  0.3989  0.1007  0.0288
 7888TIP3    H145079   1.517   5.182   0.689  2.7843  0.3030  0.2032
 7888TIP3    H245080   1.557   5.144   0.830 -0.4506 -0.8256  0.9144
 7889TIP3   OH245081   4.535   0.601  14.442 -0.1505 -0.1563  0.4623
 7889TIP3    H145082   4.507   0.628  14.354 -1.4731 -0.3118  0.8193
 7889TIP3    H245083   4.587   0.522  14.428  1.0066  0.6960 -0.3040
 7890TIP3   OH245084   5.182   0.709   0.992  0.4364  0.9114  0.0324
 7890TIP3    H145085   5.108   0.769   0.994 -2.9362 -2.8381  1.3904
 7890TIP3    H245086   5.216   0.709   1.082  0.0244  0.4041  0.1944
 7891TIP3   OH245087   5.819   4.053  13.630  1.5448  0.6454  0.5091
 7891TIP3    H145088   5.823   4.057  13.725  1.2577  1.2166  0.5015
 7891TIP3    H245089   5.877   4.124  13.601  0.8746  1.1070  0.2729
 7892TIP3   OH245090   3.455   6.617   4.298 -0.2824  0.0502 -0.1595
 7892TIP3    H145091   3.500   6.624   4.214 -0.2860  0.3834 -0.1362
 7892TIP3    H245092   3.370   6.580   4.277 -0.5388  0.7604 -0.3951
 7893TIP3   OH245093   5.567   6.260   5.762 -0.2281 -0.2407 -0.1488
 7893TIP3    H145094   5.657   6.251   5.733 -0.7107 -1.2545 -1.4292
 7893TIP3    H245095   5.574   6.285   5.854  1.3610 -2.0335  0.2864
 7894TIP3   OH245096   1.319   4.207  15.575 -0.1975  0.0653  0.5431
 7894TIP3    H145097   1.392   4.268  15.587 -0.3127  0.1037  1.0898
 7894TIP3    H245098   1.247   4.246  15.624 -1.1428  0.9413 -1.4561
 7895TIP3   OH245099   6.659   2.852   0.959 -0.0576  0.2693 -1.2874
 7895TIP3    H145100   6.644   2.930   0.905  2.1544  3.2475  1.9169
 7895TIP3    H245101   6.582   2.847   1.016 -1.5309 -1.7760 -3.2836
 7896TIP3   OH245102   5.744   0.017   6.152 -0.0390  0.0335  0.1844
 7896TIP3    H145103   5.776   0.103   6.181  1.4690 -0.3609 -0.1859
 7896TIP3    H245104   5.809  -0.045   6.187  1.2721 -0.5654 -2.9973
 7897TIP3   OH245105   0.782   4.065  12.821  0.8354 -0.1163  0.1604
 7897TIP3    H145106   0.810   4.002  12.755 -1.7867 -1.7610  0.4569
 7897TIP3    H245107   0.770   4.146  12.772  0.3743 -0.9160 -1.1089
 7898TIP3   OH245108   0.334   3.927  14.620  0.4761 -0.0627  0.5566
 7898TIP3    H145109   0.394   3.880  14.678 -0.6566 -2.2054  0.1073
 7898TIP3    H245110   0.336   4.017  14.652  2.4311 -0.4636  1.7532
 7899TIP3   OH245111   1.007   6.755  10.553 -0.8293 -0.5498  0.1327
 7899TIP3    H145112   1.011   6.849  10.568  0.1651 -0.3839 -0.9977
 7899TIP3    H245113   0.956   6.747  10.472 -0.0908 -0.8936 -0.3130
 7900TIP3   OH245114   0.246   1.010   5.566 -0.3330 -0.2974  0.1524
 7900TIP3    H145115   0.280   0.937   5.617  0.7648 -0.7639 -1.1869
 7900TIP3    H245116   0.317   1.074   5.566  0.1667 -0.8049 -1.7377
 7901TIP3   OH245117   6.391   6.568   4.332 -0.0352  0.1528 -0.1352
 7901TIP3    H145118   6.486   6.565   4.324 -0.1863 -1.5197 -1.9247
 7901TIP3    H245119   6.366   6.652   4.292  0.4699 -1.2202 -3.7402
 7902TIP3   OH245120   5.617   6.315  13.182 -0.1959 -0.0510 -0.3095
 7902TIP3    H145121   5.582   6.226  13.184  2.3699 -1.1441  0.5622
 7902TIP3    H245122   5.673   6.316  13.105  1.0249  0.2526  0.5564
 7903TIP3   OH245123   2.587   1.087   2.052  0.4341 -0.8015 -0.4114
 7903TIP3    H145124   2.639   1.166   2.067 -1.1636 -0.0471  1.5723
 7903TIP3    H245125   2.596   1.071   1.958  3.4574 -0.2341 -0.3293
 7904TIP3   OH245126   1.724   0.503   3.491 -0.4195 -0.7837  0.1812
 7904TIP3    H145127   1.774   0.575   3.529  0.7187 -2.6885  2.6152
 7904TIP3    H245128   1.639   0.541   3.469  0.7060  1.6401 -0.3292
 7905TIP3   OH245129   3.041   6.518  13.314  0.6968  0.2998  0.1451
 7905TIP3    H145130   2.995   6.575  13.376  0.9213 -1.0278  1.5920
 7905TIP3    H245131   2.980   6.446  13.297  1.0963  0.0481 -0.2618
 7906TIP3   OH245132   1.396   0.366   0.896  0.1688  0.2370  0.1728
 7906TIP3    H145133   1.442   0.282   0.891  0.1459  0.2497 -0.2610
 7906TIP3    H245134   1.449   0.418   0.956  1.0955  0.4762 -0.8230
 7907TIP3   OH245135   3.235   4.883  12.881  0.5344 -0.0869 -0.1275
 7907TIP3    H145136   3.153   4.836  12.865  0.4149 -0.2154  0.8032
 7907TIP3    H245137   3.208   4.960  12.931  1.0788 -0.6445  1.0648
 7908TIP3   OH245138   3.829   1.352  14.668  0.1680 -0.0390 -0.2112
 7908TIP3    H145139   3.834   1.352  14.573 -1.6086  1.0041 -0.3463
 7908TIP3    H245140   3.736   1.361  14.688  0.4216 -0.8925  1.6445
 7909TIP3   OH245141   1.051   2.787   3.254 -0.3324 -0.7242 -0.4055
 7909TIP3    H145142   0.991   2.726   3.210 -0.8836 -1.1459  0.8877
 7909TIP3    H245143   1.002   2.818   3.330  1.6728 -2.4546  1.7231
 7910TIP3   OH245144   4.009   1.740   5.820  0.0408 -0.1735  0.1384
 7910TIP3    H145145   4.087   1.767   5.868 -1.3071 -1.3148  3.2422
 7910TIP3    H245146   3.949   1.813   5.829 -0.1238 -0.2862 -0.0533
 7911TIP3   OH245147   4.838   3.789  13.202  0.4677  0.2060  0.3395
 7911TIP3    H145148   4.827   3.813  13.294  1.8038  0.3933  0.4654
 7911TIP3    H245149   4.750   3.765  13.173  0.0950 -0.2492  1.7683
 7912TIP3   OH245150   5.246   5.678   0.646  0.0270 -0.6584  0.6639
 7912TIP3    H145151   5.335   5.712   0.655 -0.1163  0.0280 -0.3271
 7912TIP3    H245152   5.204   5.738   0.584 -0.7187 -1.7439  0.0957
 7913TIP3   OH245153   0.392   4.354  13.868 -0.1122  0.1502  0.2212
 7913TIP3    H145154   0.334   4.420  13.829 -0.9056 -1.5416 -1.6646
 7913TIP3    H245155   0.336   4.277  13.879  1.5900 -1.3818 -1.1707
 7914TIP3   OH245156   0.084   5.329  14.307  0.1823  0.2510  0.2484
 7914TIP3    H145157  -0.010   5.345  14.300 -0.0315  0.2090  2.2910
 7914TIP3    H245158   0.123   5.387  14.242 -1.3199 -1.5609 -2.4972
 7915TIP3   OH245159   1.249   4.896  12.712 -0.4208  0.2848  0.0625
 7915TIP3    H145160   1.282   4.850  12.789  0.8835  1.3237  0.1710
 7915TIP3    H245161   1.321   4.955  12.687 -0.4477 -0.6397 -2.4825
 7916TIP3   OH245162   0.906   2.301   3.044 -0.0444  0.1512  0.1038
 7916TIP3    H145163   0.957   2.228   3.079  0.3847 -0.5528 -1.8688
 7916TIP3    H245164   0.815   2.271   3.051  0.0533 -0.1173  0.2870
 7917TIP3   OH245165   3.234   4.269  16.966  0.2740  0.3919  0.3325
 7917TIP3    H145166   3.163   4.216  16.930 -0.0099  0.7493  0.3561
 7917TIP3    H245167   3.261   4.223  17.044 -0.7390  0.8550  0.9835
 7918TIP3   OH245168   5.507   6.102  16.298  0.0168 -0.1299 -0.3236
 7918TIP3    H145169   5.566   6.173  16.274 -1.4622  0.5076 -2.3161
 7918TIP3    H245170   5.497   6.110  16.393  0.6902  1.6545 -0.3753
 7919TIP3   OH245171   6.551   4.282   2.440  0.4814 -0.2858 -0.1390
 7919TIP3    H145172   6.608   4.242   2.505 -0.2915  0.6824  1.1990
 7919TIP3    H245173   6.515   4.359   2.484  1.3759  1.5265 -2.3476
 7920TIP3   OH245174   2.248   1.501   3.412  0.0603  0.0397 -0.2719
 7920TIP3    H145175   2.245   1.592   3.383  1.3727 -0.1744 -1.1719
 7920TIP3    H245176   2.341   1.485   3.429  0.0952 -1.6044 -1.7462
 7921TIP3   OH245177   5.728   0.932  11.507 -0.4895  0.5540 -0.3334
 7921TIP3    H145178   5.798   0.930  11.442  0.9714  1.4502  1.1409
 7921TIP3    H245179   5.773   0.940  11.591 -2.2570 -1.6449  0.9343
 7922TIP3   OH245180   1.149   6.057   3.342 -0.3016  0.1142  0.6098
 7922TIP3    H145181   1.203   5.985   3.376  0.3112  1.2438  2.1039
 7922TIP3    H245182   1.078   6.066   3.405 -2.4239 -1.4033 -1.3759
 7923TIP3   OH245183   2.074   6.501  13.649  0.2011 -0.2758  0.0900
 7923TIP3    H145184   1.985   6.471  13.665  0.0285 -0.7235 -1.5752
 7923TIP3    H245185   2.067   6.597  13.648  0.0346 -0.2489  1.4094
 7924TIP3   OH245186   5.862   0.231  12.521  0.5141  0.2933  0.3093
 7924TIP3    H145187   5.788   0.172  12.505 -1.5641  2.4317  1.4545
 7924TIP3    H245188   5.905   0.194  12.599  0.1662 -0.5243  0.1224
 7925TIP3   OH245189   1.064   2.440  17.291  0.2029  0.0503 -0.2675
 7925TIP3    H145190   1.000   2.467  17.357  0.5833  0.2629  0.0146
 7925TIP3    H245191   1.136   2.503  17.299  1.1438 -1.0634  0.4620
 7926TIP3   OH245192   5.734   0.025   2.863 -0.2358 -0.5892 -0.7794
 7926TIP3    H145193   5.776   0.039   2.778  1.2387  1.5742  0.2069
 7926TIP3    H245194   5.806   0.033   2.926 -1.4570 -1.1663  0.7468
 7927TIP3   OH245195   3.189   2.442  11.160  0.2726 -0.4250 -0.2894
 7927TIP3    H145196   3.124   2.434  11.089  1.2716 -2.4190 -1.0808
 7927TIP3    H245197   3.214   2.534  11.159  0.2640 -0.3751 -2.5977
 7928TIP3   OH245198   1.811   4.749  13.209 -0.3655 -0.1587 -0.3182
 7928TIP3    H145199   1.847   4.837  13.207 -2.6860  0.8652 -0.8288
 7928TIP3    H245200   1.883   4.692  13.181  0.6576  1.7866 -1.8883
 7929TIP3   OH245201   3.061   3.146  13.957 -0.3879 -0.1814  0.4845
 7929TIP3    H145202   2.990   3.210  13.967 -1.6846 -1.1151 -2.0837
 7929TIP3    H245203   3.056   3.093  14.037  0.4821  2.5453  2.5192
 7930TIP3   OH245204   0.630   5.917  15.248  0.0565  0.7579 -0.0770
 7930TIP3    H145205   0.573   5.846  15.219 -1.1923  1.7672 -0.2157
 7930TIP3    H245206   0.694   5.927  15.177  0.8450 -0.8250  0.3778
 7931TIP3   OH245207   4.151   5.392   4.342 -0.2677  0.0580 -0.1525
 7931TIP3    H145208   4.082   5.342   4.300 -0.3524  0.9341 -1.0935
 7931TIP3    H245209   4.120   5.482   4.341  0.4569  0.3299  0.3192
 7932TIP3   OH245210   5.490   5.664   1.704  0.6160  0.3761  0.3479
 7932TIP3    H145211   5.459   5.750   1.678  0.7822  0.9646  1.9965
 7932TIP3    H245212   5.497   5.668   1.799 -2.6006 -2.4755  0.9336
 7933TIP3   OH245213   4.019   2.054  16.018 -0.1078 -0.8161  0.1924
 7933TIP3    H145214   3.956   2.106  16.069  0.3971  0.3046 -0.2802
 7933TIP3    H245215   3.971   2.032  15.938  0.0664  0.0429 -0.1710
 7934TIP3   OH245216   1.324   1.988  14.516  0.3932  0.0028  0.1677
 7934TIP3    H145217   1.394   1.965  14.456 -1.6749  3.1558 -3.9669
 7934TIP3    H245218   1.247   1.998  14.461 -2.0959  1.8659  3.5816
 7935TIP3   OH245219   1.097   0.558   0.709 -0.4916 -0.5208  0.0936
 7935TIP3    H145220   1.150   0.596   0.779 -0.5763 -0.3848  0.0862
 7935TIP3    H245221   1.078   0.469   0.738 -1.3771 -0.1499  0.7304
 7936TIP3   OH245222   0.090   6.049  11.782 -0.4397 -0.1540 -0.3040
 7936TIP3    H145223   0.075   6.061  11.688 -2.3308 -0.8365 -0.1369
 7936TIP3    H245224   0.034   5.974  11.805  1.4018 -1.1963  1.0191
 7937TIP3   OH245225   6.156   0.953   1.946 -0.4320  0.0935 -0.0025
 7937TIP3    H145226   6.205   0.994   1.875  0.6074  1.1315  1.2491
 7937TIP3    H245227   6.093   1.020   1.973 -0.1979  0.0614  0.6432
 7938TIP3   OH245228   1.082   1.618   0.822 -0.4535  0.3773 -0.2522
 7938TIP3    H145229   1.082   1.699   0.771  0.2777  0.6454  0.1618
 7938TIP3    H245230   1.024   1.636   0.896  1.9267  1.6099  1.4644
 7939TIP3   OH245231   6.450   2.727  15.801 -0.5987 -0.2620  0.2071
 7939TIP3    H145232   6.538   2.766  15.801 -0.4117 -0.6696 -1.1700
 7939TIP3    H245233   6.461   2.644  15.847 -0.4168 -0.0054  0.6408
 7940TIP3   OH245234   2.159   5.216   1.688  0.5775  0.1261 -0.3511
 7940TIP3    H145235   2.211   5.229   1.767 -0.6453 -0.9940  0.7071
 7940TIP3    H245236   2.107   5.138   1.707  0.2273 -0.1565 -2.2749
 7941TIP3   OH245237   5.441   0.550  12.838  0.2201 -0.1413 -0.1456
 7941TIP3    H145238   5.365   0.494  12.857 -0.1868  0.6253  0.5601
 7941TIP3    H245239   5.484   0.508  12.763  0.0085 -1.4736  0.4461
 7942TIP3   OH245240   4.140   3.551  15.724 -0.8284 -0.1958 -0.4120
 7942TIP3    H145241   4.070   3.613  15.746 -0.3813  1.5435 -3.3470
 7942TIP3    H245242   4.193   3.546  15.803 -0.9068  3.2297  0.0234
 7943TIP3   OH245243   1.676   1.938  16.968  0.0349 -0.0067  0.3226
 7943TIP3    H145244   1.674   2.029  16.939  1.0787 -0.1340 -0.2217
 7943TIP3    H245245   1.755   1.902  16.927 -1.9365 -2.0177 -2.0325
 7944TIP3   OH245246   1.493   4.156  14.201  0.9276 -0.1609 -0.1186
 7944TIP3    H145247   1.412   4.167  14.250  1.6346 -0.4925  1.1767
 7944TIP3    H245248   1.474   4.191  14.114 -0.7645 -0.7621 -0.0224
 7945TIP3   OH245249   6.105   4.424   0.223 -0.7953  0.9217  0.9686
 7945TIP3    H145250   6.032   4.434   0.283 -1.0892  0.6727  0.6588
 7945TIP3    H245251   6.169   4.371   0.271 -1.2610  0.2576  0.8653
 7946TIP3   OH245252   3.797   1.825  13.886  0.3618  0.6298  0.7229
 7946TIP3    H145253   3.804   1.730  13.882 -1.5719  0.4700 -0.6231
 7946TIP3    H245254   3.789   1.845  13.980  1.0712 -0.4744  1.0390
 7947TIP3   OH245255   5.965   0.561  14.828 -0.1507 -0.1132  0.7035
 7947TIP3    H145256   5.928   0.539  14.914 -2.2428  0.8825  0.1221
 7947TIP3    H245257   6.054   0.590  14.847 -1.3691  2.6656  2.9405
 7948TIP3   OH245258   5.950   2.910   2.364 -0.5807 -0.5475 -0.0648
 7948TIP3    H145259   5.989   2.912   2.452 -0.3384 -3.2601 -0.0421
 7948TIP3    H245260   6.013   2.956   2.309  0.2267 -0.5482  0.8390
 7949TIP3   OH245261   6.758   6.326  14.012 -0.2857 -0.1502  0.2386
 7949TIP3    H145262   6.775   6.335  14.105  0.7115 -0.8406  0.1312
 7949TIP3    H245263   6.749   6.232  13.998 -1.1881 -0.0111 -0.2483
 7950TIP3   OH245264   1.366   3.598  11.323  0.1808  0.0615 -0.3927
 7950TIP3    H145265   1.338   3.605  11.232 -1.0468  1.0356  0.0284
 7950TIP3    H245266   1.433   3.666  11.332  0.7815 -0.4778 -0.7259
 7951TIP3   OH245267   4.039   2.800  11.276 -0.1702  0.0132  0.4017
 7951TIP3    H145268   3.965   2.745  11.252 -0.2117 -0.6418  1.8851
 7951TIP3    H245269   4.092   2.745  11.335  0.4814  1.1045  0.8748
 7952TIP3   OH245270   4.349   3.536  14.626  0.0696  0.0014 -0.3490
 7952TIP3    H145271   4.394   3.572  14.550 -1.0607  0.0333 -1.0305
 7952TIP3    H245272   4.310   3.454  14.594  2.5003 -1.8734  1.1241
 7953TIP3   OH245273   6.096   2.487   0.381  0.2011 -0.1904  0.5835
 7953TIP3    H145274   6.178   2.465   0.337 -0.4564  2.1129 -2.1203
 7953TIP3    H245275   6.028   2.472   0.315 -1.0691  1.7483  1.3298
 7954TIP3   OH245276   4.523   1.084  11.208  0.0410 -0.0212  0.2129
 7954TIP3    H145277   4.545   0.996  11.240  1.5658 -0.4066 -1.7045
 7954TIP3    H245278   4.531   1.140  11.285  0.4951 -1.3539  1.1735
 7955TIP3   OH245279   2.531   4.696   3.407  0.3414  0.1457 -0.3236
 7955TIP3    H145280   2.452   4.749   3.413 -1.7000 -2.6846  0.4248
 7955TIP3    H245281   2.547   4.667   3.497  0.9415 -1.0189 -0.7757
 7956TIP3   OH245282   5.552   2.503   6.245 -0.3169 -0.0112  0.3082
 7956TIP3    H145283   5.567   2.414   6.213 -2.6100 -0.1158 -0.6704
 7956TIP3    H245284   5.640   2.541   6.251  0.6028 -1.7908 -0.8824
 7957TIP3   OH245285   6.160   0.086   6.225 -0.1078 -0.1218 -0.0708
 7957TIP3    H145286   6.203   0.058   6.306 -1.4789  2.9732  1.9339
 7957TIP3    H245287   6.204   0.167   6.201 -0.0674 -0.7253 -2.1978
 7958TIP3   OH245288   1.282   0.989   3.636  0.4729 -0.4129  0.3719
 7958TIP3    H145289   1.336   0.987   3.714  2.0133  0.7560 -0.5978
 7958TIP3    H245290   1.297   0.904   3.594 -0.6406 -1.1880  1.4778
 7959TIP3   OH245291   4.895   2.593  12.201  0.5258 -0.1368 -0.1986
 7959TIP3    H145292   4.811   2.595  12.155  1.2794  0.3688 -1.6267
 7959TIP3    H245293   4.942   2.520  12.161  1.3798  0.6042 -0.5816
 7960TIP3   OH245294   4.729   3.378  11.505  0.2285  0.0557 -0.0425
 7960TIP3    H145295   4.776   3.447  11.458 -1.9880  1.1948 -0.7209
 7960TIP3    H245296   4.738   3.301  11.449  0.9775  0.3211 -0.3081
 7961TIP3   OH245297   6.745   2.412   1.469  0.2154 -0.1347 -0.7535
 7961TIP3    H145298   6.713   2.351   1.535  2.5231  0.0017  0.6139
 7961TIP3    H245299   6.707   2.496   1.492  0.2591 -0.2771 -0.1647
 7962TIP3   OH245300   5.468   0.611  16.339  0.2010  0.0290  0.0138
 7962TIP3    H145301   5.509   0.620  16.425  0.2342  1.2927 -0.1221
 7962TIP3    H245302   5.374   0.608  16.356  0.2486 -1.5435  0.2150
 7963TIP3   OH245303   0.625   4.962   2.441  0.1384 -0.0240 -0.3349
 7963TIP3    H145304   0.669   4.987   2.523 -1.0610  0.0745  0.3035
 7963TIP3    H245305   0.619   4.866   2.446 -0.3588  0.0141 -0.0608
 7964TIP3   OH245306   1.094   4.159  10.759 -0.5679  0.4275  0.5361
 7964TIP3    H145307   1.048   4.131  10.680 -0.9466 -2.9821  1.8269
 7964TIP3    H245308   1.037   4.225  10.798 -1.5520  0.3829 -0.7729
 7965TIP3   OH245309   5.869   3.013  15.595 -0.6125  0.3646  0.4442
 7965TIP3    H145310   5.800   2.959  15.556 -0.7974  0.4522  0.6433
 7965TIP3    H245311   5.948   2.960  15.590 -0.4327  0.7432 -0.9138
 7966TIP3   OH245312   3.999   3.499   5.857  0.7431 -0.5972  0.0320
 7966TIP3    H145313   4.011   3.459   5.771 -0.5488 -3.3463  1.0232
 7966TIP3    H245314   3.906   3.486   5.876  0.9856  0.0553  1.7969
 7967TIP3   OH245315   2.483   6.541  14.638  0.3974 -0.3374  0.8027
 7967TIP3    H145316   2.440   6.515  14.557 -1.3713  0.0520  1.5490
 7967TIP3    H245317   2.563   6.585  14.611  0.7630 -1.8233 -0.6401
 7968TIP3   OH245318   2.361   5.753   2.125 -0.0081  0.1027 -0.5802
 7968TIP3    H145319   2.378   5.683   2.061  1.7031 -0.9246  0.9037
 7968TIP3    H245320   2.318   5.822   2.074  0.3372 -1.0946 -2.6027
 7969TIP3   OH245321   1.107   4.255  16.113 -0.9040 -0.6433  0.2652
 7969TIP3    H145322   1.198   4.264  16.140 -0.9756  1.0209  0.0132
 7969TIP3    H245323   1.072   4.344  16.114 -1.7559 -0.8589 -2.2661
 7970TIP3   OH245324   1.517   1.736  11.825 -0.4507  0.1726  0.0222
 7970TIP3    H145325   1.511   1.641  11.821  0.0306  0.0892  0.9878
 7970TIP3    H245326   1.605   1.753  11.860 -0.2580  0.9941 -0.8045
 7971TIP3   OH245327   1.529   1.866  15.435  0.0727  0.2621 -0.1310
 7971TIP3    H145328   1.473   1.943  15.440 -1.1973 -0.6557  0.1199
 7971TIP3    H245329   1.483   1.806  15.376  0.9730 -0.3664 -0.2189
 7972TIP3   OH245330   1.776   1.469   5.005 -0.0903  0.1125  0.1211
 7972TIP3    H145331   1.820   1.527   4.944 -1.3561  0.2831 -0.6772
 7972TIP3    H245332   1.791   1.509   5.091 -0.5180  1.3763 -0.3604
 7973TIP3   OH245333   3.846   5.772  12.369  0.0555  0.2032  0.4895
 7973TIP3    H145334   3.789   5.812  12.435  0.5121  1.1372  0.3382
 7973TIP3    H245335   3.901   5.711  12.418  0.0709  0.5464  0.9064
 7974TIP3   OH245336   4.700   6.047  15.840 -0.3279  0.1606 -0.2440
 7974TIP3    H145337   4.611   6.058  15.874 -1.0747  0.6731 -2.1920
 7974TIP3    H245338   4.698   6.089  15.754  2.2213  1.5017  0.2403
 7975TIP3   OH245339   6.143   0.972  11.564  0.1150 -0.5982 -0.0494
 7975TIP3    H145340   6.158   0.899  11.623  0.4044 -0.8488 -0.4301
 7975TIP3    H245341   6.206   0.960  11.493 -0.6909 -0.7093 -0.7804
 7976TIP3   OH245342   4.215   2.943  12.076 -0.0279  0.2803  0.7000
 7976TIP3    H145343   4.264   2.901  12.147  0.0950 -0.3609  0.2402
 7976TIP3    H245344   4.134   2.893  12.070  0.1212  0.1048  0.1429
 7977TIP3   OH245345   1.229   2.199  11.680  0.2210 -0.6783  0.3467
 7977TIP3    H145346   1.159   2.261  11.661  0.6458  0.0606  1.1297
 7977TIP3    H245347   1.268   2.181  11.595 -1.0577 -1.2899 -0.1400
 7978TIP3   OH245348   0.768   4.556   5.873 -0.2763  0.4524  0.7798
 7978TIP3    H145349   0.840   4.602   5.828 -0.2827 -1.1122 -0.9422
 7978TIP3    H245350   0.804   4.535   5.959  0.7539  1.1206  0.5366
 7979TIP3   OH245351   5.069   3.771   1.253 -0.1910  0.8424  0.0888
 7979TIP3    H145352   5.107   3.858   1.246  3.1581 -0.4454  0.3402
 7979TIP3    H245353   5.074   3.735   1.165  1.4472 -0.1488  0.5438
 7980TIP3   OH245354   5.235   5.558  15.866  0.2447 -0.1381 -0.3422
 7980TIP3    H145355   5.261   5.505  15.790  0.5859  1.2188 -1.2129
 7980TIP3    H245356   5.140   5.555  15.865  0.2223  0.3728 -1.2278
 7981TIP3   OH245357   1.244   1.202   4.549  0.1651  0.2079  0.2248
 7981TIP3    H145358   1.308   1.182   4.481  1.0333 -0.0996  1.1233
 7981TIP3    H245359   1.294   1.207   4.630 -1.0649 -1.0647  1.1277
 7982TIP3   OH245360   1.095   3.656  14.609 -0.0715 -0.1410 -0.0793
 7982TIP3    H145361   1.074   3.647  14.516  2.0175  1.6438 -0.8085
 7982TIP3    H245362   1.114   3.567  14.638 -0.8573 -0.7400 -1.2981
 7983TIP3   OH245363   5.026   3.610  13.077  0.4275 -0.4694  0.1935
 7983TIP3    H145364   4.976   3.653  13.146 -1.7485 -0.6366 -1.1712
 7983TIP3    H245365   5.110   3.654  13.077  1.2458 -1.6185  4.0533
 7984TIP3   OH245366   4.377   0.767   0.889 -0.0300  0.2092 -0.1055
 7984TIP3    H145367   4.452   0.709   0.874  1.0027  1.5019 -0.1623
 7984TIP3    H245368   4.328   0.765   0.807  0.3174 -0.1387 -0.3055
 7985TIP3   OH245369   3.591   5.030  15.996  0.5406 -0.2014 -0.7294
 7985TIP3    H145370   3.622   5.097  16.056 -1.2485  0.7986 -0.8398
 7985TIP3    H245371   3.606   5.067  15.909  0.2433 -0.2677 -0.8109
 7986TIP3   OH245372   3.573   1.924  12.392  0.4763  0.3611 -0.4132
 7986TIP3    H145373   3.612   1.875  12.319  0.2671  2.5580 -2.1162
 7986TIP3    H245374   3.648   1.970  12.431  0.3523  0.4821 -0.3200
 7987TIP3   OH245375   3.790   2.928   1.745 -0.4032  0.0874  0.3635
 7987TIP3    H145376   3.874   2.929   1.700 -0.8108 -2.3266 -0.5666
 7987TIP3    H245377   3.805   2.980   1.824  2.0332 -0.5096  0.3683
 7988TIP3   OH245378   3.680   3.859  16.121 -0.5356  0.0166 -0.5224
 7988TIP3    H145379   3.593   3.900  16.124  0.1587  1.5064  1.3721
 7988TIP3    H245380   3.663   3.767  16.141 -1.8217 -0.0925 -1.8742
 7989TIP3   OH245381   6.614   0.764   4.637 -0.2212  0.2015 -0.4418
 7989TIP3    H145382   6.582   0.680   4.668  0.3826 -0.4752 -1.6000
 7989TIP3    H245383   6.664   0.799   4.711 -0.4903 -0.4467  0.0538
 7990TIP3   OH245384   3.808   4.957   0.161 -0.5697 -0.3166 -0.0933
 7990TIP3    H145385   3.754   4.980   0.237  0.6283  2.2078  0.1029
 7990TIP3    H245386   3.890   4.925   0.200 -0.7414 -1.0688 -0.3501
 7991TIP3   OH245387   6.695   2.341   5.635  0.0296  0.6930 -0.0910
 7991TIP3    H145388   6.632   2.315   5.567 -0.1592  3.2080 -0.9912
 7991TIP3    H245389   6.656   2.310   5.717  0.9379 -3.6830 -1.0687
 7992TIP3   OH245390   1.422   2.249   4.963 -0.1843 -0.2560 -0.0114
 7992TIP3    H145391   1.460   2.283   5.044  0.3820  1.6659 -1.0186
 7992TIP3    H245392   1.464   2.164   4.950 -0.3722 -0.6559  1.7377
 7993TIP3   OH245393   3.304   1.923  14.997 -0.5919  0.0587 -0.8353
 7993TIP3    H145394   3.333   1.854  15.056 -0.8990  0.3960 -0.2732
 7993TIP3    H245395   3.357   1.913  14.918 -0.9137 -1.0594 -0.9190
 7994TIP3   OH245396   3.202   5.835   0.397 -0.2261  0.7750 -0.2316
 7994TIP3    H145397   3.220   5.831   0.491 -0.7129 -1.2813 -0.1676
 7994TIP3    H245398   3.173   5.746   0.374 -0.1425  1.2207 -2.3236
 7995TIP3   OH245399   1.903   0.834   1.568  0.0124 -0.0553  0.1971
 7995TIP3    H145400   1.933   0.911   1.617 -1.4785  2.4190 -2.4513
 7995TIP3    H245401   1.978   0.775   1.567  1.9088  2.2000  0.8156
 7996TIP3   OH245402   0.626   0.985   3.546  0.2184 -0.3420  0.2967
 7996TIP3    H145403   0.705   1.035   3.568 -1.0931  2.7888 -1.4175
 7996TIP3    H245404   0.645   0.947   3.460  0.1967 -0.3382  0.2901
 7997TIP3   OH245405   5.903   0.151  11.615  0.7192 -0.2275  0.3462
 7997TIP3    H145406   5.818   0.140  11.658  0.2479 -0.7377 -0.6688
 7997TIP3    H245407   5.888   0.122  11.525  2.3669 -1.9174  0.5422
 7998TIP3   OH245408   2.953   5.503  15.920  1.0913 -0.1235  0.2514
 7998TIP3    H145409   2.990   5.588  15.898  0.4089  0.7941  2.3987
 7998TIP3    H245410   2.942   5.505  16.015 -0.2447 -2.0843  0.2029
 7999TIP3   OH245411   0.925   2.800  11.068  0.0370 -0.2690 -0.5581
 7999TIP3    H145412   0.973   2.849  11.135 -1.5535 -0.6144  0.9084
 7999TIP3    H245413   0.853   2.858  11.044 -0.0120 -0.5940 -1.2099
 8000TIP3   OH245414   5.891   3.549  11.366 -0.0041 -0.3334 -0.0216
 8000TIP3    H145415   5.905   3.603  11.289 -0.8887  0.1699  0.1639
 8000TIP3    H245416   5.876   3.461  11.332  0.6519 -0.3203 -0.3621
 8001TIP3   OH245417   2.018   3.440   0.218  0.8004 -0.2929 -0.2965
 8001TIP3    H145418   1.997   3.520   0.169  1.2263 -0.3211 -0.5369
 8001TIP3    H245419   2.094   3.404   0.172  0.3266 -1.0874 -0.4767
 8002TIP3   OH245420   2.464   3.976  13.564  0.1274  0.0369 -0.6379
 8002TIP3    H145421   2.516   4.046  13.602  1.6343 -0.6978 -1.2773
 8002TIP3    H245422   2.391   3.964  13.625  0.5046  1.3301  0.0882
 8003TIP3   OH245423   5.839   2.689   2.225 -0.2903  0.1567 -0.4367
 8003TIP3    H145424   5.860   2.758   2.288 -1.0259  0.1964 -0.2244
 8003TIP3    H245425   5.920   2.637   2.218 -0.4641 -0.4148  1.2761
 8004TIP3   OH245426   4.135   5.917   0.428 -0.4185  0.4765  0.4316
 8004TIP3    H145427   4.062   5.897   0.487  0.2738  0.7381  1.3987
 8004TIP3    H245428   4.183   5.834   0.420 -0.2546  0.5537  0.6067
 8005TIP3   OH245429   4.405   3.564  13.180  0.6140 -0.9189 -0.4057
 8005TIP3    H145430   4.382   3.479  13.143  2.2271 -1.1676 -0.9119
 8005TIP3    H245431   4.326   3.592  13.226 -0.0723 -2.5129 -0.5414
 8006TIP3   OH245432   5.756   0.256   1.564 -0.7755 -0.5240  0.2574
 8006TIP3    H145433   5.755   0.174   1.614 -1.1973 -0.4569  0.3647
 8006TIP3    H245434   5.665   0.269   1.538 -0.3927 -1.1230 -1.4706
 8007TIP3   OH245435   5.966   6.388   4.837  0.2840 -0.0106  0.0122
 8007TIP3    H145436   6.057   6.356   4.835  0.3616  0.1353  0.8493
 8007TIP3    H245437   5.968   6.463   4.896 -0.6749 -0.9495  1.2855
 8008TIP3   OH245438   1.992   4.431   2.542  0.7355 -0.1116 -0.1704
 8008TIP3    H145439   1.949   4.500   2.492  1.2987 -1.8112 -3.2029
 8008TIP3    H245440   1.923   4.367   2.559  0.8010 -0.0764  0.2324
 8009TIP3   OH245441   6.688   6.643  11.894  0.1134 -0.0453  0.1726
 8009TIP3    H145442   6.611   6.672  11.845 -0.5423  0.5012  1.4769
 8009TIP3    H245443   6.655   6.575  11.953  0.5537  0.4174  0.9652
 8010TIP3   OH245444   1.405   2.089  11.455 -0.2757 -0.5626  0.8200
 8010TIP3    H145445   1.376   2.140  11.379  1.1178 -0.2883  0.4349
 8010TIP3    H245446   1.341   2.019  11.463 -1.6483  0.6434  0.7207
 8011TIP3   OH245447   2.014   4.310  16.819 -0.1592  0.1782 -0.2898
 8011TIP3    H145448   2.044   4.237  16.874  1.8961  0.2062 -1.2598
 8011TIP3    H245449   1.936   4.277  16.776  1.1295 -1.8112 -1.2849
 8012TIP3   OH245450   5.013   1.701   0.546  0.1412 -0.5673 -0.0251
 8012TIP3    H145451   4.936   1.734   0.592  1.1634  1.6973  0.1908
 8012TIP3    H245452   5.084   1.758   0.574  1.5677 -1.4916 -1.5701
 8013TIP3   OH245453   1.839   0.389  13.141  0.3785 -0.2317  0.0199
 8013TIP3    H145454   1.828   0.380  13.046  0.3829 -0.7562  0.0647
 8013TIP3    H245455   1.933   0.382  13.155  0.3419 -0.6250  0.1013
 8014TIP3   OH245456   5.615   1.473   3.119  0.0264  0.2085  0.1486
 8014TIP3    H145457   5.553   1.446   3.186 -0.1484  2.0588  0.7882
 8014TIP3    H245458   5.647   1.391   3.081  1.3502 -1.0175  3.5597
 8015TIP3   OH245459   3.507   0.012  13.865  0.0525  0.0131 -0.6252
 8015TIP3    H145460   3.601   0.030  13.856 -0.1872  0.8797 -1.5905
 8015TIP3    H245461   3.483   0.051  13.949  0.2516  1.1887 -1.1001
 8016TIP3   OH245462   1.838   2.890  16.349  0.3131  0.3634  0.2886
 8016TIP3    H145463   1.831   2.794  16.354 -0.3236  0.4362  0.9705
 8016TIP3    H245464   1.759   2.916  16.301  1.0200  0.4795 -0.8456
 8017TIP3   OH245465   3.848   0.075  17.121  0.3964 -0.6186  0.3094
 8017TIP3    H145466   3.772   0.070  17.178 -0.2423 -0.1083 -0.4710
 8017TIP3    H245467   3.916   0.118  17.174  0.5943 -2.2954  1.4565
 8018TIP3   OH245468   5.664   3.079  13.100 -0.2361  0.3302 -0.4257
 8018TIP3    H145469   5.685   3.000  13.151  0.1433 -0.0029 -1.0742
 8018TIP3    H245470   5.711   3.066  13.017 -0.2487  1.1986 -0.5731
 8019TIP3   OH245471   3.918   2.216   1.898 -0.1706 -0.1375 -0.0567
 8019TIP3    H145472   3.962   2.216   1.982 -0.8338  1.9994  0.3496
 8019TIP3    H245473   3.989   2.224   1.834  0.1973  0.6733  0.4392
 8020TIP3   OH245474   0.017   3.985   0.112  0.3087  0.2127  0.3502
 8020TIP3    H145475  -0.064   3.972   0.063  0.6539 -0.8500  0.0445
 8020TIP3    H245476   0.056   4.064   0.073 -0.0497  0.1151 -0.2151
 8021TIP3   OH245477   0.943   0.112   3.217  0.2701  0.0197  0.0800
 8021TIP3    H145478   0.903   0.026   3.227  0.8304 -0.4592 -1.4242
 8021TIP3    H245479   0.885   0.172   3.263 -1.2761 -0.8724 -0.6454
 8022TIP3   OH245480   3.193   1.562  11.764 -0.1995 -0.7216 -0.0441
 8022TIP3    H145481   3.286   1.549  11.744  0.6671  1.1981  2.2288
 8022TIP3    H245482   3.157   1.601  11.684  0.8009 -1.8368 -1.1010
 8023TIP3   OH245483   5.751   2.211  14.059  0.4969  0.5227 -0.3480
 8023TIP3    H145484   5.730   2.250  14.144  1.0305  1.2217 -0.5279
 8023TIP3    H245485   5.679   2.236  14.002 -0.7450 -1.3711  0.2921
 8024TIP3   OH245486   1.584   1.104   2.100 -0.4177 -0.1185  0.1758
 8024TIP3    H145487   1.499   1.148   2.096  0.4860  1.7785  0.6760
 8024TIP3    H245488   1.607   1.087   2.008 -1.1278 -0.2464  0.0160
 8025TIP3   OH245489   5.820   5.670  11.774 -0.0770 -0.3472  0.2730
 8025TIP3    H145490   5.820   5.764  11.793 -1.6969 -0.5208  1.3143
 8025TIP3    H245491   5.913   5.646  11.773  0.3859  1.2976 -0.3218
 8026TIP3   OH245492   0.783   4.448   0.967 -0.7591  0.1175  0.0234
 8026TIP3    H145493   0.736   4.495   1.035 -0.7091  0.6071 -0.2725
 8026TIP3    H245494   0.813   4.368   1.009  0.7512  1.1852  1.0924
 8027TIP3   OH245495   0.140   5.114  13.344 -0.2215 -0.2323  0.7077
 8027TIP3    H145496   0.151   5.171  13.420  1.1516  0.3980  0.0743
 8027TIP3    H245497   0.081   5.161  13.286 -2.4649 -1.3577  1.9496
 8028TIP3   OH245498   2.999   4.473   5.383 -0.2342  0.2432  0.0462
 8028TIP3    H145499   3.041   4.415   5.447 -2.1980 -1.1911  0.1270
 8028TIP3    H245500   2.933   4.520   5.434 -0.1880  0.8900 -0.4819
 8029TIP3   OH245501   5.832   3.952   0.873 -0.1259  0.5187 -0.1532
 8029TIP3    H145502   5.773   3.888   0.915  1.6123 -0.4940  0.8809
 8029TIP3    H245503   5.802   4.037   0.905 -0.6467 -0.0237  0.8486
 8030TIP3   OH245504   0.376   2.953   5.496 -0.0814  0.7315 -0.0137
 8030TIP3    H145505   0.344   3.043   5.502 -1.8041  0.1577 -0.0630
 8030TIP3    H245506   0.349   2.923   5.409 -0.4019 -0.1421  0.3743
 8031TIP3   OH245507   5.905   5.224  16.879 -0.1285 -0.2777  0.0007
 8031TIP3    H145508   5.875   5.286  16.946  0.0110 -0.8646  0.6224
 8031TIP3    H245509   5.970   5.274  16.829  0.6264 -0.1719  1.0427
 8032TIP3   OH245510   2.704   2.125   1.331  0.0345 -0.4454  0.0859
 8032TIP3    H145511   2.743   2.213   1.329 -0.8610 -0.0219  0.7092
 8032TIP3    H245512   2.771   2.071   1.374 -0.6525  0.6219  2.7188
 8033TIP3   OH245513   6.032   3.843  15.285 -0.3033 -0.1451 -0.3082
 8033TIP3    H145514   6.068   3.824  15.372  0.4303 -0.0970 -0.5921
 8033TIP3    H245515   6.086   3.792  15.225 -1.6375 -1.2053 -0.6466
 8034TIP3   OH245516   5.941   3.173  16.517 -0.0278  0.0726 -0.6339
 8034TIP3    H145517   5.906   3.128  16.594  1.6207  1.2748  0.8742
 8034TIP3    H245518   6.032   3.145  16.511 -0.3776 -0.8438 -2.8483
 8035TIP3   OH245519   3.189   0.328   5.037  0.4132 -0.6521 -0.7580
 8035TIP3    H145520   3.240   0.399   4.997 -0.7147  0.7990  0.2824
 8035TIP3    H245521   3.098   0.356   5.027 -0.0605 -2.0105 -0.3805
 8036TIP3   OH245522   2.633   4.795   3.176  0.0024  0.7156 -0.8737
 8036TIP3    H145523   2.582   4.759   3.103 -0.3604 -2.2627  0.6794
 8036TIP3    H245524   2.606   4.743   3.252  1.5654  2.5667  1.0823
 8037TIP3   OH245525   4.470   0.220  12.452 -0.2383  0.5492 -0.2615
 8037TIP3    H145526   4.540   0.234  12.516  0.5126  0.9140 -1.1349
 8037TIP3    H245527   4.404   0.285  12.473 -0.1095  0.5039  0.2904
 8038TIP3   OH245528   6.484   6.232   4.794 -0.3005  0.3128  0.2186
 8038TIP3    H145529   6.451   6.170   4.729  0.2332 -0.0112  0.2544
 8038TIP3    H245530   6.577   6.241   4.774 -0.6496  2.3192 -0.7945
 8039TIP3   OH245531   5.003   6.105  15.492  0.0372 -0.2587  0.2765
 8039TIP3    H145532   5.098   6.104  15.491  0.0468 -0.1104 -1.1832
 8039TIP3    H245533   4.978   6.157  15.415 -1.2205 -0.1824  0.7033
 8040TIP3   OH245534   6.038   2.298  14.455  0.1526 -0.1523 -0.1252
 8040TIP3    H145535   5.959   2.256  14.488 -1.4436  2.1619 -0.8004
 8040TIP3    H245536   6.053   2.258  14.369 -0.7543 -0.0730 -0.3253
 8041TIP3   OH245537   4.122   4.028   1.894 -0.5662 -0.7871  0.3557
 8041TIP3    H145538   4.179   4.105   1.894 -0.9132 -0.4543 -1.6308
 8041TIP3    H245539   4.049   4.052   1.950  0.0391 -0.2393  0.9196
 8042TIP3   OH245540   4.782   3.157   5.200  0.4984  0.4622 -0.2398
 8042TIP3    H145541   4.814   3.073   5.234 -0.8544  1.2868  3.5473
 8042TIP3    H245542   4.729   3.133   5.124  2.5379 -1.7351 -1.0921
 8043TIP3   OH245543   2.947   3.736   1.859 -0.7822  0.4788  0.5725
 8043TIP3    H145544   3.004   3.659   1.866 -2.1761 -0.7682 -0.9846
 8043TIP3    H245545   2.933   3.747   1.765 -3.0181  0.8008  0.8992
 8044TIP3   OH245546   4.585   4.648   2.854  0.8896 -0.2710 -0.1334
 8044TIP3    H145547   4.577   4.663   2.948  1.0496  2.6240 -0.5089
 8044TIP3    H245548   4.495   4.652   2.822  1.0255  1.3604 -0.3905
 8045TIP3   OH245549   5.191   1.549  14.718 -0.2690 -0.3779 -0.5129
 8045TIP3    H145550   5.216   1.565  14.627 -1.2060  2.1614 -0.4290
 8045TIP3    H245551   5.184   1.454  14.725  0.3937 -0.6839 -2.9148
 8046TIP3   OH245552   3.524   5.781   3.468 -0.5005  0.2457  0.1142
 8046TIP3    H145553   3.559   5.774   3.557 -1.2937  0.7804  0.4840
 8046TIP3    H245554   3.483   5.868   3.466 -1.4963 -0.2314 -0.4087
 8047TIP3   OH245555   6.505   6.304   1.675 -0.1478  0.2217  0.4710
 8047TIP3    H145556   6.541   6.219   1.647 -1.7986  0.4145 -2.6387
 8047TIP3    H245557   6.418   6.282   1.710 -0.8200  0.6230 -0.8834
 8048TIP3   OH245558   0.205   2.855  15.384  0.1327  0.2720  0.2496
 8048TIP3    H145559   0.135   2.792  15.366  0.5929 -0.5148  1.1308
 8048TIP3    H245560   0.250   2.820  15.461  1.3268  0.9055 -0.1312
 8049TIP3   OH245561   4.707   2.008   5.775 -0.9185  0.0769  0.6329
 8049TIP3    H145562   4.757   2.048   5.846  0.2172 -0.7441  0.3236
 8049TIP3    H245563   4.715   2.070   5.702 -1.0081  0.3147  0.8248
 8050TIP3   OH245564   4.806   6.269  14.880 -0.0800  0.3749  0.4192
 8050TIP3    H145565   4.778   6.292  14.968 -2.8726  0.3111 -0.3597
 8050TIP3    H245566   4.725   6.262  14.829  1.1651 -2.3816 -1.5013
 8051TIP3   OH245567   4.283   3.896  11.666  0.2719  0.4049 -0.1068
 8051TIP3    H145568   4.319   3.972  11.712  2.3968 -1.1452  0.9838
 8051TIP3    H245569   4.343   3.883  11.592 -1.7849  1.4807 -2.0831
 8052TIP3   OH245570   0.619   2.546  13.589  0.4025  0.5015  0.1411
 8052TIP3    H145571   0.536   2.558  13.543 -0.7929 -0.0518  2.0579
 8052TIP3    H245572   0.622   2.619  13.651  3.0917  2.6074 -2.1972
 8053TIP3   OH245573   4.731   6.473   4.285 -0.4320  0.5097  0.7322
 8053TIP3    H145574   4.818   6.463   4.322 -1.0210 -0.0089  2.0296
 8053TIP3    H245575   4.704   6.561   4.311  0.2706  1.2749 -0.9707
 8054TIP3   OH245576   5.814   4.477  15.756 -0.2967  0.3409 -0.0757
 8054TIP3    H145577   5.851   4.396  15.791 -1.7100 -0.0385  0.6391
 8054TIP3    H245578   5.753   4.506  15.824 -2.1260  0.3319 -1.6239
 8055TIP3   OH245579   3.749   1.690  13.231  0.7861  0.1388  0.3357
 8055TIP3    H145580   3.775   1.776  13.197  3.4733 -0.1269  1.4530
 8055TIP3    H245581   3.668   1.670  13.185 -0.5860  3.7530  0.8257
 8056TIP3   OH245582   2.239   4.183  14.281 -0.0654  0.1995  0.3402
 8056TIP3    H145583   2.165   4.238  14.259  1.2781  1.7695 -0.4812
 8056TIP3    H245584   2.259   4.134  14.201 -0.2557 -0.2962  0.5868
 8057TIP3   OH245585   4.220   6.254   5.897  0.0587 -0.3514 -0.3941
 8057TIP3    H145586   4.271   6.293   5.968 -0.8549 -0.7253  0.4763
 8057TIP3    H245587   4.287   6.226   5.834  0.9346 -0.6351  0.6213
 8058TIP3   OH245588   1.284   2.218  16.813  0.0799 -0.0889  0.1483
 8058TIP3    H145589   1.338   2.295  16.831 -0.8353  0.9219 -1.1678
 8058TIP3    H245590   1.272   2.177  16.898  2.6736 -0.2319  0.5177
 8059TIP3   OH245591   2.166   6.317  12.110 -0.2727  0.2090  0.5522
 8059TIP3    H145592   2.094   6.302  12.171 -2.6263 -0.5789 -2.2500
 8059TIP3    H245593   2.162   6.411  12.091 -1.2178  0.0002 -0.3272
 8060TIP3   OH245594   1.310   2.118  12.551 -0.6505 -0.1922 -0.2257
 8060TIP3    H145595   1.379   2.054  12.570 -1.1364 -1.5216 -2.6278
 8060TIP3    H245596   1.357   2.198  12.529 -0.0303  0.3824  2.6923
 8061TIP3   OH245597   2.421   1.127   5.063  0.1690 -0.1644  0.4045
 8061TIP3    H145598   2.511   1.109   5.089 -0.4657 -1.5519  1.7520
 8061TIP3    H245599   2.372   1.048   5.086 -0.8627 -0.8176 -3.3217
 8062TIP3   OH245600   3.423   2.616   2.093 -0.1524 -0.1726 -0.1691
 8062TIP3    H145601   3.451   2.659   2.174  2.0407 -1.0516 -0.3912
 8062TIP3    H245602   3.380   2.686   2.043  0.1292  0.8464  0.9617
 8063TIP3   OH245603   3.966   0.037   1.758 -0.5430  0.6318  0.7155
 8063TIP3    H145604   3.882   0.037   1.711 -0.3792  0.6207  0.4177
 8063TIP3    H245605   3.951  -0.020   1.834 -0.2818 -0.8933 -0.3167
 8064TIP3   OH245606   0.950   6.606   0.518  0.3963  0.0934 -0.0970
 8064TIP3    H145607   0.954   6.627   0.425  0.4910  1.2542  0.1568
 8064TIP3    H245608   0.978   6.686   0.562 -1.0638  0.0515  0.9844
 8065TIP3   OH245609   3.534   1.611  11.097 -0.0989 -0.4038  0.3683
 8065TIP3    H145610   3.449   1.603  11.140 -0.2741 -0.4762  0.0180
 8065TIP3    H245611   3.522   1.685  11.037  0.3378  0.1039  0.8971
 8066TIP3   OH245612   0.105   4.029  16.393 -0.4928 -0.3717  0.3842
 8066TIP3    H145613   0.057   4.023  16.310 -0.3469 -0.9171  0.3405
 8066TIP3    H245614   0.152   4.113  16.387  1.4164 -1.4737 -1.1056
 8067TIP3   OH245615   4.494   4.107   3.045 -0.3622  0.4103 -0.7563
 8067TIP3    H145616   4.456   4.194   3.053  0.6757  0.8932 -0.9388
 8067TIP3    H245617   4.571   4.109   3.102 -0.3101 -0.3742 -0.7920
 8068TIP3   OH245618   5.203   1.927  12.494 -0.4255 -0.4356 -0.5115
 8068TIP3    H145619   5.214   1.861  12.562 -0.8080  1.3166  1.3723
 8068TIP3    H245620   5.224   2.010  12.538 -0.0919  0.7237 -2.7187
 8069TIP3   OH245621   1.655   1.842   4.464 -0.2719 -0.0207 -0.4130
 8069TIP3    H145622   1.677   1.794   4.384 -1.2832  0.6211 -1.0955
 8069TIP3    H245623   1.640   1.932   4.435 -2.0029 -0.0563  0.2771
 8070TIP3   OH245624   1.492   4.643  10.461 -0.1371 -0.0958 -0.1571
 8070TIP3    H145625   1.412   4.673  10.503 -0.0920  0.6611 -0.5808
 8070TIP3    H245626   1.507   4.555  10.496  0.9345  1.1634  2.9118
 8071TIP3   OH245627   1.210   4.828   1.103  0.2125 -0.9207  0.3206
 8071TIP3    H145628   1.235   4.812   1.012 -1.2732 -2.1533  0.0747
 8071TIP3    H245629   1.250   4.755   1.151  2.0721  0.4164  0.9140
 8072TIP3   OH245630   6.452   2.857   4.704 -0.4927  0.1084 -0.2585
 8072TIP3    H145631   6.421   2.937   4.661 -0.1832 -0.9818 -2.6577
 8072TIP3    H245632   6.539   2.842   4.668 -0.3898 -1.1082  0.4379
 8073TIP3   OH245633   2.829   5.521   1.630 -0.0374 -0.4136  0.1736
 8073TIP3    H145634   2.853   5.613   1.626  0.3786 -0.4848  0.7900
 8073TIP3    H245635   2.786   5.503   1.547  1.9350 -0.2380 -0.9289
 8074TIP3   OH245636   5.983   0.828   5.712 -0.1368 -0.3653 -0.2795
 8074TIP3    H145637   6.043   0.755   5.729  1.3970  0.7248 -0.8061
 8074TIP3    H245638   6.040   0.899   5.682 -1.5415  1.1570  0.5224
 8075TIP3   OH245639   4.820   5.690   5.942  0.0638  0.3958 -0.1955
 8075TIP3    H145640   4.804   5.620   5.878 -0.2517  0.6249 -0.3693
 8075TIP3    H245641   4.881   5.651   6.006 -1.8378 -0.8095  0.9820
 8076TIP3   OH245642   2.546   2.845  17.129 -0.3909 -0.2823 -0.0260
 8076TIP3    H145643   2.563   2.753  17.150 -0.1958 -0.1721  0.3208
 8076TIP3    H245644   2.580   2.857  17.041  3.3163  0.4056  1.3045
 8077TIP3   OH245645   6.667   6.095   1.655  1.0105 -0.5958 -0.1529
 8077TIP3    H145646   6.754   6.082   1.694 -0.1958  0.4562  3.2185
 8077TIP3    H245647   6.634   6.006   1.640  1.9506 -1.0395  0.3098
 8078TIP3   OH245648   3.938   0.658  17.294 -0.4400 -0.1741 -0.3604
 8078TIP3    H145649   3.974   0.651  17.382  0.8314 -1.2258 -0.9255
 8078TIP3    H245650   3.957   0.748  17.267 -1.6596  0.4359  0.7612
 8079TIP3   OH245651   6.038   0.841  11.084 -0.1185  0.4744  0.1093
 8079TIP3    H145652   6.113   0.823  11.027  1.2337  2.1860  1.2389
 8079TIP3    H245653   6.043   0.935  11.102 -0.3782  0.0223  3.1118
 8080TIP3   OH245654   0.171   0.658  14.404 -0.0527 -0.2824 -0.4085
 8080TIP3    H145655   0.173   0.732  14.343  1.6182  0.2842  0.2807
 8080TIP3    H245656   0.134   0.694  14.484 -0.1177 -0.4282 -0.3735
 8081TIP3   OH245657   3.149   1.778  13.971 -0.1487  0.1817  0.4387
 8081TIP3    H145658   3.232   1.746  14.009 -0.4093 -1.8855 -0.5547
 8081TIP3    H245659   3.164   1.871  13.955  1.9030 -0.0763  0.5436
 8082TIP3   OH245660   3.576   3.980  16.869  0.0934  0.5143 -0.2741
 8082TIP3    H145661   3.636   3.906  16.859  1.6934  1.7377 -0.2285
 8082TIP3    H245662   3.585   4.005  16.962 -1.1400  0.1968 -0.0616
 8083TIP3   OH245663   2.259   0.009   0.673  0.2108  0.5911  0.1904
 8083TIP3    H145664   2.211   0.079   0.718 -2.8421 -0.4087 -1.2779
 8083TIP3    H245665   2.276   0.044   0.585 -0.7946 -0.2476 -0.3524
 8084TIP3   OH245666   5.888   4.724   2.814  0.4509 -0.2380 -0.2611
 8084TIP3    H145667   5.833   4.797   2.839 -0.7069 -1.2130  0.1290
 8084TIP3    H245668   5.974   4.763   2.798 -0.5417  1.4747 -1.8295
 8085TIP3   OH245669   5.274   3.265   4.399 -0.3541 -0.4870  0.1206
 8085TIP3    H145670   5.282   3.318   4.320 -1.4829  1.5348  1.2706
 8085TIP3    H245671   5.361   3.229   4.414  0.1730  0.1504 -1.3197
 8086TIP3   OH245672   1.067   2.941   3.534 -0.2683  0.1120 -0.4328
 8086TIP3    H145673   1.133   2.872   3.528 -0.3216  0.1895 -3.0700
 8086TIP3    H245674   1.032   2.933   3.622  0.7888 -2.2402 -0.1581
 8087TIP3   OH245675   3.856   5.593   3.489  0.6889 -0.1501  0.6158
 8087TIP3    H145676   3.771   5.567   3.524 -0.3445  2.3341  0.1385
 8087TIP3    H245677   3.914   5.595   3.565 -0.0831 -0.2832  1.2117
 8088TIP3   OH245678   1.923   1.873  10.980  0.5345 -0.1463 -0.0071
 8088TIP3    H145679   2.007   1.869  10.934  0.8297  1.1473  0.3841
 8088TIP3    H245680   1.885   1.957  10.953  0.8167  0.7655  2.2793
 8089TIP3   OH245681   1.979   5.582   1.726 -0.8253 -0.7557 -0.1536
 8089TIP3    H145682   1.957   5.508   1.783  0.3677 -2.5632 -1.8989
 8089TIP3    H245683   2.022   5.542   1.650  0.7001  1.8179 -0.7742
 8090TIP3   OH245684   6.361   5.174  14.512  0.1615 -0.0537 -0.1213
 8090TIP3    H145685   6.340   5.267  14.510 -0.9088 -0.2517  0.8757
 8090TIP3    H245686   6.324   5.139  14.431 -0.7087  0.1436  0.1847
 8091TIP3   OH245687   0.926   4.443  11.578  0.1846  0.2317  0.2613
 8091TIP3    H145688   0.908   4.359  11.622 -1.5124  0.9445  1.0142
 8091TIP3    H245689   0.983   4.419  11.505 -0.4031 -1.6309  0.3416
 8092TIP3   OH245690   5.032   4.286   0.771  0.3520  0.4256  0.1090
 8092TIP3    H145691   4.953   4.275   0.824 -0.5552 -2.2098 -1.6168
 8092TIP3    H245692   5.102   4.246   0.824 -0.3040 -1.0380 -0.0912
 8093TIP3   OH245693   3.110   6.107   2.892  0.2844 -0.1929  0.2800
 8093TIP3    H145694   3.076   6.077   2.976 -1.5897  0.2042 -0.2825
 8093TIP3    H245695   3.071   6.193   2.879  1.8409  0.4748 -0.2825
 8094TIP3   OH245696   0.898   1.877  16.211 -0.3603 -0.2287 -0.0035
 8094TIP3    H145697   0.945   1.915  16.136 -0.1335  1.0655  0.7637
 8094TIP3    H245698   0.910   1.941  16.282  0.1474 -1.8067  1.4029
 8095TIP3   OH245699   2.148   1.342  10.601  0.1493  0.2844  0.4731
 8095TIP3    H145700   2.235   1.334  10.561  0.4880 -2.1751  1.4992
 8095TIP3    H245701   2.118   1.252  10.610 -3.0388  1.0866 -0.8358
 8096TIP3   OH245702   5.940   3.889   3.553  0.4224  0.7487 -0.3042
 8096TIP3    H145703   5.936   3.941   3.473 -1.3760  1.9529  0.5005
 8096TIP3    H245704   5.889   3.811   3.534 -1.1190  1.6333  0.0185
 8097TIP3   OH245705   2.080   1.034   3.469 -0.0170  0.2386  0.4599
 8097TIP3    H145706   2.124   1.004   3.549 -1.7761  1.2304  1.8681
 8097TIP3    H245707   2.131   1.110   3.441  0.5423 -0.0340  0.7202
 8098TIP3   OH245708   4.012   0.212  10.411 -0.1205 -0.6958  0.4547
 8098TIP3    H145709   3.955   0.137  10.394  1.2836 -1.2992 -2.0677
 8098TIP3    H245710   3.964   0.264  10.476 -2.8946 -1.8319 -0.5285
 8099TIP3   OH245711   3.991   3.031  15.956 -0.2049  0.0686  0.2192
 8099TIP3    H145712   4.052   2.965  15.924  2.0453  1.6199  1.1041
 8099TIP3    H245713   3.961   3.077  15.878  1.8853  1.0044 -0.0945
 8100TIP3   OH245714   1.667   3.879  14.715  1.2844 -0.2458  0.1047
 8100TIP3    H145715   1.706   3.943  14.656  1.5036 -1.2793 -0.9115
 8100TIP3    H245716   1.680   3.795  14.671  0.8103 -0.9683  1.2984
 8101TIP3   OH245717   0.786   5.515  14.968  0.1614  0.2245 -0.4790
 8101TIP3    H145718   0.719   5.452  14.944  0.8367 -0.0073 -1.8554
 8101TIP3    H245719   0.867   5.464  14.974  0.6220  0.8465 -1.0931
 8102TIP3   OH245720   1.044   4.286  11.048 -0.3653 -0.0993 -0.6496
 8102TIP3    H145721   1.030   4.366  11.098  0.3880  0.6855 -1.6319
 8102TIP3    H245722   1.107   4.236  11.100 -1.9371 -0.7774  0.6978
 8103TIP3   OH245723   3.330   3.114   2.885  0.3054 -0.5268  0.1239
 8103TIP3    H145724   3.399   3.090   2.823  1.8812 -1.0601  1.9729
 8103TIP3    H245725   3.275   3.035   2.891 -0.4874 -0.1209 -1.3097
 8104TIP3   OH245726   4.818   4.071  12.222 -0.7237 -0.4760 -0.2299
 8104TIP3    H145727   4.760   4.000  12.195 -0.5105 -0.8600  0.2938
 8104TIP3    H245728   4.887   4.028  12.272 -1.1669  0.1992  1.0204
 8105TIP3   OH245729   4.633   0.307  11.975  0.6965  0.3586  0.2581
 8105TIP3    H145730   4.681   0.374  11.925  1.6815  0.2046  0.9572
 8105TIP3    H245731   4.696   0.236  11.987  0.1717 -0.0129  0.8901
 8106TIP3   OH245732   3.506   4.773   1.466 -0.3937  1.1688 -0.5823
 8106TIP3    H145733   3.452   4.847   1.440 -1.5084  1.0389  1.2066
 8106TIP3    H245734   3.562   4.808   1.535  0.7230  0.8872 -1.3069
 8107TIP3   OH245735   2.124   0.878  11.125  0.7054 -0.6951  0.2979
 8107TIP3    H145736   2.102   0.958  11.077  1.4683  0.4139  1.6911
 8107TIP3    H245737   2.040   0.836  11.141  0.0717  0.7245  0.9564
 8108TIP3   OH245738   6.558   6.273  12.890 -0.4421  0.0051 -0.1412
 8108TIP3    H145739   6.592   6.200  12.838 -0.7559  0.3728 -0.8745
 8108TIP3    H245740   6.529   6.232  12.972 -1.7700 -0.9170 -1.0252
 8109TIP3   OH245741   3.074   3.577   0.774  0.0676  0.2489 -0.1281
 8109TIP3    H145742   3.104   3.497   0.817 -1.7423 -0.5438 -0.2596
 8109TIP3    H245743   3.123   3.647   0.818  1.1785 -0.8541  0.4552
 8110TIP3   OH245744   1.251   3.410  16.513  0.3942  0.3311 -0.5312
 8110TIP3    H145745   1.307   3.333  16.512 -0.0905 -0.0352 -0.0994
 8110TIP3    H245746   1.164   3.376  16.491  0.4170  0.9638 -1.6802
 8111TIP3   OH245747   2.014   0.380  11.109 -0.5347 -0.0194 -0.1065
 8111TIP3    H145748   1.954   0.392  11.035  2.2907 -0.1924 -2.5816
 8111TIP3    H245749   2.046   0.290  11.099  3.1138  1.2501 -1.3965
 8112TIP3   OH245750   2.208   0.998   0.364 -0.4765  0.2359  0.2719
 8112TIP3    H145751   2.115   0.986   0.382 -0.3625  1.3994  1.8102
 8112TIP3    H245752   2.214   0.998   0.268 -1.9094 -0.7666  0.1547
 8113TIP3   OH245753   3.911   5.074  16.176 -0.6717 -0.5625 -0.3847
 8113TIP3    H145754   3.914   5.034  16.263 -0.3731  0.9017  0.3006
 8113TIP3    H245755   3.940   5.004  16.117  1.5034 -0.8926  0.9579
 8114TIP3   OH245756   0.401   3.364   5.026  0.0128  0.2274 -0.4768
 8114TIP3    H145757   0.482   3.337   5.068  0.3216  1.2246 -0.4111
 8114TIP3    H245758   0.332   3.326   5.080  0.3737  2.1129  1.4701
 8115TIP3   OH245759   5.037   3.094   1.290 -0.8929  0.6101 -0.0410
 8115TIP3    H145760   5.103   3.026   1.280 -1.4788  0.2024 -1.3139
 8115TIP3    H245761   5.051   3.153   1.216 -1.2845  1.1023  0.2678
 8116TIP3   OH245762   3.166   2.320   4.559 -0.0082 -0.2957  0.0165
 8116TIP3    H145763   3.130   2.397   4.515  2.0768  0.2383 -0.8525
 8116TIP3    H245764   3.120   2.246   4.519 -0.4575  0.3711 -0.7333
 8117TIP3   OH245765   6.201   4.759   0.552 -0.2244  0.3640 -0.2578
 8117TIP3    H145766   6.250   4.781   0.473 -1.7055  1.2408 -0.9681
 8117TIP3    H245767   6.196   4.664   0.552  1.4474  0.2472 -0.1614
 8118TIP3   OH245768   4.550   3.853   0.281 -0.4592 -0.8453  0.0569
 8118TIP3    H145769   4.624   3.869   0.223 -1.5255 -0.1896 -1.1803
 8118TIP3    H245770   4.563   3.764   0.312  0.1385 -1.2241 -1.2117
 8119TIP3   OH245771   1.693   3.188  10.913 -0.4432 -0.0952 -0.0752
 8119TIP3    H145772   1.760   3.141  10.963 -1.7372 -0.5424  1.2828
 8119TIP3    H245773   1.719   3.176  10.822  0.4703 -1.5924  0.3455
 8120TIP3   OH245774   3.016   6.434   5.328  0.0756 -0.6127  0.6479
 8120TIP3    H145775   3.060   6.412   5.246 -1.7747  1.5770 -1.0562
 8120TIP3    H245776   3.055   6.517   5.354  0.7591 -1.3653  2.1451
 8121TIP3   OH245777   2.119   5.482   6.222  0.3708 -0.3406  0.5658
 8121TIP3    H145778   2.124   5.436   6.306  1.2274 -2.4047 -0.5488
 8121TIP3    H245779   2.026   5.481   6.200  0.0706  0.6210  1.6416
 8122TIP3   OH245780   1.371   4.332  11.647 -0.4235  0.4251  0.0577
 8122TIP3    H145781   1.286   4.311  11.683 -0.0142  0.8724  1.3273
 8122TIP3    H245782   1.381   4.273  11.572 -1.9471  0.5606 -0.2908
 8123TIP3   OH245783   2.751   5.129   3.053 -0.0765  0.1113 -0.1036
 8123TIP3    H145784   2.818   5.159   2.992 -1.8286  1.7638 -1.3624
 8123TIP3    H245785   2.717   5.049   3.015  0.3770 -0.1019 -0.0687
 8124TIP3   OH245786   2.921   1.625   0.101  0.0292  0.2113 -0.1225
 8124TIP3    H145787   2.897   1.677   0.178  2.5188  0.0601  0.8398
 8124TIP3    H245788   2.911   1.534   0.128  1.9894  0.1275  0.4951
 8125TIP3   OH245789   4.094   1.487  10.308  0.3639  0.2560 -0.0698
 8125TIP3    H145790   4.187   1.510  10.314  0.9230 -1.3888 -1.5531
 8125TIP3    H245791   4.088   1.433  10.229 -2.0755  1.3277 -0.7076
 8126TIP3   OH245792   2.464   6.667   1.777 -0.0680  0.0887 -0.2403
 8126TIP3    H145793   2.388   6.722   1.793 -0.1011  0.0272 -0.1892
 8126TIP3    H245794   2.538   6.728   1.773 -0.1720  0.1912 -0.6800
 8127TIP3   OH245795   5.591   6.731  17.066 -0.3941  0.8178  0.1156
 8127TIP3    H145796   5.577   6.637  17.056 -0.5677  0.8446  0.1014
 8127TIP3    H245797   5.572   6.768  16.979 -1.8569  1.0421  0.4948
 8128TIP3   OH245798   2.026   1.817   3.116 -0.6152  0.1281  0.1922
 8128TIP3    H145799   1.984   1.798   3.200 -1.4483  0.3512 -0.1567
 8128TIP3    H245800   2.085   1.743   3.101  2.2138  1.6905  2.5728
 8129TIP3   OH245801   1.769   1.773   2.720  0.3255  0.1934 -0.1880
 8129TIP3    H145802   1.859   1.753   2.744  0.2267 -1.3812 -0.9927
 8129TIP3    H245803   1.762   1.748   2.628 -0.6432  1.3573 -0.4599
 8130TIP3   OH245804   5.757   3.513  10.864 -0.3220 -0.4399  0.1441
 8130TIP3    H145805   5.755   3.602  10.827 -0.6517  0.2362  1.7330
 8130TIP3    H245806   5.676   3.473  10.834 -0.2206 -0.1851 -0.5004
 8131TIP3   OH245807   5.889   0.197   2.276  0.1126 -0.0936  0.3710
 8131TIP3    H145808   5.809   0.246   2.261  0.2760  0.2225  0.5259
 8131TIP3    H245809   5.882   0.168   2.367 -0.6490 -1.5851 -0.1243
 8132TIP3   OH245810   5.406   3.537  16.993  0.0568  0.0331 -0.2512
 8132TIP3    H145811   5.494   3.519  16.961 -0.0554  0.4650 -0.8246
 8132TIP3    H245812   5.407   3.510  17.085  0.5451 -0.7243 -0.4758
 8133TIP3   OH245813   3.045   3.001   4.084 -0.5352 -0.6118 -0.0886
 8133TIP3    H145814   3.059   2.964   4.171 -1.1510  0.9549  0.7236
 8133TIP3    H245815   2.987   2.940   4.040  0.0027 -1.5651  0.4923
 8134TIP3   OH245816   2.697   2.598  16.151 -0.4660  0.4662  0.0986
 8134TIP3    H145817   2.606   2.574  16.134 -0.3731 -0.2523  0.5786
 8134TIP3    H245818   2.705   2.597  16.246 -0.0534  0.8985  0.0724
 8135TIP3   OH245819   2.144   0.716   4.989  0.3919  0.0014 -0.1573
 8135TIP3    H145820   2.056   0.697   5.021 -0.6978 -1.8406 -3.7058
 8135TIP3    H245821   2.197   0.642   5.021  0.0715 -0.2035 -0.0958
 8136TIP3   OH245822   3.890   4.102   2.063  0.4888 -0.5323 -0.7386
 8136TIP3    H145823   3.920   4.189   2.036 -0.4700 -0.2168 -0.7935
 8136TIP3    H245824   3.863   4.113   2.154  1.7730 -1.1294 -0.2508
 8137TIP3   OH245825   5.203   4.569   5.983 -0.5132 -0.1394 -0.1240
 8137TIP3    H145826   5.183   4.659   6.007 -0.0172 -0.1795  0.4547
 8137TIP3    H245827   5.131   4.518   6.021 -0.9454  0.0362 -0.6938
 8138TIP3   OH245828   3.506   6.653  11.763 -0.0971 -0.0027 -0.1070
 8138TIP3    H145829   3.525   6.635  11.855 -3.5922  1.0822  0.9820
 8138TIP3    H245830   3.459   6.576  11.733 -1.2566  0.6969 -0.1476
 8139TIP3   OH245831   1.103   1.996   4.035  0.4735 -0.6720 -0.1434
 8139TIP3    H145832   1.082   1.961   3.949  1.6051  1.4597 -1.3705
 8139TIP3    H245833   1.195   1.973   4.050  1.4538  2.0979 -1.2740
 8140TIP3   OH245834   6.338   5.328  13.055 -0.3226 -0.2309 -0.3705
 8140TIP3    H145835   6.323   5.405  13.000 -0.6573  0.2211  0.3430
 8140TIP3    H245836   6.315   5.356  13.143 -0.7776 -1.2557 -0.1471
 8141TIP3   OH245837   5.124   4.435  16.335  0.3565 -0.6927 -0.4834
 8141TIP3    H145838   5.029   4.433  16.347  0.5970 -0.9587  2.0752
 8141TIP3    H245839   5.147   4.528  16.338  0.1100 -0.5591 -2.1393
 8142TIP3   OH245840   0.997   4.305   3.730  0.1293 -0.3219  0.0913
 8142TIP3    H145841   1.040   4.391   3.733 -2.3477  1.0524 -1.0040
 8142TIP3    H245842   1.027   4.266   3.648  0.1080  0.1691 -0.1554
 8143TIP3   OH245843   1.545   3.416  15.635 -0.1318 -0.3236 -0.1318
 8143TIP3    H145844   1.528   3.441  15.726 -1.8459  1.1557 -0.8002
 8143TIP3    H245845   1.596   3.335  15.642  0.3520  0.0983  2.1290
 8144TIP3   OH245846   6.510   4.401  12.164  0.2641 -0.1499  0.7963
 8144TIP3    H145847   6.456   4.325  12.186 -1.4733  0.7904 -0.0074
 8144TIP3    H245848   6.586   4.395  12.222  0.7759 -3.1222 -0.0423
 8145TIP3   OH245849   2.791   2.062  17.008  0.1359 -0.1916  0.7926
 8145TIP3    H145850   2.877   2.051  16.968  0.3558  2.4919  0.3208
 8145TIP3    H245851   2.798   2.020  17.094  1.1974 -1.8619 -0.0705
 8146TIP3   OH245852   4.927   3.827  11.704  0.8599 -0.1513  0.1855
 8146TIP3    H145853   4.930   3.804  11.796 -2.4171  0.0897  0.4451
 8146TIP3    H245854   4.915   3.743  11.659  0.0204 -0.0369  0.1929
 8147TIP3   OH245855   2.040   6.346  16.215 -0.3296  0.2499 -1.0058
 8147TIP3    H145856   2.005   6.261  16.241 -0.4876  0.4105 -0.6794
 8147TIP3    H245857   1.963   6.395  16.184 -0.0827 -0.0874 -2.2125
 8148TIP3   OH245858   2.184   6.458   1.284 -0.1820  0.0470  0.1326
 8148TIP3    H145859   2.229   6.383   1.324 -0.8555 -0.1019  0.6151
 8148TIP3    H245860   2.094   6.452   1.315 -0.1905  1.2058  0.3700
 8149TIP3   OH245861   4.140   4.993  10.733 -0.2977 -0.3390  0.4731
 8149TIP3    H145862   4.225   5.014  10.694  0.0437 -1.3071  0.6543
 8149TIP3    H245863   4.077   5.004  10.662  0.0808 -0.3389  0.1343
 8150TIP3   OH245864   6.766   4.753   4.676  0.1642  0.4009  0.1342
 8150TIP3    H145865   6.729   4.841   4.669  1.5291  1.0667  0.9304
 8150TIP3    H245866   6.785   4.743   4.769  0.8411 -0.3947 -0.0840
 8151TIP3   OH245867   0.713   5.203  11.321  0.2757  0.2962  0.0295
 8151TIP3    H145868   0.728   5.298  11.317 -0.5789  0.4383 -4.0348
 8151TIP3    H245869   0.618   5.193  11.314  0.2800 -0.8849  1.3651
 8152TIP3   OH245870   3.383   6.581   5.224 -0.5754 -0.1217 -0.1045
 8152TIP3    H145871   3.378   6.554   5.132  1.2396  2.3117 -1.0421
 8152TIP3    H245872   3.469   6.622   5.232 -1.3182  1.1658  2.2721
 8153TIP3   OH245873   5.189   4.308   1.678  0.1888  0.2139  0.2314
 8153TIP3    H145874   5.145   4.322   1.595 -4.6649 -1.6668  2.1340
 8153TIP3    H245875   5.240   4.228   1.665  1.3008  1.1234 -1.3985
 8154TIP3   OH245876   5.723   3.499   2.597 -0.3276  0.6213 -0.1940
 8154TIP3    H145877   5.690   3.528   2.682  0.1520  1.1341 -0.1786
 8154TIP3    H245878   5.768   3.417   2.615  0.9172  1.3880  0.2777
 8155TIP3   OH245879   2.723   2.158   0.581 -0.2132  0.1543 -0.1264
 8155TIP3    H145880   2.632   2.171   0.607  0.2315  1.7552  0.7810
 8155TIP3    H245881   2.748   2.240   0.538  1.4831  0.7852  1.8677
 8156TIP3   OH245882   2.286   0.690  17.123  0.4458 -0.2557 -0.0980
 8156TIP3    H145883   2.286   0.682  17.218  2.4850 -0.3215 -0.0716
 8156TIP3    H245884   2.294   0.601  17.091  4.2663 -0.0539 -0.1639
 8157TIP3   OH245885   3.949   3.475   3.686 -0.0443 -0.1808  0.0486
 8157TIP3    H145886   3.933   3.450   3.777 -1.0953  0.6936  0.1208
 8157TIP3    H245887   3.870   3.448   3.639 -0.4582  1.3211 -0.1878
 8158TIP3   OH245888   5.657   4.304   4.655 -0.1111  0.4889 -0.4589
 8158TIP3    H145889   5.613   4.329   4.736  0.1608  0.6221 -0.3503
 8158TIP3    H245890   5.746   4.340   4.664  0.3372 -0.6540 -0.2351
 8159TIP3   OH245891   0.376   0.205  13.946  0.3720 -0.2337 -0.1746
 8159TIP3    H145892   0.346   0.115  13.961  1.0379 -0.6635 -1.2633
 8159TIP3    H245893   0.389   0.241  14.033 -0.7232 -0.9080  0.2873
 8160TIP3   OH245894   2.062   2.598  17.101  0.4838  0.2980 -0.2501
 8160TIP3    H145895   2.142   2.646  17.121  1.6240 -1.3191 -0.7551
 8160TIP3    H245896   2.077   2.510  17.135 -1.2492  0.0573 -0.0093
 8161TIP3   OH245897   4.588   3.611   0.393  0.4681 -0.7692 -0.0714
 8161TIP3    H145898   4.577   3.571   0.307 -0.3693 -1.6875  0.4378
 8161TIP3    H245899   4.503   3.598   0.436  0.3829  0.9738  0.3770
 8162TIP3   OH245900   4.511   0.808  11.223  0.2309  0.1418 -0.6526
 8162TIP3    H145901   4.563   0.768  11.293 -2.6150  0.4746  1.8764
 8162TIP3    H245902   4.489   0.736  11.165  1.1728 -0.5048 -0.2295
 8163TIP3   OH245903   2.688   1.161  17.095 -0.6314  0.1470  0.1092
 8163TIP3    H145904   2.736   1.131  17.018  1.1798 -2.6027  2.1215
 8163TIP3    H245905   2.742   1.231  17.132 -0.2234 -0.2201  0.2088
 8164TIP3   OH245906   1.687   6.618   3.894  0.1310  0.6305 -0.8502
 8164TIP3    H145907   1.744   6.675   3.843  1.0107  2.4817  1.9885
 8164TIP3    H245908   1.741   6.590   3.968 -2.4702  2.3873  1.9456
 8165TIP3   OH245909   1.804   1.897  16.191 -0.0391 -0.0500 -0.4771
 8165TIP3    H145910   1.851   1.832  16.139  0.8217  0.5616 -0.4896
 8165TIP3    H245911   1.863   1.973  16.194 -2.0745  1.8191 -2.7996
 8166TIP3   OH245912   6.172   0.102  11.577  0.5647 -0.5787 -0.2683
 8166TIP3    H145913   6.086   0.125  11.610  1.0816  0.2675  0.5549
 8166TIP3    H245914   6.211   0.186  11.550  1.0918 -0.9582 -0.7188
 8167TIP3   OH245915   5.678   1.948  12.014 -0.1188 -0.0994 -0.5797
 8167TIP3    H145916   5.743   1.959  11.944 -0.1339 -1.0337 -0.7457
 8167TIP3    H245917   5.671   1.854  12.026  0.6458  0.0549  1.4114
 8168TIP3   OH245918   4.148   2.001  11.655  0.2641  0.0423 -0.3420
 8168TIP3    H145919   4.078   1.963  11.602  0.2438  0.2877 -0.4952
 8168TIP3    H245920   4.188   1.927  11.701 -0.3247 -0.0590  0.0163
 8169TIP3   OH245921   3.260   4.219  17.234  0.3127  0.1881  0.0861
 8169TIP3    H145922   3.184   4.184  17.280  0.1439 -0.4769 -0.6682
 8169TIP3    H245923   3.334   4.201  17.293 -0.1668  1.3708  1.0869
 8170TIP3   OH245924   1.054   0.997  12.874  0.1548 -0.0022 -0.2366
 8170TIP3    H145925   1.111   1.069  12.900  0.2346 -0.5931  1.3387
 8170TIP3    H245926   1.112   0.922  12.866 -0.1090 -0.1662 -0.6927
 8171TIP3   OH245927   1.413   4.836  15.960  0.0881  0.4689 -0.5675
 8171TIP3    H145928   1.455   4.750  15.959  1.2236  0.9004  1.8245
 8171TIP3    H245929   1.319   4.817  15.960  0.3100 -0.7288 -0.7598
 8172TIP3   OH245930   2.925   5.993   6.059  0.0253 -0.1392 -0.2867
 8172TIP3    H145931   2.950   6.056   6.126  0.2508  0.7914 -1.2309
 8172TIP3    H245932   2.989   6.005   5.989 -1.1787  0.0672 -1.3855
 8173TIP3   OH245933   1.818   0.644  10.673 -0.6584 -0.1168  0.1275
 8173TIP3    H145934   1.806   0.690  10.591  1.2264 -0.8814 -0.6277
 8173TIP3    H245935   1.891   0.689  10.716 -1.0213 -0.3015  0.9608
 8174TIP3   OH245936   2.343   5.149  14.440  0.9713  0.2370 -0.0275
 8174TIP3    H145937   2.356   5.172  14.532  0.8615 -0.0965  0.0739
 8174TIP3    H245938   2.262   5.193  14.415  2.4207  2.6440 -0.7725
 8175TIP3   OH245939   3.797   6.479   3.404 -0.3185  0.6668  0.3708
 8175TIP3    H145940   3.757   6.524   3.478  0.5018  1.1323  0.5498
 8175TIP3    H245941   3.866   6.425   3.442  0.7634  1.6544 -0.1083
 8176TIP3   OH245942   4.742   4.636  13.995 -0.3103  0.3496 -0.1416
 8176TIP3    H145943   4.810   4.628  13.927  0.4104 -0.7009  0.6621
 8176TIP3    H245944   4.748   4.727  14.023  1.1880  0.1460  0.3066
 8177TIP3   OH245945   0.731   3.834   4.624  0.4347 -0.3003  0.1044
 8177TIP3    H145946   0.685   3.917   4.614  0.2360 -0.4644 -0.4101
 8177TIP3    H245947   0.735   3.819   4.718  1.3477  0.7668  0.2434
 8178TIP3   OH245948   5.173   5.837  10.738  0.4452 -0.6691 -0.2873
 8178TIP3    H145949   5.157   5.902  10.807 -2.4717 -3.3219  1.7798
 8178TIP3    H245950   5.146   5.881  10.657  0.1298  1.2178  0.7829
 8179TIP3   OH245951   0.918   4.908  11.802  0.1307  0.2349 -0.2306
 8179TIP3    H145952   0.933   4.818  11.831  0.8796  0.6061  0.5810
 8179TIP3    H245953   0.978   4.920  11.728 -0.7657 -0.2667 -1.0622
 8180TIP3   OH245954   3.831   5.907   0.285  0.9608  0.0399 -0.0179
 8180TIP3    H145955   3.889   5.939   0.216  0.9176 -1.4781 -0.8107
 8180TIP3    H245956   3.816   5.815   0.262 -0.1775 -0.1185  1.2598
 8181TIP3   OH245957   3.871   1.874   0.505 -0.1701 -0.4332  0.1769
 8181TIP3    H145958   3.962   1.859   0.532  0.5610  1.3357 -1.1158
 8181TIP3    H245959   3.873   1.958   0.460 -2.3652 -0.6297 -0.3922
 8182TIP3   OH245960   5.403   1.898  14.356  0.4893  0.4474 -0.0834
 8182TIP3    H145961   5.350   1.822  14.333  2.4430 -1.0227 -0.0631
 8182TIP3    H245962   5.445   1.924  14.273  0.9922  0.5315  0.1917
 8183TIP3   OH245963   0.234   4.077  12.836  0.3138  0.2998  0.4681
 8183TIP3    H145964   0.319   4.040  12.811 -0.0027  0.5014 -0.9738
 8183TIP3    H245965   0.238   4.083  12.931  2.2615  1.1103  0.3811
 8184TIP3   OH245966   3.363   0.968  13.341 -0.0802 -0.0583 -0.1857
 8184TIP3    H145967   3.289   0.939  13.393  0.1626 -0.9469 -0.3305
 8184TIP3    H245968   3.339   0.948  13.250  0.4004 -0.5067 -0.2197
 8185TIP3   OH245969   0.233   0.931   4.193 -0.1266 -0.0236  0.0374
 8185TIP3    H145970   0.287   1.010   4.192 -0.0047 -0.1075 -0.2908
 8185TIP3    H245971   0.245   0.893   4.106 -1.0068  0.1566 -0.1744
 8186TIP3   OH245972   2.177   2.676   3.332 -0.0397 -1.2248  0.0148
 8186TIP3    H145973   2.151   2.657   3.242 -2.4509  0.7036  0.1919
 8186TIP3    H245974   2.123   2.618   3.385  0.0739 -1.1029  0.2635
 8187TIP3   OH245975   2.456   5.223   1.532  0.0826  0.2685  0.3043
 8187TIP3    H145976   2.361   5.213   1.536 -0.0837  1.2127 -0.8740
 8187TIP3    H245977   2.487   5.143   1.491 -0.2302  0.0790  0.4331
 8188TIP3   OH245978   3.690   4.371   2.205  0.0021 -0.4981  0.5217
 8188TIP3    H145979   3.776   4.365   2.246  0.5969  0.9124 -0.4395
 8188TIP3    H245980   3.635   4.309   2.254  1.6072 -1.6097  0.9981
 8189TIP3   OH245981   3.891   2.570  15.844 -0.0162  0.0089 -0.3328
 8189TIP3    H145982   3.881   2.661  15.816  0.0103 -0.0579 -0.5593
 8189TIP3    H245983   3.983   2.549  15.825 -0.5670 -0.7674 -2.3832
 8190TIP3   OH245984   2.657   0.715   7.059 -1.1253 -1.1077  0.4412
 8190TIP3    H145985   2.594   0.738   7.127 -1.1585 -1.6483  0.5937
 8190TIP3    H245986   2.655   0.620   7.055 -0.3929 -1.1207  0.3665
 8191TIP3   OH245987   3.663   0.323   5.230  0.5588  0.9922 -0.0700
 8191TIP3    H145988   3.677   0.397   5.290 -0.4147 -1.5700  3.6491
 8191TIP3    H245989   3.747   0.277   5.228  0.0247 -0.0948  1.1555
 8192TIP3   OH245990   4.848   6.177  14.487  0.6187  0.7645  1.0262
 8192TIP3    H145991   4.852   6.199  14.394  0.7649  0.5935  0.9931
 8192TIP3    H245992   4.802   6.252  14.526  0.4041  0.7588  0.7938
 8193TIP3   OH245993   2.676   4.018  16.139 -0.0825  0.2482  0.1084
 8193TIP3    H145994   2.627   3.965  16.201 -1.7078  1.5226 -0.0093
 8193TIP3    H245995   2.672   4.107  16.174  2.6983  0.3539  0.3795
 8194TIP3   OH245996   5.619   3.524   6.005 -0.0487 -0.1334 -0.1717
 8194TIP3    H145997   5.572   3.449   6.042 -0.8971  0.3004 -0.3263
 8194TIP3    H245998   5.576   3.600   6.045  0.2168  0.2885 -0.6825
 8195TIP3   OH245999   4.760   3.101  11.638  0.1666  0.6124  0.1346
 8195TIP3    H146000   4.673   3.138  11.623  0.9256  2.3449 -0.2573
 8195TIP3    H246001   4.818   3.154  11.583  1.2361 -1.7869 -1.1992
 8196TIP3   OH246002   0.975   6.172  13.706 -0.2944  0.6361 -0.2941
 8196TIP3    H146003   0.935   6.097  13.751 -0.3874  0.0554 -1.2928
 8196TIP3    H246004   0.909   6.197  13.641 -0.1593  1.4381 -0.1261
 8197TIP3   OH246005   3.100   0.997   0.097 -0.2348  0.0611  0.4144
 8197TIP3    H146006   3.092   1.049   0.177  1.7859  0.3197  0.5106
 8197TIP3    H246007   3.194   0.992   0.081 -0.5542 -0.5498 -1.5964
 8198TIP3   OH246008   6.248   1.078   6.452  0.0287  0.5257 -0.0877
 8198TIP3    H146009   6.217   0.988   6.459 -2.8158  1.3454 -0.6607
 8198TIP3    H246010   6.265   1.105   6.542 -0.0456 -0.2701  0.1704
 8199TIP3   OH246011   4.630   1.618   3.395  0.6803 -0.4409 -0.1822
 8199TIP3    H146012   4.588   1.656   3.472  0.1586 -0.5594 -0.4084
 8199TIP3    H246013   4.652   1.528   3.421  0.8544 -0.3590 -0.0433
 8200TIP3   OH246014   2.083   1.387  16.152  0.0402  0.0349  0.2785
 8200TIP3    H146015   2.055   1.299  16.179 -1.7485  1.2825  2.9114
 8200TIP3    H246016   2.177   1.388  16.169  0.1600 -1.4601 -0.1090
 8201TIP3   OH246017   4.598   6.548   1.650 -0.2870  0.0744 -0.2363
 8201TIP3    H146018   4.514   6.587   1.626  0.2177  1.5380  0.2497
 8201TIP3    H246019   4.588   6.527   1.743  0.2898  1.5175  0.1939
 8202TIP3   OH246020   0.531   4.112  13.913  0.0813  0.1705  0.2901
 8202TIP3    H146021   0.462   4.170  13.945 -0.5693  0.7191 -1.9426
 8202TIP3    H246022   0.509   4.026  13.949 -1.4355  0.4602  0.1048
 8203TIP3   OH246023   1.558   1.425  13.009 -0.2458 -0.2445 -0.1627
 8203TIP3    H146024   1.644   1.387  13.024 -2.1319 -5.1393  0.1802
 8203TIP3    H246025   1.557   1.448  12.916  2.0047  2.0413  0.2933
 8204TIP3   OH246026   0.187   4.488  14.913  0.1367 -0.2007 -0.1387
 8204TIP3    H146027   0.147   4.461  14.996 -0.8149  0.0975 -0.4935
 8204TIP3    H246028   0.280   4.502  14.935 -0.0536 -0.3625  0.8158
 8205TIP3   OH246029   5.344   2.488   3.754  0.2174  0.4361  0.0749
 8205TIP3    H146030   5.323   2.542   3.831 -0.1188 -1.9490  1.7481
 8205TIP3    H246031   5.429   2.450   3.774  0.2457 -0.0055 -0.8589
 8206TIP3   OH246032   6.377   3.122   3.355 -0.5863  0.2438  0.2436
 8206TIP3    H146033   6.435   3.066   3.407  1.7882  3.1092  1.0085
 8206TIP3    H246034   6.325   3.168   3.421  0.4803  1.8823 -0.0014
 8207TIP3   OH246035   1.634   0.032   6.438 -0.0581  0.5807 -0.0282
 8207TIP3    H146036   1.648  -0.052   6.394 -4.1467 -0.8557  0.9229
 8207TIP3    H246037   1.672   0.020   6.525 -0.7876 -0.4135  0.1709
 8208TIP3   OH246038   3.715   1.830  15.582 -0.0078 -0.4911 -0.1193
 8208TIP3    H146039   3.734   1.758  15.643 -0.3178 -0.5882 -0.1370
 8208TIP3    H246040   3.655   1.887  15.631  1.0112  0.2896  0.2754
 8209TIP3   OH246041   4.761   5.553   4.487 -0.0440  0.7846 -0.4584
 8209TIP3    H146042   4.749   5.627   4.547  1.0466 -0.5769  1.5694
 8209TIP3    H246043   4.855   5.553   4.468  0.0084 -0.2008 -0.2419
 8210TIP3   OH246044   5.254   5.197  15.430  0.0844 -0.1862  0.0416
 8210TIP3    H146045   5.223   5.276  15.474  0.1228 -0.4879  0.6109
 8210TIP3    H246046   5.179   5.168  15.379 -0.8005 -1.2211  1.8374
 8211TIP3   OH246047   3.710   3.559   0.577 -0.2330 -0.1760  0.1846
 8211TIP3    H146048   3.629   3.567   0.527  0.3698  1.7225 -0.5547
 8211TIP3    H246049   3.681   3.534   0.665 -1.8334  2.2440  0.4307
 8212TIP3   OH246050   5.889   6.211  13.275  0.3510  0.2198 -0.5404
 8212TIP3    H146051   5.935   6.262  13.341  1.4708 -0.4482 -0.7780
 8212TIP3    H246052   5.860   6.275  13.210  0.7433  0.6886 -0.2584
 8213TIP3   OH246053   2.180   0.281   4.695 -0.5388  0.1836  0.1749
 8213TIP3    H146054   2.135   0.262   4.613 -1.1368  0.8958  0.3261
 8213TIP3    H246055   2.122   0.341   4.741 -0.6378 -0.9047  1.5303
 8214TIP3   OH246056   3.820   6.659   5.465  0.0459  0.0146  0.0477
 8214TIP3    H146057   3.779   6.690   5.546  3.1608  1.7516  1.1296
 8214TIP3    H246058   3.786   6.718   5.397  0.7502  1.4860  0.9216
 8215TIP3   OH246059   6.139   3.899   1.226  0.0515 -0.1927 -0.0011
 8215TIP3    H146060   6.102   3.895   1.138  0.2283  1.1031 -0.1459
 8215TIP3    H246061   6.065   3.881   1.284  0.2059 -2.4465 -0.4215
 8216TIP3   OH246062   1.004   2.577  16.862 -0.3536  0.1114 -0.1841
 8216TIP3    H146063   0.967   2.492  16.889  0.6347 -0.2400  0.0849
 8216TIP3    H246064   1.038   2.614  16.943 -0.0113  0.3832 -0.4557
 8217TIP3   OH246065   2.974   6.193  15.272 -0.1869  0.5726 -0.3376
 8217TIP3    H146066   3.020   6.122  15.228 -0.4961  0.6186 -0.7429
 8217TIP3    H246067   2.979   6.267  15.212  2.7493  1.8820  1.3091
 8218TIP3   OH246068   1.385   0.766  11.166 -0.2258 -0.4843 -0.1563
 8218TIP3    H146069   1.481   0.764  11.173 -0.0720 -0.1974 -1.7327
 8218TIP3    H246070   1.366   0.703  11.096 -1.1119  0.1272 -0.4741
 8219TIP3   OH246071   0.535   6.370  15.144 -0.0032  0.8044  0.3813
 8219TIP3    H146072   0.455   6.423  15.147 -0.4875  0.0634  1.2877
 8219TIP3    H246073   0.512   6.290  15.192  1.5761  0.9761  1.5057
 8220TIP3   OH246074   4.946   4.761   1.478  0.3749 -0.2294  0.6671
 8220TIP3    H146075   5.017   4.770   1.541  0.2984 -1.7337  0.9875
 8220TIP3    H246076   4.882   4.704   1.520 -0.2211 -0.3141 -0.3075
 8221TIP3   OH246077   4.579   0.569   3.706  0.3567 -0.7485 -0.1504
 8221TIP3    H146078   4.659   0.598   3.663  0.7186  0.4094  1.2282
 8221TIP3    H246079   4.510   0.581   3.640  0.6847  2.1857 -0.0948
 8222TIP3   OH246080   2.172   0.246   2.040 -0.1272 -0.1667 -0.4981
 8222TIP3    H146081   2.219   0.246   2.124 -1.0531  0.3275  0.0292
 8222TIP3    H246082   2.082   0.265   2.062 -0.6698 -1.4119 -1.4809
 8223TIP3   OH246083   6.039   0.758  12.886 -0.2016 -0.2451 -0.0724
 8223TIP3    H146084   6.065   0.848  12.867  0.9380 -0.8298 -1.4992
 8223TIP3    H246085   6.111   0.722  12.936 -0.7381 -0.3262  0.6558
 8224TIP3   OH246086   0.998   0.187  13.528 -0.1591 -0.0110 -0.2014
 8224TIP3    H146087   0.919   0.133  13.531 -0.5057  0.5265  1.4394
 8224TIP3    H246088   1.063   0.136  13.577 -0.5078  1.0370  1.4179
 8225TIP3   OH246089   0.451   0.126   6.200  0.3199  0.2941  0.2074
 8225TIP3    H146090   0.542   0.156   6.202  0.1690  0.7122  1.5069
 8225TIP3    H246091   0.456   0.039   6.161  1.4210 -0.1581  1.2980
 8226TIP3   OH246092   4.179   6.015   2.209  0.1259 -0.0697 -0.1773
 8226TIP3    H146093   4.203   5.925   2.187  1.2437  0.1534  0.0926
 8226TIP3    H246094   4.259   6.065   2.194 -0.3588  0.8061  0.1340
 8227TIP3   OH246095   6.353   4.028  15.523  0.0931 -0.5048 -0.0572
 8227TIP3    H146096   6.285   3.984  15.574  0.0160  1.0332  1.2450
 8227TIP3    H246097   6.413   4.063  15.589  1.1053 -0.1907 -1.1128
 8228TIP3   OH246098   4.374   6.241  15.089  0.0387  0.3044  0.3742
 8228TIP3    H146099   4.301   6.190  15.054 -0.0524  0.5105  0.2564
 8228TIP3    H246100   4.425   6.179  15.141 -0.4989  0.2769  0.8716
 8229TIP3   OH246101   0.890   0.623   3.779 -0.0647  0.0991 -0.5016
 8229TIP3    H146102   0.903   0.683   3.705  0.0757  0.1224 -0.4576
 8229TIP3    H246103   0.812   0.657   3.823  0.8158  1.0760  0.3388
 8230TIP3   OH246104   0.037   0.395   2.097 -0.2708 -0.4647  0.0034
 8230TIP3    H146105  -0.002   0.310   2.076 -1.4184  0.2570 -0.9406
 8230TIP3    H246106  -0.038   0.451   2.118  0.5843 -0.2361  2.9581
 8231TIP3   OH246107   4.598   5.776   5.514  0.1939  0.5827 -0.1327
 8231TIP3    H146108   4.576   5.686   5.538 -0.4156  1.1057  1.3948
 8231TIP3    H246109   4.672   5.767   5.453  0.6413 -0.9284  0.5799
 8232TIP3   OH246110   5.190   0.613   1.418 -0.0389  0.4314  0.0018
 8232TIP3    H146111   5.243   0.599   1.496  0.9645  1.4044 -0.4799
 8232TIP3    H246112   5.214   0.542   1.359 -1.0012 -0.4645  0.6617
 8233TIP3   OH246113   6.001   5.440  16.497 -0.2156  0.0006 -0.0479
 8233TIP3    H146114   6.074   5.456  16.436  0.1899  0.5769  0.5637
 8233TIP3    H246115   6.037   5.380  16.562 -0.4790 -0.1843 -0.0704
 8234TIP3   OH246116   0.902   3.978  16.919 -0.1301 -0.2106  0.4663
 8234TIP3    H146117   0.860   3.901  16.957 -1.8165  0.1518 -0.5810
 8234TIP3    H246118   0.996   3.963  16.933 -0.2075 -3.4721 -1.5366
 8235TIP3   OH246119   6.655   6.592  12.183  0.1458 -0.0934  0.0372
 8235TIP3    H146120   6.687   6.673  12.144  0.2612  1.2596  2.7038
 8235TIP3    H246121   6.599   6.621  12.256  1.3971 -2.3372  2.0294
 8236TIP3   OH246122   3.594   2.308   5.471  0.1148  0.2417  0.2171
 8236TIP3    H146123   3.557   2.359   5.543 -0.2346 -1.4552  1.3115
 8236TIP3    H246124   3.688   2.308   5.487  0.1899  1.1202 -0.1977
 8237TIP3   OH246125   0.795   1.813  12.298  0.8018  0.0304  0.1797
 8237TIP3    H146126   0.719   1.830  12.355  1.8000  2.6029  0.8662
 8237TIP3    H246127   0.757   1.799  12.211 -0.5840 -1.1432  0.9431
 8238TIP3   OH246128   5.952   3.751  14.610  0.3828  0.6678  0.6583
 8238TIP3    H146129   5.897   3.825  14.637 -0.3034  0.1868  0.5924
 8238TIP3    H246130   6.041   3.782  14.626  0.0803  1.2406  1.3387
 8239TIP3   OH246131   6.246   0.434  15.371  0.2749  0.4733 -0.1797
 8239TIP3    H146132   6.298   0.509  15.344 -0.3114 -0.2094 -3.5618
 8239TIP3    H246133   6.305   0.359  15.365  0.0031  0.2289  0.0929
 8240TIP3   OH246134   6.609   0.110   2.686  0.3089 -0.3357 -0.4599
 8240TIP3    H146135   6.520   0.076   2.672  0.2958  0.1813 -1.8732
 8240TIP3    H246136   6.653   0.096   2.602  1.3900 -0.0434  0.0366
 8241TIP3   OH246137   1.405   5.199  14.190 -0.3753  0.0742 -0.1844
 8241TIP3    H146138   1.469   5.167  14.254 -0.4841  1.6546  0.7615
 8241TIP3    H246139   1.321   5.169  14.223 -0.3664  0.2538 -0.0024
 8242TIP3   OH246140   0.764   5.291   4.228 -0.3133  0.5051 -0.0838
 8242TIP3    H146141   0.828   5.355   4.195  1.5540 -0.7540  0.9183
 8242TIP3    H246142   0.817   5.221   4.266 -2.3007 -1.2778 -0.4080
 8243TIP3   OH246143   0.155   2.620   6.719  0.2231 -0.3802 -0.4294
 8243TIP3    H146144   0.250   2.627   6.712  0.1930  0.3908 -0.0705
 8243TIP3    H246145   0.124   2.631   6.629  0.4144  0.3924 -0.4081
 8244TIP3   OH246146   2.785   1.554  16.048  0.6933  0.0438 -0.4867
 8244TIP3    H146147   2.841   1.610  16.102  0.9916  0.1363 -0.8936
 8244TIP3    H246148   2.830   1.469  16.047  0.4390 -0.1027 -0.1975
 8245TIP3   OH246149   4.230   4.271  16.404  0.3443 -0.7725  0.0583
 8245TIP3    H146150   4.172   4.327  16.353 -0.0031 -0.6538  0.5725
 8245TIP3    H246151   4.307   4.257  16.348  0.3530  0.0658 -0.1456
 8246TIP3   OH246152   4.064   1.826  15.147  0.0612 -0.1703  0.0816
 8246TIP3    H146153   3.977   1.845  15.110 -0.2759 -0.4755  0.7033
 8246TIP3    H246154   4.087   1.740  15.112 -0.2736 -0.4753  0.6057
 8247TIP3   OH246155   3.059   2.474   1.105 -0.6523  0.0952 -0.7367
 8247TIP3    H146156   3.082   2.455   1.196  0.2516  0.5726 -0.8612
 8247TIP3    H246157   3.073   2.568   1.096  0.8101 -0.2078 -1.8088
 8248TIP3   OH246158   3.760   5.237  15.754  0.5193 -0.1363 -0.3818
 8248TIP3    H146159   3.830   5.206  15.812  0.5460 -1.0123 -0.8619
 8248TIP3    H246160   3.709   5.159  15.734  0.0008  0.3134 -0.8438
 8249TIP3   OH246161   0.414   2.988   4.458  0.7581 -0.4997 -0.4539
 8249TIP3    H146162   0.436   3.036   4.537  1.4675 -0.1984 -0.8192
 8249TIP3    H246163   0.462   2.905   4.467 -0.8501 -1.3793  0.4037
 8250TIP3   OH246164   4.976   5.005  13.449 -0.1244 -0.0468  0.0273
 8250TIP3    H146165   4.929   4.926  13.423  0.9925 -0.0117 -2.3149
 8250TIP3    H246166   4.931   5.076  13.402  0.5412  0.3581 -0.0127
 8251TIP3   OH246167   5.202   4.321   3.323  0.1480  0.3292  0.1063
 8251TIP3    H146168   5.295   4.311   3.342  0.3405 -0.3814 -1.1204
 8251TIP3    H246169   5.195   4.310   3.228 -1.3455 -0.9970  0.3271
 8252TIP3   OH246170   4.642   2.275   3.636 -0.6414  0.2396  0.3532
 8252TIP3    H146171   4.685   2.360   3.642 -0.9004  0.2957  1.6159
 8252TIP3    H246172   4.566   2.282   3.695 -0.0248 -1.2334  1.3840
 8253TIP3   OH246173   3.101   4.518  12.360 -0.1031 -0.2445  0.4460
 8253TIP3    H146174   3.164   4.506  12.289  0.0400 -0.0297  0.5362
 8253TIP3    H246175   3.140   4.586  12.415 -0.6013  0.1704  0.2880
 8254TIP3   OH246176   0.217   1.470   1.309  0.0378 -0.5621  0.0085
 8254TIP3    H146177   0.162   1.476   1.232  0.2549  0.5479 -0.0760
 8254TIP3    H246178   0.160   1.435   1.377 -0.6846  0.2312 -0.1736
 8255TIP3   OH246179   5.172   3.846  11.567 -0.1167 -0.0563  0.6814
 8255TIP3    H146180   5.236   3.848  11.638 -1.0668  0.1209  1.5668
 8255TIP3    H246181   5.087   3.846  11.612 -0.7851  1.8972 -0.4459
 8256TIP3   OH246182   5.570   2.015   0.120 -0.1999 -0.1024  0.0774
 8256TIP3    H146183   5.655   1.972   0.118 -0.5592 -0.8443  0.5969
 8256TIP3    H246184   5.507   1.945   0.111 -0.8130  0.2082  1.5505
 8257TIP3   OH246185   3.629   5.576  15.454 -0.0502 -0.0014  0.6474
 8257TIP3    H146186   3.701   5.639  15.444 -0.2875 -0.0363 -1.8175
 8257TIP3    H246187   3.672   5.493  15.474  0.4215  0.4266  1.4670
 8258TIP3   OH246188   0.424   5.062  11.607  0.2323  0.5964 -0.3227
 8258TIP3    H146189   0.478   5.095  11.679  1.0783 -0.8835 -0.2470
 8258TIP3    H246190   0.349   5.022  11.650  0.7358 -0.2842 -0.2543
 8259TIP3   OH246191   2.419   3.444   0.172  0.2953 -0.4532 -0.4323
 8259TIP3    H146192   2.349   3.425   0.110  1.5612 -1.0719 -1.7218
 8259TIP3    H246193   2.497   3.459   0.118  1.0595  0.7952  0.9291
 8260TIP3   OH246194   5.194   3.396   4.662 -0.3524  0.0118 -0.0061
 8260TIP3    H146195   5.177   3.335   4.734 -2.8339 -0.2826 -0.7411
 8260TIP3    H246196   5.229   3.341   4.593 -1.3177 -0.3869 -0.2022
 8261TIP3   OH246197   1.797   1.208  16.931  0.2572 -0.1323  0.2974
 8261TIP3    H146198   1.719   1.248  16.890  0.2294 -1.2697 -0.8341
 8261TIP3    H246199   1.800   1.246  17.018 -0.3405  1.5608 -0.3679
 8262TIP3   OH246200   2.076   1.577   4.414 -0.5959  0.0726 -0.0263
 8262TIP3    H146201   2.085   1.494   4.366  0.5179 -0.9816  1.8472
 8262TIP3    H246202   2.013   1.557   4.484 -1.0116  1.0929 -0.0974
 8263TIP3   OH246203   0.173   5.955   1.519  0.5329 -0.7746  0.9155
 8263TIP3    H146204   0.167   6.044   1.551  2.3339 -0.4142  0.3685
 8263TIP3    H246205   0.089   5.915   1.542 -1.5765  1.9002 -1.4611
 8264TIP3   OH246206   3.216   4.088   0.534 -0.3526 -0.1036  0.6037
 8264TIP3    H146207   3.239   4.167   0.583  3.0893  0.3956 -1.4854
 8264TIP3    H246208   3.261   4.017   0.578 -3.0017 -0.9663  2.1502
 8265TIP3   OH246209   5.225   6.400  12.847 -0.3060  0.2608 -0.4908
 8265TIP3    H146210   5.205   6.428  12.936 -0.6402  1.7062 -1.0055
 8265TIP3    H246211   5.146   6.356  12.817  0.0373 -0.8437  0.1281
 8266TIP3   OH246212   3.963   1.292  15.154 -0.2421  0.0799 -0.5048
 8266TIP3    H146213   3.938   1.310  15.245  0.8946  0.2739 -0.2194
 8266TIP3    H246214   4.041   1.346  15.140 -1.3970  1.4194 -2.1572
 8267TIP3   OH246215   6.037   5.710  17.256 -0.6684  0.2718  0.2107
 8267TIP3    H146216   6.108   5.721  17.193 -1.7578  2.1503 -0.7858
 8267TIP3    H246217   6.062   5.766  17.330  0.6397 -1.9778  1.5850
 8268TIP3   OH246218   0.894   3.465   1.007 -0.5939 -0.4601 -0.1800
 8268TIP3    H146219   0.876   3.515   0.927 -0.8537 -0.4550 -0.1204
 8268TIP3    H246220   0.898   3.531   1.076 -2.4411 -0.6468  0.1422
 8269TIP3   OH246221   3.715   1.617  10.356  0.1650  0.3288  0.0562
 8269TIP3    H146222   3.624   1.638  10.336 -0.2274 -0.5904  0.7856
 8269TIP3    H246223   3.755   1.600  10.271 -0.8432 -1.1614 -0.1607
 8270TIP3   OH246224   1.541   4.278  17.013 -0.2537 -0.0344 -0.2044
 8270TIP3    H146225   1.467   4.218  17.016  0.4332 -0.8605  0.9368
 8270TIP3    H246226   1.549   4.302  16.921 -0.9669 -1.1579 -0.5761
 8271TIP3   OH246227   2.964   6.224   1.124 -0.1117 -0.1239  0.0344
 8271TIP3    H146228   3.051   6.212   1.161 -0.0111 -2.0073 -0.6846
 8271TIP3    H246229   2.920   6.140   1.137 -0.6035 -0.3700 -2.6318
 8272TIP3   OH246230   4.424   3.631   2.177  0.6105  0.4715 -0.2494
 8272TIP3    H146231   4.494   3.565   2.180  0.3297  0.1905  0.1954
 8272TIP3    H246232   4.399   3.635   2.085  0.2003 -0.5073 -0.1907
 8273TIP3   OH246233   5.941   4.393   1.401 -0.2582  0.0720 -0.6168
 8273TIP3    H146234   5.886   4.391   1.479  1.5365  1.7856  0.8194
 8273TIP3    H246235   6.025   4.356   1.431  0.4266  0.6601 -1.7410
 8274TIP3   OH246236   1.530   5.162  13.605 -0.1470 -0.4684  0.1517
 8274TIP3    H146237   1.458   5.221  13.630  0.8719  0.6133  0.6305
 8274TIP3    H246238   1.489   5.097  13.549 -1.3023  0.7920 -0.5334
 8275TIP3   OH246239   4.802   6.760  12.427  0.7205  0.3776  0.1271
 8275TIP3    H146240   4.709   6.742  12.439  0.3285  1.6352 -0.9253
 8275TIP3    H246241   4.839   6.677  12.398 -0.3515  0.2503 -0.9136
 8276TIP3   OH246242   6.677   0.867   3.347 -0.4652 -0.4653 -0.1372
 8276TIP3    H146243   6.734   0.944   3.338  0.6925 -1.2129  0.6103
 8276TIP3    H246244   6.604   0.898   3.401 -0.3938  0.3058 -0.4671
 8277TIP3   OH246245   5.111   0.410  12.174  0.0095 -0.6887  0.1280
 8277TIP3    H146246   5.109   0.397  12.079  2.4756 -0.1152 -0.0711
 8277TIP3    H246247   5.055   0.340  12.209 -2.8246  0.4225 -1.7756
 8278TIP3   OH246248   4.954   4.688  13.743  0.3141  0.5606 -0.0510
 8278TIP3    H146249   4.896   4.622  13.706  1.8194 -0.5347 -0.5554
 8278TIP3    H246250   4.907   4.770  13.731 -1.1063 -0.2772 -0.4595
 8279TIP3   OH246251   2.302   1.599  16.660 -0.2844  0.2925 -0.0253
 8279TIP3    H146252   2.362   1.528  16.684 -1.5521 -1.2504 -1.1176
 8279TIP3    H246253   2.252   1.563  16.586 -1.2314  2.2205 -0.3810
 8280TIP3   OH246254   4.825   5.844  12.172 -0.3404  0.3760 -0.5178
 8280TIP3    H146255   4.795   5.852  12.082 -1.3337  0.8397 -0.1634
 8280TIP3    H246256   4.856   5.754  12.180  0.2158  0.4762 -1.4486
 8281TIP3   OH246257   1.457   0.088  16.877 -0.1520  0.2223  0.7018
 8281TIP3    H146258   1.496   0.147  16.942  2.2200 -0.0853 -0.3422
 8281TIP3    H246259   1.458   0.138  16.796  1.2326 -0.9274 -0.0432
 8282TIP3   OH246260   2.260   3.943   0.684 -0.3114  0.0636  0.6845
 8282TIP3    H146261   2.320   3.868   0.692 -0.8461 -0.4239  0.2467
 8282TIP3    H246262   2.303   4.002   0.623 -1.1195 -1.1721 -1.1596
 8283TIP3   OH246263   0.146   3.017  13.009 -0.5240 -0.0280 -0.1159
 8283TIP3    H146264   0.121   3.102  12.972 -0.7104 -0.5096 -1.1269
 8283TIP3    H246265   0.085   2.955  12.969  0.9573 -0.9340 -1.0335
 8284TIP3   OH246266   3.568   2.563   0.448 -0.4217 -0.0049  0.0444
 8284TIP3    H146267   3.490   2.601   0.409 -0.9088 -1.8419 -0.9220
 8284TIP3    H246268   3.629   2.636   0.459 -1.7791  1.2280 -0.4299
 8285TIP3   OH246269   3.131   3.295   4.993  0.0704 -0.1695  0.2267
 8285TIP3    H146270   3.084   3.377   5.007  1.0681  0.6732 -1.0821
 8285TIP3    H246271   3.205   3.300   5.054  0.2949  0.0467 -0.0615
 8286TIP3   OH246272   0.972   4.520   2.094 -0.2428 -0.2841 -0.0169
 8286TIP3    H146273   0.969   4.473   2.177 -1.3490 -0.9398 -0.4093
 8286TIP3    H246274   0.928   4.603   2.111  0.1420 -0.1233  0.2163
 8287TIP3   OH246275   3.616   5.174   4.933  0.0110  0.0089 -0.4162
 8287TIP3    H146276   3.629   5.188   5.027 -0.4928 -1.7054 -0.0681
 8287TIP3    H246277   3.588   5.260   4.900  0.1955  0.6375  0.9831
 8288TIP3   OH246278   5.368   3.974  13.816  0.2188  0.4331  0.6240
 8288TIP3    H146279   5.378   3.896  13.762  0.3851 -0.1805  1.5080
 8288TIP3    H246280   5.456   3.992  13.849  0.0208  0.4179  1.1795
 8289TIP3   OH246281   1.121   0.455   5.268 -0.5230  0.0392  0.0029
 8289TIP3    H146282   1.169   0.381   5.305  0.1424  0.4881  0.0647
 8289TIP3    H246283   1.036   0.419   5.243 -0.3104 -0.6781  0.2874
 8290TIP3   OH246284   3.393   3.756   1.721 -0.4076 -0.3142  0.0333
 8290TIP3    H146285   3.364   3.842   1.692 -0.3491 -0.4021 -0.2930
 8290TIP3    H246286   3.366   3.697   1.651  1.2117 -0.3000 -0.6416
 8291TIP3   OH246287   2.499   0.515   4.110  0.4241 -0.0041 -0.1701
 8291TIP3    H146288   2.434   0.457   4.072 -0.3901  1.6389 -1.3877
 8291TIP3    H246289   2.555   0.540   4.037  1.5355 -0.2095  0.5792
 8292TIP3   OH246290   1.036   3.599  15.481  0.0657 -0.5376 -0.7844
 8292TIP3    H146291   1.130   3.587  15.474  0.1060 -1.8229  1.0919
 8292TIP3    H246292   0.998   3.520  15.442 -0.2303 -0.2533 -1.0854
 8293TIP3   OH246293   5.078   5.756   1.454  0.4696  0.1473 -0.8970
 8293TIP3    H146294   5.172   5.758   1.437  0.3099  0.7177 -1.8045
 8293TIP3    H246295   5.059   5.838   1.499  0.1017  1.0166 -2.5677
 8294TIP3   OH246296   2.998   6.124  13.443  0.4294 -0.4177 -0.1454
 8294TIP3    H146297   2.947   6.043  13.450 -0.2181 -0.2064 -1.8726
 8294TIP3    H246298   2.949   6.188  13.494 -0.2270 -0.6023 -0.5334
 8295TIP3   OH246299   6.099   2.093   2.810  0.3884  0.4836  0.0901
 8295TIP3    H146300   6.108   2.186   2.792  0.2074  0.5372  0.2625
 8295TIP3    H246301   6.186   2.064   2.837  0.4155  0.6314  0.1588
 8296TIP3   OH246302   1.239   1.954  14.103 -0.0746  0.5574 -0.2500
 8296TIP3    H146303   1.323   1.990  14.130  0.7756 -0.7370 -1.0870
 8296TIP3    H246304   1.200   1.919  14.183  2.3435 -3.1254 -0.4714
 8297TIP3   OH246305   4.532   4.546   1.388  0.3733  0.4444 -0.1467
 8297TIP3    H146306   4.469   4.484   1.425  1.0035 -0.1775 -0.0830
 8297TIP3    H246307   4.479   4.618   1.356 -0.4579 -0.5222 -1.0138
 8298TIP3   OH246308   0.114   4.954  16.921 -0.1257 -0.1393 -0.0094
 8298TIP3    H146309   0.199   4.958  16.877  0.1868 -1.0200  0.4715
 8298TIP3    H246310   0.094   5.045  16.944  0.2846  0.1748 -0.8626
 8299TIP3   OH246311   5.352   4.449   2.926 -0.0079 -0.0744 -0.0221
 8299TIP3    H146312   5.438   4.409   2.935 -0.3881 -0.8446  0.3120
 8299TIP3    H246313   5.351   4.487   2.837  0.1845 -1.2673 -0.5470
 8300TIP3   OH246314   6.571   3.222  15.185 -0.5084 -0.3787  0.3596
 8300TIP3    H146315   6.602   3.291  15.126 -0.2891 -1.0921 -0.3777
 8300TIP3    H246316   6.482   3.202  15.155 -0.1511 -1.2163 -0.1854
 8301TIP3   OH246317   1.386   0.822  12.632 -0.3583  0.4634 -0.2147
 8301TIP3    H146318   1.477   0.829  12.603  0.2733 -0.0011  1.5165
 8301TIP3    H246319   1.357   0.736  12.601  0.6007 -0.4221  1.2066
 8302TIP3   OH246320   5.324   0.522   2.641  0.0492 -0.2661  0.1503
 8302TIP3    H146321   5.242   0.490   2.603  0.6254 -2.2687  0.4766
 8302TIP3    H246322   5.311   0.516   2.736  0.1095  0.7208  0.2342
 8303TIP3   OH246323   4.429   1.159   3.617  0.4924 -0.5916  0.0478
 8303TIP3    H146324   4.477   1.076   3.623  0.3379 -0.7010 -0.2166
 8303TIP3    H246325   4.348   1.143   3.665  0.7284 -0.3981  0.5170
 8304TIP3   OH246326   3.680   3.795  13.019  1.0997 -0.3998 -0.1403
 8304TIP3    H146327   3.740   3.860  13.054  0.8619 -1.4335  2.4071
 8304TIP3    H246328   3.593   3.826  13.044  0.9316 -1.2333  0.3566
 8305TIP3   OH246329   4.813   2.152  12.365 -0.0293  0.3652 -1.2563
 8305TIP3    H146330   4.834   2.133  12.273  0.0498 -2.7385 -0.6831
 8305TIP3    H246331   4.746   2.088  12.389  0.0782  0.9852  0.9224
 8306TIP3   OH246332   1.246   3.166   4.760  0.2102 -0.6018 -0.0039
 8306TIP3    H146333   1.324   3.129   4.718  0.9505 -0.0897  0.8821
 8306TIP3    H246334   1.271   3.176   4.852 -0.3956  0.9067  0.0257
 8307TIP3   OH246335   6.519   1.550   1.215  0.1935 -0.2326  0.7293
 8307TIP3    H146336   6.561   1.487   1.274  1.5207  0.4677  0.5627
 8307TIP3    H246337   6.449   1.588   1.268  0.0153 -1.1040  1.1530
 8308TIP3   OH246338   2.711   6.486   5.385 -0.0435  0.1060 -0.1333
 8308TIP3    H146339   2.735   6.536   5.462 -0.9005 -1.7260  1.4132
 8308TIP3    H246340   2.793   6.449   5.353  0.1190 -0.6394  1.0694
 8309TIP3   OH246341   4.855   4.901   4.463 -0.0764 -0.3162  0.1879
 8309TIP3    H146342   4.795   4.864   4.397 -0.6012 -1.9906  1.5152
 8309TIP3    H246343   4.797   4.945   4.526  0.4528  1.6685 -0.6372
 8310TIP3   OH246344   6.371   3.058   3.907 -0.4625  0.1532  1.1585
 8310TIP3    H146345   6.297   3.085   3.960 -0.2184  2.1286  0.5930
 8310TIP3    H246346   6.446   3.103   3.946 -0.6752  4.3778 -2.4428
 8311TIP3   OH246347   0.468   4.496  16.875  0.1971  1.2120  0.5291
 8311TIP3    H146348   0.484   4.512  16.782 -0.2954 -1.6920 -0.1354
 8311TIP3    H246349   0.374   4.508  16.885 -0.1265 -0.6604  0.0918
 8312TIP3   OH246350   1.429   1.293   1.347 -0.7246 -0.0604  0.1227
 8312TIP3    H146351   1.511   1.279   1.300 -1.9056 -1.1122 -1.7707
 8312TIP3    H246352   1.374   1.340   1.285 -1.4250  1.0565  1.5407
 8313TIP3   OH246353   4.422   1.493   4.795  0.6798  0.6844 -0.0337
 8313TIP3    H146354   4.327   1.486   4.796  0.7996 -2.2323  0.6132
 8313TIP3    H246355   4.445   1.509   4.704 -0.3534 -1.6569 -0.7667
 8314TIP3   OH246356   2.153   4.346  14.962 -0.1312  0.1612  0.3361
 8314TIP3    H146357   2.077   4.290  14.944  1.0071 -1.1459 -0.5883
 8314TIP3    H246358   2.128   4.432  14.929 -0.4368 -0.7436 -1.9934
 8315TIP3   OH246359   5.143   1.714  17.171 -0.8922  0.2580  0.1430
 8315TIP3    H146360   5.202   1.668  17.111  1.1585  1.1541  1.3503
 8315TIP3    H246361   5.089   1.769  17.114  0.2965  0.3278 -0.9561
 8316TIP3   OH246362   5.493   1.881  12.957 -0.3675 -0.3638  0.1521
 8316TIP3    H146363   5.531   1.864  12.870 -1.4380 -1.6041 -0.1033
 8316TIP3    H246364   5.422   1.943  12.940 -2.1597 -2.4163 -0.2929
 8317TIP3   OH246365   6.228   5.869   1.827 -0.4533  0.1562  0.4309
 8317TIP3    H146366   6.184   5.797   1.872  0.8485 -1.0610 -0.1669
 8317TIP3    H246367   6.252   5.833   1.742 -1.2101  1.8337 -0.5353
 8318TIP3   OH246368   4.465   2.286  14.889 -0.0474 -0.0565 -0.5081
 8318TIP3    H146369   4.474   2.193  14.910  1.1298  0.4823  1.6502
 8318TIP3    H246370   4.371   2.299  14.875 -0.3164 -1.4085 -0.0720
 8319TIP3   OH246371   1.769   2.037   4.835  1.3384 -0.6123 -0.5249
 8319TIP3    H146372   1.787   1.953   4.876 -0.8820 -1.0535 -0.3656
 8319TIP3    H246373   1.677   2.032   4.807  1.2767  1.5873 -0.9165
 8320TIP3   OH246374   0.283   6.177  14.096 -0.0180 -0.4147 -0.2560
 8320TIP3    H146375   0.226   6.101  14.091  0.9365 -1.1644  0.0501
 8320TIP3    H246376   0.330   6.167  14.179  1.2900 -0.3586 -0.9618
 8321TIP3   OH246377   0.949   3.220   5.620  0.1191 -0.1289 -0.0092
 8321TIP3    H146378   0.975   3.232   5.711 -0.0916  0.3431 -0.0101
 8321TIP3    H246379   0.927   3.127   5.613 -0.3301 -0.0679  0.5414
 8322TIP3   OH246380   1.124   5.504  16.411 -0.0979  0.2637  0.4358
 8322TIP3    H146381   1.161   5.420  16.439 -0.0844 -0.1603 -0.8098
 8322TIP3    H246382   1.030   5.486  16.401 -0.0457  0.3159 -0.1360
 8323TIP3   OH246383   2.045   3.504   4.265  0.0698 -0.1756 -0.0138
 8323TIP3    H146384   2.135   3.474   4.252  0.0184 -0.2654 -0.1646
 8323TIP3    H246385   2.053   3.599   4.274  0.0133  0.0274 -1.6975
 8324TIP3   OH246386   6.207   5.258  16.555 -0.7766 -0.4538 -0.0942
 8324TIP3    H146387   6.188   5.174  16.514 -0.6761  0.7473 -2.8067
 8324TIP3    H246388   6.286   5.289  16.511  1.8461 -0.7615  3.8420
 8325TIP3   OH246389   4.404   6.035   1.814  0.8508  0.5399  0.2624
 8325TIP3    H146390   4.475   5.996   1.865  0.2539 -1.1686 -0.1525
 8325TIP3    H246391   4.371   6.105   1.869  3.3228  1.9122  0.1582
 8326TIP3   OH246392   3.461   1.647   1.783  0.3163 -1.1517 -0.0438
 8326TIP3    H146393   3.485   1.688   1.866 -0.7555 -1.7317  0.5833
 8326TIP3    H246394   3.367   1.664   1.775  0.6044 -0.1825 -1.6842
 8327TIP3   OH246395   2.012   3.405   2.888  0.1080  0.3860  0.6032
 8327TIP3    H146396   2.057   3.385   2.806 -1.0121  0.3211 -0.0154
 8327TIP3    H246397   2.005   3.500   2.889  0.9898  0.4530  1.1101
 8328TIP3   OH246398   3.391   0.382  13.524 -0.2962  0.1512 -0.5538
 8328TIP3    H146399   3.454   0.338  13.582  0.8723  0.9580 -1.1663
 8328TIP3    H246400   3.369   0.463  13.569 -0.4538  0.1409 -0.6113
 8329TIP3   OH246401   2.716   1.036  11.571 -0.3040 -0.3010 -0.2898
 8329TIP3    H146402   2.627   1.011  11.596 -0.8097  1.4803 -0.2021
 8329TIP3    H246403   2.718   1.030  11.476 -0.8386  0.5802 -0.3686
 8330TIP3   OH246404   3.179   2.838  15.251 -0.0413  0.0803  0.2128
 8330TIP3    H146405   3.269   2.846  15.220  0.3689  0.9011  1.5148
 8330TIP3    H246406   3.165   2.744  15.260 -0.0158 -0.1739 -1.8454
 8331TIP3   OH246407   4.871   3.730  14.051  0.4766 -0.3580  0.4291
 8331TIP3    H146408   4.832   3.815  14.071  0.6545 -0.5127  1.4702
 8331TIP3    H246409   4.925   3.747  13.974  0.7681  0.5594  0.8149
 8332TIP3   OH246410   2.454   4.799   1.028 -0.0051 -0.3195 -0.1242
 8332TIP3    H146411   2.407   4.738   1.084 -0.9072  0.0734 -0.4395
 8332TIP3    H246412   2.478   4.748   0.951  0.5536 -0.6568  0.2711
 8333TIP3   OH246413   4.254   3.520  16.296  0.7022  0.6172 -0.5484
 8333TIP3    H146414   4.252   3.578  16.372  0.8588  0.2080 -0.2303
 8333TIP3    H246415   4.163   3.496  16.282  0.7089  0.4279 -0.2821
 8334TIP3   OH246416   2.538   3.248   2.609 -0.0778  0.3552 -0.0597
 8334TIP3    H146417   2.560   3.321   2.552 -0.4305  0.5916  0.1075
 8334TIP3    H246418   2.507   3.288   2.690 -2.4620  0.0850 -0.7418
 8335TIP3   OH246419   6.753   5.963  13.327  0.8916 -0.3887  0.1311
 8335TIP3    H146420   6.768   6.057  13.318  2.7705 -0.6952 -0.2538
 8335TIP3    H246421   6.788   5.941  13.413 -1.9800 -0.3430  1.4390
 8336TIP3   OH246422   3.537   4.363  12.509  0.4109  0.3655 -0.0601
 8336TIP3    H146423   3.632   4.378  12.516  0.5305 -0.0914 -0.6303
 8336TIP3    H246424   3.529   4.270  12.486 -0.1731  0.4479 -0.2025
 8337TIP3   OH246425   1.237   4.666  16.627  0.4561 -0.2794  0.5049
 8337TIP3    H146426   1.164   4.635  16.574  1.7296 -0.9988 -0.9204
 8337TIP3    H246427   1.281   4.586  16.656  1.3426  0.1396  0.3416
 8338TIP3   OH246428   1.091   6.315   5.295  0.2860 -0.2408  0.1860
 8338TIP3    H146429   1.168   6.309   5.238  0.4294 -0.6219  0.4155
 8338TIP3    H246430   1.082   6.228   5.333  0.5948  0.1750  1.2608
 8339TIP3   OH246431   3.800   3.831   4.157  0.2214 -0.1039 -0.1867
 8339TIP3    H146432   3.758   3.878   4.229 -0.4408 -0.9360 -0.0127
 8339TIP3    H246433   3.834   3.751   4.197  0.0575 -0.4641 -0.7522
 8340TIP3   OH246434   3.797   1.195  16.715  0.8057  0.3704 -0.0023
 8340TIP3    H146435   3.841   1.279  16.702  3.6751 -0.6544  2.0950
 8340TIP3    H246436   3.769   1.196  16.807 -1.2839 -0.0928 -0.5818
 8341TIP3   OH246437   1.462   2.793   5.795  0.1950  0.1866 -0.2862
 8341TIP3    H146438   1.435   2.841   5.717 -0.6344  0.4280  0.1336
 8341TIP3    H246439   1.407   2.829   5.865 -1.9133 -2.7151 -0.2937
 8342TIP3   OH246440   1.913   6.691  16.191  0.4972  0.6811 -0.2554
 8342TIP3    H146441   1.868   6.705  16.274 -0.2342  0.7443 -0.6579
 8342TIP3    H246442   1.879   6.607  16.159  3.9540 -1.6671  1.5710
 8343TIP3   OH246443   3.238   1.016   3.504 -0.4830  0.0712 -0.1764
 8343TIP3    H146444   3.187   0.991   3.581  1.7779 -0.5850  1.2040
 8343TIP3    H246445   3.270   1.104   3.524 -0.2911  0.0964 -0.5858
 8344TIP3   OH246446   1.759   4.652   1.442 -0.1783 -0.1187  0.1664
 8344TIP3    H146447   1.734   4.744   1.454  0.9800  0.3169 -0.5312
 8344TIP3    H246448   1.676   4.606   1.427 -0.6677  1.0800 -1.0404
 8345TIP3   OH246449   5.338   1.360   1.199 -0.3985 -0.0753 -1.0248
 8345TIP3    H146450   5.251   1.326   1.221 -0.6580  0.7781 -0.6926
 8345TIP3    H246451   5.398   1.305   1.249 -0.8032 -0.1731 -0.6369
 8346TIP3   OH246452   3.474   2.191  14.239  0.2383 -0.2161  0.2310
 8346TIP3    H146453   3.451   2.218  14.328  1.8233  1.7246  0.1233
 8346TIP3    H246454   3.424   2.251  14.182  0.0666 -0.7362 -0.1764
 8347TIP3   OH246455   4.230   3.856  13.431 -0.0523 -0.7265  0.6336
 8347TIP3    H146456   4.168   3.845  13.503 -1.7047  1.3766 -0.3447
 8347TIP3    H246457   4.215   3.946  13.400 -0.0930 -1.7849 -2.8801
 8348TIP3   OH246458   0.602   3.682   1.037 -0.2544  0.0251 -0.6607
 8348TIP3    H146459   0.628   3.753   0.978  1.6268  0.6621  0.8172
 8348TIP3    H246460   0.642   3.604   0.999 -0.9352  0.0221 -1.4005
 8349TIP3   OH246461   3.665   3.774  16.477 -0.1529  0.0035  0.4930
 8349TIP3    H146462   3.570   3.788  16.478 -0.2669 -0.7644  0.9613
 8349TIP3    H246463   3.676   3.680  16.488  0.7018  0.2373  1.7968
 8350TIP3   OH246464   2.767   2.493  11.361  0.6403  0.6059 -0.4436
 8350TIP3    H146465   2.801   2.553  11.294 -0.6721  1.2734 -0.5589
 8350TIP3    H246466   2.800   2.528  11.444 -0.6624  1.9664 -0.4387
 8351TIP3   OH246467   2.879   4.928  15.429  0.0583  0.6315 -0.6279
 8351TIP3    H146468   2.833   4.896  15.507 -2.0468  1.1027 -1.5956
 8351TIP3    H246469   2.965   4.954  15.461 -0.4015 -0.0762  1.3520
 8352TIP3   OH246470   2.166   3.906  11.560 -0.2084 -0.1316  0.1757
 8352TIP3    H146471   2.167   3.840  11.630 -0.1897  0.3783  0.6610
 8352TIP3    H246472   2.259   3.926  11.545 -0.2024 -0.3695 -0.1273
 8353TIP3   OH246473   5.249   1.216  11.837  0.0529 -0.7365  0.3790
 8353TIP3    H146474   5.270   1.294  11.785  0.4131 -1.2882 -0.3192
 8353TIP3    H246475   5.186   1.247  11.902  1.7147  0.6132  1.4511
 8354TIP3   OH246476   2.548   1.970  12.679  0.0393  0.4817  0.0241
 8354TIP3    H146477   2.599   2.049  12.658 -0.9303  0.8645 -0.9843
 8354TIP3    H246478   2.588   1.901  12.627  0.6574  0.3659  0.6293
 8355TIP3   OH246479   3.563   1.922   0.515  0.1706  0.2844 -0.5588
 8355TIP3    H146480   3.653   1.904   0.542 -0.9034 -2.2070  1.9218
 8355TIP3    H246481   3.562   1.902   0.421  1.5897 -2.9043 -0.0459
 8356TIP3   OH246482   4.888   5.048   4.710  0.2871 -0.5814 -0.1313
 8356TIP3    H146483   4.925   5.136   4.710  0.9365 -0.8488 -0.2826
 8356TIP3    H246484   4.831   5.046   4.787 -0.6924  0.3490 -0.8031
 8357TIP3   OH246485   1.866   6.121  11.217 -0.1231 -0.4795  0.3607
 8357TIP3    H146486   1.958   6.144  11.228 -0.3200  0.0245  1.0588
 8357TIP3    H246487   1.825   6.202  11.186 -0.0523 -1.1610 -1.6303
 8358TIP3   OH246488   3.700   4.165  15.587 -0.3406  0.2764  0.2755
 8358TIP3    H146489   3.728   4.081  15.551  0.1122  0.6567 -0.2781
 8358TIP3    H246490   3.695   4.223  15.510  2.9123  1.7639  1.0180
 8359TIP3   OH246491   3.563   0.993  14.254 -0.1755 -0.0116 -0.9152
 8359TIP3    H146492   3.537   0.934  14.183 -1.1361  1.0186 -1.4533
 8359TIP3    H246493   3.612   0.937  14.315 -0.4835 -1.2066 -1.7223
 8360TIP3   OH246494   1.248   0.145  11.070 -0.2545 -0.0794 -0.1548
 8360TIP3    H146495   1.256   0.071  11.010  0.8380  0.2623 -0.4516
 8360TIP3    H246496   1.229   0.220  11.013 -0.6386  0.0033  0.0752
 8361TIP3   OH246497   1.894   0.393  15.634  0.0581  0.1783  0.3463
 8361TIP3    H146498   1.911   0.364  15.545 -1.2816 -0.1182  0.1682
 8361TIP3    H246499   1.885   0.488  15.628  2.1214  0.4334  0.5510
 8362TIP3   OH246500   4.646   4.218   1.579  1.0573  0.3489 -0.0484
 8362TIP3    H146501   4.566   4.250   1.621  0.8190 -1.9761  1.4438
 8362TIP3    H246502   4.620   4.136   1.538  2.2574  0.5656 -1.2969
 8363TIP3   OH246503   6.335   3.930  17.119 -0.0375 -0.1810 -0.4246
 8363TIP3    H146504   6.427   3.903  17.114 -0.5185 -1.9675 -0.3263
 8363TIP3    H246505   6.294   3.865  17.176 -1.1753  1.1795  0.3910
 8364TIP3   OH246506   2.613   0.461  16.071 -0.0241  0.3050  0.2563
 8364TIP3    H146507   2.683   0.525  16.086  0.1455 -0.2951  2.3252
 8364TIP3    H246508   2.532   0.512  16.074  0.1765  0.6009  0.7344
 8365TIP3   OH246509   0.075   4.698   2.205  0.5526 -0.4619 -0.5874
 8365TIP3    H146510   0.013   4.765   2.177 -0.2683 -0.5670  0.8740
 8365TIP3    H246511   0.021   4.632   2.249  1.8307  0.4552  2.6592
 8366TIP3   OH246512   3.572   4.182   2.364 -0.1094  0.0173  0.0678
 8366TIP3    H146513   3.537   4.259   2.408 -1.5794  0.3716 -1.5880
 8366TIP3    H246514   3.513   4.110   2.390 -0.2938 -0.0032 -0.3959
 8367TIP3   OH246515   0.667   0.264  16.843 -0.0103 -0.4106  0.5440
 8367TIP3    H146516   0.634   0.326  16.778 -3.0223 -1.0651  1.3292
 8367TIP3    H246517   0.607   0.271  16.917  1.9712 -1.3475  2.3699
 8368TIP3   OH246518   1.187   6.305  13.471 -0.8388  0.1054  0.1571
 8368TIP3    H146519   1.182   6.264  13.385  1.9784  1.7397 -0.9085
 8368TIP3    H246520   1.205   6.232  13.531  0.8703 -0.6583 -1.2109
 8369TIP3   OH246521   2.488   4.846   5.846  0.0124  0.9021 -0.3011
 8369TIP3    H146522   2.394   4.859   5.844 -0.0241  0.8276  0.6864
 8369TIP3    H246523   2.516   4.877   5.932  0.7312 -0.0940 -0.1552
 8370TIP3   OH246524   5.953   2.214  13.070  0.7950 -0.3982  0.1193
 8370TIP3    H146525   5.888   2.185  13.006  0.5493 -1.3568  0.7711
 8370TIP3    H246526   5.902   2.265  13.133  0.5587 -1.5453  0.8880
 8371TIP3   OH246527   2.794   0.013  12.626 -0.0833  0.0904 -0.1148
 8371TIP3    H146528   2.813  -0.032  12.709  2.1836  1.7771  0.3928
 8371TIP3    H246529   2.710   0.056  12.641 -1.0266 -1.7791  0.3001
 8372TIP3   OH246530   0.675   1.864   5.038  0.1501  0.2855  0.1462
 8372TIP3    H146531   0.674   1.922   5.114  1.1801  0.9897 -0.3431
 8372TIP3    H246532   0.714   1.783   5.069 -0.5934  0.1090  0.6537
 8373TIP3   OH246533   6.257   6.477   3.445  0.5104 -0.4871  0.3159
 8373TIP3    H146534   6.203   6.417   3.395  1.2785 -0.8615 -0.0797
 8373TIP3    H246535   6.323   6.508   3.382  2.7897 -2.5463  1.5341
 8374TIP3   OH246536   3.694   0.242  11.869 -0.1894 -0.6641 -0.1782
 8374TIP3    H146537   3.733   0.199  11.793 -0.0032 -0.1722 -0.3650
 8374TIP3    H246538   3.742   0.324  11.878 -0.9540 -0.1929 -0.2126
 8375TIP3   OH246539   0.246   4.891  15.201  0.1374 -0.4430  0.1825
 8375TIP3    H146540   0.321   4.846  15.239  0.1204  0.8317  1.8719
 8375TIP3    H246541   0.285   4.957  15.143  0.1951 -1.6637 -1.2249
 8376TIP3   OH246542   3.623   1.209   1.129  0.1484 -0.0135 -0.0000
 8376TIP3    H146543   3.709   1.172   1.106  0.5138  1.1066 -0.5092
 8376TIP3    H246544   3.639   1.256   1.211  0.4292  1.5167 -0.8892
 8377TIP3   OH246545   5.629   1.510  12.253  0.5069  0.7129 -0.3318
 8377TIP3    H146546   5.540   1.486  12.276  0.0397  2.2576 -0.3756
 8377TIP3    H246547   5.678   1.428  12.256 -0.2551  0.2457  2.6316
 8378TIP3   OH246548   3.092   2.429  12.517 -0.0970 -0.4887 -0.0269
 8378TIP3    H146549   3.001   2.402  12.531 -0.0203 -1.1896 -0.7810
 8378TIP3    H246550   3.092   2.523  12.537 -1.1285 -0.3463 -0.5928
 8379TIP3   OH246551   0.194   0.405  11.619  0.0696  0.1194  0.2658
 8379TIP3    H146552   0.108   0.424  11.659 -0.3601 -2.7674  0.9212
 8379TIP3    H246553   0.193   0.453  11.536 -1.6791  1.1001  0.7996
 8380TIP3   OH246554   2.362   4.507   5.516 -0.0312  0.3264 -0.4434
 8380TIP3    H146555   2.408   4.582   5.480  0.3914  0.7649  0.9513
 8380TIP3    H246556   2.311   4.473   5.443  1.2390  0.8127 -1.6030
 8381TIP3   OH246557   0.465   1.218   1.932  0.2678 -0.1758 -0.5578
 8381TIP3    H146558   0.406   1.230   2.006  1.4099 -0.9020  0.4995
 8381TIP3    H246559   0.453   1.126   1.906  0.9603 -0.3484 -0.2945
 8382TIP3   OH246560   6.516   0.208  13.445  0.2459  0.6769  0.4557
 8382TIP3    H146561   6.539   0.295  13.476  0.6718  0.0320  2.0758
 8382TIP3    H246562   6.437   0.185  13.494 -1.7618  1.3409 -2.2427
 8383TIP3   OH246563   3.906   2.380   0.818  0.2507  0.6887 -0.0922
 8383TIP3    H146564   3.925   2.346   0.906 -1.2039 -0.5304 -0.2082
 8383TIP3    H246565   3.928   2.308   0.759  0.1801  1.1107 -0.6427
 8384TIP3   OH246566   1.837   3.329   3.823 -0.4610 -0.4556  0.6892
 8384TIP3    H146567   1.853   3.330   3.728 -2.0978 -0.4498  0.3946
 8384TIP3    H246568   1.918   3.292   3.859  0.3747 -0.0480 -0.6586
 8385TIP3   OH246569   4.185   6.148  13.113 -0.1258 -0.1456  0.2651
 8385TIP3    H146570   4.151   6.216  13.172  1.1804  0.7451  0.0440
 8385TIP3    H246571   4.177   6.187  13.026 -0.3203 -0.7025  0.0337
 8386TIP3   OH246572   3.976   1.412   5.637 -0.0159  0.3015  0.7869
 8386TIP3    H146573   3.898   1.431   5.584 -0.5184  0.2251  1.4979
 8386TIP3    H246574   3.950   1.431   5.727  0.6848 -0.0464  1.0706
 8387TIP3   OH246575   0.497   6.071  11.407  0.2586  0.2009  0.6578
 8387TIP3    H146576   0.451   6.130  11.348 -0.0695 -0.4601  0.2395
 8387TIP3    H246577   0.562   6.028  11.352  1.2750  1.0003  1.2083
 8388TIP3   OH246578   5.385   6.088  16.572 -0.3067 -0.1870  0.0399
 8388TIP3    H146579   5.459   6.129  16.617  0.1812 -1.6980  0.6783
 8388TIP3    H246580   5.313   6.150  16.582  1.3147  2.3135 -2.3790
 8389TIP3   OH246581   4.587   6.222   6.070  0.0477  0.1782  0.3308
 8389TIP3    H146582   4.660   6.226   6.132  0.4959  1.2176 -0.2442
 8389TIP3    H246583   4.593   6.303   6.020 -0.9921 -0.1197 -0.3109
 8390TIP3   OH246584   0.376   1.072  17.313 -0.3334 -0.0774  0.2196
 8390TIP3    H146585   0.346   1.056  17.403  0.2992 -3.2935 -0.0045
 8390TIP3    H246586   0.470   1.050  17.315  0.1643  1.7248 -0.8642
 8391TIP3   OH246587   1.593   4.010  12.353 -0.1455  0.6604  0.3330
 8391TIP3    H146588   1.665   4.065  12.383  0.9536 -0.3518 -0.3307
 8391TIP3    H246589   1.621   3.921  12.372 -0.8178  0.1899 -0.7593
 8392TIP3   OH246590   2.002   2.070  12.559  0.3092  0.0359  0.7209
 8392TIP3    H146591   2.076   2.121  12.592  0.9928 -1.5394  1.7378
 8392TIP3    H246592   1.963   2.033  12.638 -0.3350 -0.7827  0.0241
 8393TIP3   OH246593   0.243   3.944  15.664  0.2855 -1.1703  0.2039
 8393TIP3    H146594   0.178   3.985  15.722  0.1972 -0.3575 -0.4500
 8393TIP3    H246595   0.315   3.919  15.723  0.5163  0.3004  0.5868
 8394TIP3   OH246596   2.229   6.183  11.692  0.2019 -0.9710  0.3295
 8394TIP3    H146597   2.244   6.278  11.696 -0.0314 -0.9745  2.5786
 8394TIP3    H246598   2.148   6.174  11.642 -1.0727  0.2499  2.0254
 8395TIP3   OH246599   3.259   5.428   5.133 -0.2739 -0.1555  0.2146
 8395TIP3    H146600   3.167   5.413   5.115 -0.4186  1.0957 -0.1895
 8395TIP3    H246601   3.270   5.403   5.225 -0.6843 -1.6179 -0.0999
 8396TIP3   OH246602   0.892   3.444   1.491 -0.2444 -0.1108 -1.0408
 8396TIP3    H146603   0.967   3.501   1.474  0.3628 -0.6328 -0.2338
 8396TIP3    H246604   0.909   3.367   1.436  0.8382 -1.0573  0.5128
 8397TIP3   OH246605   1.349   4.755   4.528  0.4358 -0.1570  0.3959
 8397TIP3    H146606   1.437   4.760   4.565  0.5928  0.0830 -0.0005
 8397TIP3    H246607   1.303   4.831   4.564  0.5271 -0.0355  0.2572
 8398TIP3   OH246608   2.508   4.467   3.110  0.2469 -0.2114  0.1109
 8398TIP3    H146609   2.460   4.385   3.094  1.0493 -0.5615 -0.5806
 8398TIP3    H246610   2.440   4.530   3.135 -0.9247 -0.1178 -2.9157
 8399TIP3   OH246611   0.946   1.559  11.520  0.0491 -0.0665 -0.0389
 8399TIP3    H146612   1.013   1.492  11.507  1.1545  1.0987 -0.4254
 8399TIP3    H246613   0.866   1.519  11.485  1.0156 -0.6003 -1.7421
 8400TIP3   OH246614   6.192   4.291   5.024  0.0954  0.2877  0.0423
 8400TIP3    H146615   6.160   4.381   5.037  1.3843  0.6961  0.4865
 8400TIP3    H246616   6.283   4.301   4.999  0.3555 -0.9166  0.4519
 8401TIP3   OH246617   6.457   1.826   1.671 -0.5934  0.2620  0.4199
 8401TIP3    H146618   6.524   1.824   1.740  1.1585 -0.4339 -1.2076
 8401TIP3    H246619   6.379   1.789   1.712  0.5020 -0.4776  1.9447
 8402TIP3   OH246620   5.748   2.482  10.781 -0.4741 -0.4976  0.3985
 8402TIP3    H146621   5.697   2.483  10.862 -0.3719 -0.7575  0.4667
 8402TIP3    H246622   5.828   2.434  10.803  0.0556  0.3743  0.4443
 8403TIP3   OH246623   2.204   6.437   2.670  0.0135  0.0960 -0.4622
 8403TIP3    H146624   2.133   6.463   2.729  0.6278  1.5840 -0.3528
 8403TIP3    H246625   2.188   6.484   2.589  0.7040  0.2263 -0.5341
 8404TIP3   OH246626   4.433   3.614   2.842  0.0648 -0.5745  0.2128
 8404TIP3    H146627   4.448   3.555   2.768  0.9707  0.4404 -0.4391
 8404TIP3    H246628   4.394   3.558   2.910  1.0305 -1.9504 -0.3254
 8405TIP3   OH246629   2.791   6.342  17.203  0.4132 -0.3377  0.0164
 8405TIP3    H146630   2.705   6.300  17.211  0.2117  0.1099  0.2556
 8405TIP3    H246631   2.844   6.280  17.153  0.0768 -0.8081  0.2365
 8406TIP3   OH246632   5.861   3.348  16.998 -0.2410 -0.1773  0.7011
 8406TIP3    H146633   5.785   3.349  16.940  0.4829 -1.6565 -0.3410
 8406TIP3    H246634   5.865   3.258  17.030  1.0143 -0.1127  0.7818
 8407TIP3   OH246635   2.396   0.933   4.653 -0.4698 -0.1834 -0.1322
 8407TIP3    H146636   2.397   0.839   4.671 -0.2561 -0.0655  0.4880
 8407TIP3    H246637   2.335   0.942   4.579  0.6509 -0.9771 -1.2051
 8408TIP3   OH246638   5.507   6.568  16.448  0.4403 -0.0603 -0.3653
 8408TIP3    H146639   5.457   6.642  16.413  0.1790 -0.3858 -0.6913
 8408TIP3    H246640   5.504   6.580  16.543 -1.6514 -0.9172 -0.2470
 8409TIP3   OH246641   5.497   0.225  14.832  0.0693  0.1973  0.0815
 8409TIP3    H146642   5.584   0.186  14.836  0.4986  1.1765  0.6506
 8409TIP3    H246643   5.454   0.196  14.913 -1.2959 -2.8120 -1.5545
 8410TIP3   OH246644   4.547   5.744   2.195  0.2734 -0.1520 -0.0801
 8410TIP3    H146645   4.506   5.787   2.271  0.8378  0.1455  0.0541
 8410TIP3    H246646   4.594   5.670   2.233 -2.1097 -1.9824 -0.4684
 8411TIP3   OH246647   5.134   1.922  16.059  0.1490 -0.2255 -0.0008
 8411TIP3    H146648   5.106   1.836  16.029 -0.9599 -0.3962  1.4212
 8411TIP3    H246649   5.053   1.974  16.064  0.8748  1.1449 -1.5024
 8412TIP3   OH246650   5.297   3.308   2.917 -0.3260 -0.1806 -0.1939
 8412TIP3    H146651   5.269   3.276   3.002  2.2214 -1.5721  0.2291
 8412TIP3    H246652   5.238   3.266   2.854 -2.9918  1.7545  0.8154
 8413TIP3   OH246653   0.262   5.917   5.525 -0.3738  0.1162  0.0503
 8413TIP3    H146654   0.264   5.970   5.605  1.5415 -0.5628  0.5033
 8413TIP3    H246655   0.341   5.863   5.530 -1.6464 -1.9469 -0.9700
 8414TIP3   OH246656   5.630   3.166  14.788  0.1637 -0.1647  0.3033
 8414TIP3    H146657   5.537   3.156  14.767 -0.5133  2.0021  1.9616
 8414TIP3    H246658   5.659   3.241  14.737  1.3640 -1.4723 -1.0503
 8415TIP3   OH246659   5.749   2.464  11.440 -0.7561  0.2283 -0.2796
 8415TIP3    H146660   5.768   2.557  11.429 -0.7929  0.2922  0.1847
 8415TIP3    H246661   5.822   2.430  11.493 -0.5376 -0.0912 -0.7748
 8416TIP3   OH246662   4.046   4.399   0.405  0.0431  0.5890 -0.5347
 8416TIP3    H146663   4.049   4.355   0.321  2.4068  1.8657 -1.2149
 8416TIP3    H246664   4.134   4.434   0.417 -0.4514  1.1527  2.1012
 8417TIP3   OH246665   1.257   4.336  12.301  0.3220  0.3121 -0.1897
 8417TIP3    H146666   1.352   4.327  12.298  0.3817  1.0861 -1.3121
 8417TIP3    H246667   1.239   4.415  12.250 -0.8330  0.9567  1.1666
 8418TIP3   OH246668   3.867   3.723  13.529  0.0335 -0.0651 -0.1215
 8418TIP3    H146669   3.958   3.743  13.555 -0.2054  2.4143 -0.9080
 8418TIP3    H246670   3.874   3.698  13.437 -0.0172 -0.5702  0.0103
 8419TIP3   OH246671   5.294   2.576  11.610 -0.1647  0.5393  0.6183
 8419TIP3    H146672   5.369   2.517  11.617 -0.1805  0.5920  1.3038
 8419TIP3    H246673   5.331   2.657  11.576 -0.4283 -0.3881 -2.1605
 8420TIP3   OH246674   4.413   4.953   6.583 -0.4620 -0.3972 -0.1752
 8420TIP3    H146675   4.417   4.950   6.679 -2.1119 -1.6615 -0.1027
 8420TIP3    H246676   4.400   5.045   6.563  0.2495 -0.0670  0.7903
 8421TIP3   OH246677   2.666   0.428  12.989 -0.3524  0.0458 -0.5582
 8421TIP3    H146678   2.635   0.448  12.901 -2.7362 -1.6912 -0.2255
 8421TIP3    H246679   2.616   0.487  13.045  0.2901  0.3321 -0.2828
 8422TIP3   OH246680   2.712   5.831  14.750  0.0729 -0.5777 -0.6129
 8422TIP3    H146681   2.646   5.820  14.818 -0.1391 -0.2636 -0.7636
 8422TIP3    H246682   2.725   5.926  14.744  1.0087 -0.6748 -0.1453
 8423TIP3   OH246683   2.395   5.305   2.358  0.2410 -0.0598  0.1754
 8423TIP3    H146684   2.343   5.284   2.281  0.8830  0.6132 -0.4686
 8423TIP3    H246685   2.331   5.322   2.427 -0.3202 -1.7940  0.1146
 8424TIP3   OH246686   5.345   0.078   1.331  0.0008 -0.1175  0.8073
 8424TIP3    H146687   5.303   0.063   1.246  1.5865 -2.2570  0.3258
 8424TIP3    H246688   5.288   0.032   1.394 -0.2348 -0.0356  0.6543
 8425TIP3   OH246689   2.051   0.052   5.112 -0.4282 -0.1980  0.0289
 8425TIP3    H146690   2.039  -0.040   5.087  2.2759 -1.1938  1.9424
 8425TIP3    H246691   1.993   0.064   5.187  1.1779 -1.2797  1.5341
 8426TIP3   OH246692   5.747   2.693   6.066 -0.2406  0.2429 -0.4403
 8426TIP3    H146693   5.810   2.740   6.011 -1.5311  1.3659 -0.9861
 8426TIP3    H246694   5.745   2.742   6.148 -1.2489  0.9154 -0.8466
 8427TIP3   OH246695   5.385   0.775  15.259  0.8886 -0.1701  0.2295
 8427TIP3    H146696   5.406   0.823  15.339  0.1655  1.0439 -0.2859
 8427TIP3    H246697   5.413   0.832  15.188 -0.5002 -0.2436 -0.4053
 8428TIP3   OH246698   1.500   6.051  15.535  0.2199 -0.3385 -0.6027
 8428TIP3    H146699   1.440   6.037  15.607 -0.8005  1.8372 -0.9533
 8428TIP3    H246700   1.582   6.077  15.576 -0.4708  1.2812 -0.1945
 8429TIP3   OH246701   0.220   0.372   0.345  0.0017 -0.5324 -0.0519
 8429TIP3    H146702   0.311   0.349   0.362  0.0282 -1.9872 -1.8085
 8429TIP3    H246703   0.221   0.466   0.331  1.0723 -0.3953  0.7675
 8430TIP3   OH246704   5.147   4.776   0.748 -0.0444  0.4569  0.4213
 8430TIP3    H146705   5.189   4.705   0.796  0.3433  0.9059  0.7527
 8430TIP3    H246706   5.218   4.835   0.725 -0.5674  1.6831  1.7684
 8431TIP3   OH246707   3.922   3.061  14.050  0.2918  0.2966 -0.4537
 8431TIP3    H146708   3.829   3.074  14.032 -0.2142 -0.6426  1.2861
 8431TIP3    H246709   3.955   3.148  14.071 -0.0244  0.7399 -1.7236
 8432TIP3   OH246710   3.112   2.254   1.294 -0.1539 -0.3583  0.0680
 8432TIP3    H146711   3.204   2.237   1.274 -0.1147  0.9185 -0.9782
 8432TIP3    H246712   3.096   2.209   1.377  1.5031 -0.3172  0.4323
 8433TIP3   OH246713   1.486   5.030   4.848  0.3227  0.5575  0.6806
 8433TIP3    H146714   1.549   4.959   4.833  0.9309  0.6547  2.4776
 8433TIP3    H246715   1.541   5.106   4.870 -0.2398  1.9997 -2.3515
 8434TIP3   OH246716   5.852   3.558   3.834  0.1151 -0.3550 -0.2646
 8434TIP3    H146717   5.872   3.464   3.824 -0.9715 -0.8854  1.9041
 8434TIP3    H246718   5.879   3.597   3.751  3.1732 -2.1279 -0.2616
 8435TIP3   OH246719   5.823   1.355   2.124 -0.8497  0.1695  0.1572
 8435TIP3    H146720   5.753   1.367   2.189 -1.3422  0.7226 -0.4613
 8435TIP3    H246721   5.891   1.418   2.150  0.0023 -1.2290  1.4974
 8436TIP3   OH246722   6.539   1.328   4.131 -0.5987 -0.4449 -0.5716
 8436TIP3    H146723   6.483   1.404   4.147  0.6057  0.5026 -0.7071
 8436TIP3    H246724   6.519   1.268   4.204  0.6266  1.3306  1.3531
 8437TIP3   OH246725   3.480   6.054   5.552  0.1894  0.0326 -0.2617
 8437TIP3    H146726   3.532   6.085   5.478  0.1172  0.8656  0.0268
 8437TIP3    H246727   3.411   6.119   5.562  0.2977  0.0248  0.6440
 8438TIP3   OH246728   3.824   5.634   3.985 -0.5685  0.4842 -0.1778
 8438TIP3    H146729   3.904   5.588   4.008 -0.5928  0.0024 -1.0045
 8438TIP3    H246730   3.848   5.687   3.909 -1.0679  0.1787 -0.5598
 8439TIP3   OH246731   5.579   1.516   3.927 -0.9612 -0.4016 -0.3024
 8439TIP3    H146732   5.495   1.527   3.972 -0.8483 -2.8546  0.6395
 8439TIP3    H246733   5.561   1.451   3.859  0.0311 -0.5482 -0.4349
 8440TIP3   OH246734   1.275   4.045   5.161 -0.3803  0.5557  0.0565
 8440TIP3    H146735   1.228   4.061   5.243  0.3339  0.9579  0.3940
 8440TIP3    H246736   1.209   4.006   5.103 -0.9635  0.5290  0.7253
 8441TIP3   OH246737   4.734   2.028  13.532 -0.2005 -0.3181 -0.3239
 8441TIP3    H146738   4.769   2.081  13.603  0.0063 -0.0323 -0.6364
 8441TIP3    H246739   4.700   2.091  13.468 -2.4168 -0.6014  0.5056
 8442TIP3   OH246740   2.839   2.546  16.936  0.2659  1.1420  0.0434
 8442TIP3    H146741   2.854   2.467  16.987 -2.3941  1.2566  1.1873
 8442TIP3    H246742   2.869   2.525  16.848  1.8945 -0.2290  0.8716
 8443TIP3   OH246743   3.602   1.738   0.980  0.4529 -0.2329 -0.4016
 8443TIP3    H146744   3.538   1.758   1.048 -1.1281 -1.4158 -1.4695
 8443TIP3    H246745   3.595   1.643   0.967  1.3967 -0.1688 -1.5450
 8444TIP3   OH246746   1.919   2.699  14.511  0.3754 -0.0623  0.1350
 8444TIP3    H146747   1.957   2.782  14.482 -0.0814 -0.4060 -1.5479
 8444TIP3    H246748   1.906   2.710  14.605  1.1562  1.4340  0.0932
 8445TIP3   OH246749   4.270   3.971  15.000  0.5562 -0.3485 -0.2684
 8445TIP3    H146750   4.232   3.886  14.977  2.3017 -1.0980 -0.5835
 8445TIP3    H246751   4.243   4.030  14.930 -0.2360 -0.7822 -0.3331
 8446TIP3   OH246752   4.405   1.168   5.323 -0.0594 -0.1849  0.4166
 8446TIP3    H146753   4.444   1.239   5.373 -1.6097  0.4951  0.7387
 8446TIP3    H246754   4.319   1.154   5.365  0.3840 -2.5900  0.7046
 8447TIP3   OH246755   0.475   0.480  11.310  0.2517 -0.3464  0.6698
 8447TIP3    H146756   0.488   0.462  11.403 -0.3116  1.2061  1.0803
 8447TIP3    H246757   0.545   0.432  11.266  1.6135  0.3311  2.0370
 8448TIP3   OH246758   1.343   6.024   4.296 -0.0625 -0.2055  0.1216
 8448TIP3    H146759   1.334   5.948   4.240 -1.5237  1.1512 -1.6035
 8448TIP3    H246760   1.268   6.019   4.356 -0.2156 -0.0626 -0.0592
 8449TIP3   OH246761   0.349   1.984   3.031 -0.4110 -0.8312 -0.0930
 8449TIP3    H146762   0.381   1.988   3.122  0.9474  0.2298 -0.5780
 8449TIP3    H246763   0.386   1.902   2.997  1.8541  0.3136 -0.6030
 8450TIP3   OH246764   5.027   2.240  16.975  0.3565 -0.5382  0.5445
 8450TIP3    H146765   4.963   2.224  16.906  2.4748  1.0380 -1.9594
 8450TIP3    H246766   4.996   2.187  17.049 -1.6075 -2.9842 -1.8304
 8451TIP3   OH246767   5.938   4.512   1.865 -0.0544 -0.0966 -0.5894
 8451TIP3    H146768   6.007   4.566   1.828 -0.7013  1.3181  0.1640
 8451TIP3    H246769   5.966   4.497   1.956 -0.0035 -0.8177 -0.7232
 8452TIP3   OH246770   0.217   2.709  13.946 -0.2527 -0.3867 -0.7657
 8452TIP3    H146771   0.208   2.675  13.857 -0.1109 -2.3005 -0.0889
 8452TIP3    H246772   0.164   2.650  14.000 -1.5897  1.6293  0.2493
 8453TIP3   OH246773   0.401   4.844  14.314  0.8014  0.3266 -0.1308
 8453TIP3    H146774   0.347   4.875  14.241 -1.3966 -0.3131  1.1277
 8453TIP3    H246775   0.416   4.752  14.296 -0.1299  0.0558  0.4030
 8454TIP3   OH246776   3.809   2.509  17.146  0.2572  0.0046 -0.0794
 8454TIP3    H146777   3.826   2.527  17.054  0.6687 -2.9283 -0.6725
 8454TIP3    H246778   3.881   2.452  17.173 -1.2408 -1.3165  1.3081
 8455TIP3   OH246779   5.428   3.574   4.731  0.1357 -0.2618  0.2096
 8455TIP3    H146780   5.355   3.514   4.715 -0.6499  0.8273 -0.4289
 8455TIP3    H246781   5.447   3.612   4.645  3.0031 -2.1640 -0.1325
 8456TIP3   OH246782   5.484   5.249   3.762  0.5001  0.1091  0.4446
 8456TIP3    H146783   5.503   5.237   3.669 -1.5326  2.2094 -0.3320
 8456TIP3    H246784   5.414   5.187   3.781  1.1251 -0.5399  0.7044
 8457TIP3   OH246785   4.515   5.000  16.965 -0.3675  0.1738 -0.2357
 8457TIP3    H146786   4.442   5.061  16.974  0.7181  1.3325  1.0306
 8457TIP3    H246787   4.534   4.972  17.055  1.3150  0.5782 -0.4489
 8458TIP3   OH246788   0.255   6.142   3.126  0.8089 -0.0837 -0.1497
 8458TIP3    H146789   0.318   6.071   3.136 -0.8341 -1.6796 -0.5794
 8458TIP3    H246790   0.193   6.129   3.198  0.7940  1.2684  0.0953
 8459TIP3   OH246791   4.564   4.417  13.616  0.1398  0.7333  0.0275
 8459TIP3    H146792   4.509   4.427  13.538  0.9607  1.4096 -0.4822
 8459TIP3    H246793   4.549   4.497  13.666  2.4087  2.0717 -1.2762
 8460TIP3   OH246794   6.195   2.164  16.815  0.4561 -0.4514 -0.0323
 8460TIP3    H146795   6.283   2.146  16.848  1.0590  3.0253  0.6769
 8460TIP3    H246796   6.199   2.255  16.783 -3.1421  0.3306  1.2395
 8461TIP3   OH246797   5.128   3.343  15.041 -0.2222 -0.3186  0.7840
 8461TIP3    H146798   5.188   3.272  15.063 -0.3673 -1.1620 -1.2924
 8461TIP3    H246799   5.182   3.407  14.994 -0.9096 -1.2154 -1.3591
 8462TIP3   OH246800   3.055   6.673   2.939 -0.2655  0.0989 -0.4544
 8462TIP3    H146801   2.992   6.671   3.011 -0.0875 -0.7821 -0.3141
 8462TIP3    H246802   3.131   6.626   2.972  0.6209  1.4257 -0.5073
 8463TIP3   OH246803   1.985   3.480   3.388 -0.2156 -0.3560 -0.2561
 8463TIP3    H146804   2.025   3.564   3.406 -0.6628 -0.5678  1.9469
 8463TIP3    H246805   1.894   3.501   3.364 -0.5581 -0.2269  1.0940
 8464TIP3   OH246806   3.924   3.285  11.635 -0.2415  0.0848 -1.2726
 8464TIP3    H146807   3.958   3.371  11.611 -0.9886  0.7724  0.0308
 8464TIP3    H246808   3.929   3.283  11.731 -3.5341  0.1113 -1.0028
 8465TIP3   OH246809   4.716   4.675   5.437 -0.0817 -0.3562 -0.5835
 8465TIP3    H146810   4.641   4.722   5.401  0.1800 -0.3565 -1.1443
 8465TIP3    H246811   4.718   4.592   5.389  0.4760 -0.2119 -0.8210
 8466TIP3   OH246812   4.791   2.029   4.745 -0.0589 -0.0954 -0.1357
 8466TIP3    H146813   4.868   2.075   4.778  0.7761 -3.0133  2.5435
 8466TIP3    H246814   4.801   2.028   4.650  1.2529  2.6473 -0.1243
 8467TIP3   OH246815   0.456   2.701   0.145  0.0019 -0.0571 -0.5652
 8467TIP3    H146816   0.440   2.668   0.233  0.0619 -2.5064 -1.3932
 8467TIP3    H246817   0.369   2.711   0.106 -0.0316  1.1878 -0.1897
 8468TIP3   OH246818   4.956   0.333   1.376  0.2531  0.2439 -0.4269
 8468TIP3    H146819   4.993   0.313   1.462  1.7291 -1.6470 -1.4400
 8468TIP3    H246820   4.889   0.399   1.394 -0.9598 -1.5991  2.4422
 8469TIP3   OH246821   4.840   6.228  14.206 -0.2026 -0.3810  0.0352
 8469TIP3    H146822   4.750   6.200  14.189  0.1190 -1.2760 -0.2227
 8469TIP3    H246823   4.858   6.295  14.140 -1.0299  0.5806  0.7548
 8470TIP3   OH246824   1.537   2.458  14.548  0.3452 -0.6584 -1.0374
 8470TIP3    H146825   1.481   2.380  14.539 -1.0821  0.2521 -0.4190
 8470TIP3    H246826   1.537   2.477  14.641  3.0714 -1.5441 -0.7584
 8471TIP3   OH246827   2.289   2.318  15.120  0.4708  0.6488 -0.1982
 8471TIP3    H146828   2.373   2.295  15.080  1.0300  0.6045  0.9529
 8471TIP3    H246829   2.260   2.237  15.164  0.7212  1.1335  0.9048
 8472TIP3   OH246830   6.218   0.932   2.251  0.4678  0.7743 -0.0048
 8472TIP3    H146831   6.191   0.904   2.163  1.9299  2.0410 -0.8954
 8472TIP3    H246832   6.185   1.022   2.258  0.6275  0.7829  0.6297
 8473TIP3   OH246833   5.650   5.587  15.895  0.6702 -0.6610  0.4274
 8473TIP3    H146834   5.634   5.606  15.988 -1.5773  0.9008 -0.1781
 8473TIP3    H246835   5.563   5.567  15.860  1.3047 -0.1343 -1.5591
 8474TIP3   OH246836   4.633   4.657   5.138  0.2008  0.5425 -0.3724
 8474TIP3    H146837   4.606   4.728   5.080  0.0497 -0.0304 -1.0237
 8474TIP3    H246838   4.573   4.585   5.117 -0.0493  0.4171  0.7080
 8475TIP3   OH246839   3.267   1.748   0.390  0.1959 -0.2071  0.9734
 8475TIP3    H146840   3.291   1.822   0.447  0.4824 -1.0183  1.9527
 8475TIP3    H246841   3.228   1.788   0.313  1.5853  1.0347  0.8682
 8476TIP3   OH246842   0.805   1.947   3.523  0.7139 -0.4073  0.0059
 8476TIP3    H146843   0.747   1.888   3.474  0.8022  0.8969 -1.7503
 8476TIP3    H246844   0.890   1.938   3.481  0.7956  0.7345 -0.0869
 8477TIP3   OH246845   4.599   3.283   3.323 -0.0959 -0.1522 -0.4774
 8477TIP3    H146846   4.676   3.267   3.377  0.1591 -0.1692 -0.8429
 8477TIP3    H246847   4.527   3.295   3.385 -0.3091 -2.6589 -0.1736
 8478TIP3   OH246848   3.970   4.337  16.237 -0.4113 -0.3809  0.1074
 8478TIP3    H146849   3.915   4.365  16.310  1.7185 -2.1638  2.5862
 8478TIP3    H246850   3.963   4.241  16.237  1.1256 -0.5249 -0.7830
 8479TIP3   OH246851   2.369   2.342   2.183  0.4917  0.1942  0.2098
 8479TIP3    H146852   2.374   2.433   2.214  1.0233  0.5282 -0.8223
 8479TIP3    H246853   2.428   2.294   2.242  1.3301  0.7852 -0.1248
 8480TIP3   OH246854   0.402   0.978   0.259  0.1787 -0.3213 -0.2600
 8480TIP3    H146855   0.481   0.978   0.314  1.2062 -2.3091 -1.5865
 8480TIP3    H246856   0.355   0.898   0.285  0.2892 -0.8782 -1.6653
 8481TIP3   OH246857   3.792   4.742   4.258  0.5762 -0.1324 -0.1416
 8481TIP3    H146858   3.814   4.833   4.236  0.5279  0.0219  0.4417
 8481TIP3    H246859   3.702   4.746   4.289 -0.1470 -0.6927 -2.0449
 8482TIP3   OH246860   6.149   5.752   4.855  0.2340  0.1527 -0.8310
 8482TIP3    H146861   6.192   5.819   4.908  0.4069 -1.3100  0.9889
 8482TIP3    H246862   6.216   5.685   4.841 -0.4259 -0.4871 -1.0232
 8483TIP3   OH246863   2.857   6.500  12.442 -0.0762  0.2564 -0.3415
 8483TIP3    H146864   2.905   6.445  12.380 -0.8863 -1.5892  0.6082
 8483TIP3    H246865   2.911   6.501  12.521  0.4320  1.7164 -0.6802
 8484TIP3   OH246866   1.186   3.176   5.382 -0.2873 -0.0807  0.4323
 8484TIP3    H146867   1.095   3.197   5.365 -0.4116 -0.4022  0.6859
 8484TIP3    H246868   1.196   3.188   5.477  0.0252  0.2966  0.3560
 8485TIP3   OH246869   4.609   4.515   3.263 -0.3056 -0.6939  0.2936
 8485TIP3    H146870   4.552   4.446   3.298 -1.7429 -0.3891 -1.2905
 8485TIP3    H246871   4.698   4.487   3.286 -0.9863 -1.8636  1.6991
 8486TIP3   OH246872   1.982   5.395   1.180  0.2592  0.1474 -0.9180
 8486TIP3    H146873   1.977   5.306   1.145 -1.4714 -0.2303  0.1750
 8486TIP3    H246874   2.021   5.384   1.267 -1.7539  0.1547  0.0339
 8487TIP3   OH246875   5.345   1.972   1.703 -0.6457 -0.0547  0.1231
 8487TIP3    H146876   5.401   1.916   1.757 -0.2004  0.0650 -0.2030
 8487TIP3    H246877   5.308   1.913   1.638  2.4626  0.4454 -2.4030
 8488TIP3   OH246878   0.409   4.466   5.291 -0.0332 -0.1455 -0.2641
 8488TIP3    H146879   0.401   4.374   5.266 -0.2618 -0.3177  0.4279
 8488TIP3    H246880   0.331   4.508   5.255 -1.2751 -0.7286  1.6052
 8489TIP3   OH246881   3.059   3.560  13.423  0.5612  0.2329  0.5167
 8489TIP3    H146882   2.974   3.587  13.389  1.3947  0.0059 -1.9983
 8489TIP3    H246883   3.044   3.475  13.463 -0.2127 -0.4106 -1.0469
 8490TIP3   OH246884   3.433   4.500   5.938 -0.2308 -0.2557 -0.1692
 8490TIP3    H146885   3.482   4.580   5.955  2.2552 -1.4770 -1.0608
 8490TIP3    H246886   3.485   4.431   5.979 -2.2556 -1.4782  0.5098
 8491TIP3   OH246887   4.813   6.552  12.705 -0.2235  0.0506 -0.4566
 8491TIP3    H146888   4.898   6.532  12.667 -0.4923 -2.3387  0.0386
 8491TIP3    H246889   4.832   6.610  12.779  0.7090  1.3692 -1.6941
 8492TIP3   OH246890   5.333   5.801   1.377 -0.4991  0.7954  0.3828
 8492TIP3    H146891   5.320   5.896   1.380 -1.5627  0.6568  0.5417
 8492TIP3    H246892   5.427   5.790   1.365 -0.2606  1.8613  1.1382
 8493TIP3   OH246893   1.975   5.442   5.117  0.3756  0.0186 -0.2899
 8493TIP3    H146894   2.004   5.460   5.027  0.1742  0.2049 -0.3186
 8493TIP3    H246895   1.967   5.347   5.121 -0.9171  0.0854 -0.8792
 8494TIP3   OH246896   5.331   2.300  11.767 -0.3727 -0.5612  0.2055
 8494TIP3    H146897   5.261   2.245  11.803  0.1469 -0.4790  1.3762
 8494TIP3    H246898   5.406   2.285  11.824  0.1811  0.3548 -0.2496
 8495TIP3   OH246899   0.026   0.496  11.874 -0.0442 -0.3969  0.3502
 8495TIP3    H146900   0.037   0.408  11.912  0.0636 -1.0977 -1.2369
 8495TIP3    H246901  -0.063   0.521  11.899  0.3663 -0.3803  1.9096
 8496TIP3   OH246902   0.320   0.771   5.689 -0.2413 -0.4167 -0.2428
 8496TIP3    H146903   0.316   0.758   5.784 -0.0041 -4.2468 -0.6308
 8496TIP3    H246904   0.414   0.772   5.669 -0.3011 -0.5569 -0.5323
 8497TIP3   OH246905   3.246   0.668   1.057 -0.0971  0.1685  0.3092
 8497TIP3    H146906   3.221   0.672   0.965 -0.0821 -0.9980  0.2354
 8497TIP3    H246907   3.280   0.755   1.077 -0.1094  0.4346 -0.7887
 8498TIP3   OH246908   2.297   6.359  16.119 -0.3943 -0.2428  0.0104
 8498TIP3    H146909   2.284   6.422  16.047 -0.6773 -1.5909 -1.1712
 8498TIP3    H246910   2.209   6.339  16.150 -0.4067 -0.9994 -0.4856
 8499TIP3   OH246911   6.608   2.184  12.781  0.0525  0.2175 -0.1900
 8499TIP3    H146912   6.618   2.189  12.876  0.9434 -0.9120 -0.2080
 8499TIP3    H246913   6.544   2.252  12.760 -1.8286 -0.9225  1.4653
 8500TIP3   OH246914   3.948   5.680  11.243 -0.5443  0.0483 -0.2311
 8500TIP3    H146915   3.938   5.589  11.214  1.4078 -0.5650  0.8403
 8500TIP3    H246916   4.000   5.722  11.175  2.3607 -0.8779  1.2688
 8501TIP3   OH246917   5.843   4.228   1.804  0.2396  0.2291  0.4058
 8501TIP3    H146918   5.748   4.216   1.803  0.4188 -1.5700 -1.4915
 8501TIP3    H246919   5.855   4.323   1.815 -1.6534  0.2617  3.1618
 8502TIP3   OH246920   0.832   3.363   2.347 -0.0014  0.5163  0.0697
 8502TIP3    H146921   0.826   3.345   2.441  0.1313 -0.0885 -0.0333
 8502TIP3    H246922   0.813   3.279   2.305  1.5157  0.3720 -0.4124
 8503TIP3   OH246923   0.315   3.736  12.296 -0.4112 -0.8321 -0.0310
 8503TIP3    H146924   0.376   3.805  12.269 -0.3933 -0.5949  0.6112
 8503TIP3    H246925   0.328   3.727  12.390 -0.2411 -1.8873 -0.1466
 8504TIP3   OH246926   3.167   3.165   5.776 -0.4813 -0.4474  0.3758
 8504TIP3    H146927   3.083   3.168   5.822 -0.6355  0.0524  0.0649
 8504TIP3    H246928   3.167   3.080   5.732  0.1404 -1.4244  2.1658
 8505TIP3   OH246929   1.503   4.533   1.511  0.1717  0.1597  0.6291
 8505TIP3    H146930   1.470   4.448   1.482  0.9490 -0.4950  1.6024
 8505TIP3    H246931   1.470   4.543   1.600  0.5176  0.6395  0.7083
 8506TIP3   OH246932   1.023   5.146   3.017 -0.5655 -0.5911 -0.2032
 8506TIP3    H146933   1.020   5.051   3.003  0.0067 -0.4398 -1.5841
 8506TIP3    H246934   1.065   5.180   2.938  0.5995  0.6974  0.9178
 8507TIP3   OH246935   4.843   3.235  16.656  0.2262  0.9068  0.4447
 8507TIP3    H146936   4.818   3.304  16.718 -1.0963 -0.4461  1.4701
 8507TIP3    H246937   4.930   3.207  16.686 -0.9573 -0.6780  2.6194
 8508TIP3   OH246938   3.460   3.818  13.600  0.5118 -0.6619  0.7692
 8508TIP3    H146939   3.426   3.901  13.635  1.0875 -1.0894  2.4301
 8508TIP3    H246940   3.487   3.769  13.677  0.4623 -2.2902 -0.2143
 8509TIP3   OH246941   2.848   2.394   3.490 -0.3491  0.3802  0.1839
 8509TIP3    H146942   2.763   2.377   3.448  0.1042  0.7495 -0.9063
 8509TIP3    H246943   2.912   2.358   3.430  0.2639 -0.3333  1.2380
 8510TIP3   OH246944   3.216   6.666   1.318  0.0441 -0.0833 -0.4659
 8510TIP3    H146945   3.308   6.661   1.291  1.1573  0.4971  2.7678
 8510TIP3    H246946   3.208   6.753   1.358 -1.6602 -0.5132  0.2065
 8511TIP3   OH246947   1.526   2.075   1.151 -0.4845  0.6327  0.6165
 8511TIP3    H146948   1.533   1.997   1.095  1.3954  0.2490  1.2989
 8511TIP3    H246949   1.461   2.051   1.217 -1.6609  0.5592 -0.5089
 8512TIP3   OH246950   5.363   0.945   1.577  0.0964  0.2190 -0.1638
 8512TIP3    H146951   5.321   1.024   1.612 -0.0676  0.4941 -0.9456
 8512TIP3    H246952   5.302   0.874   1.598 -1.3197  0.7433 -2.1476
 8513TIP3   OH246953   2.074   5.804  13.534 -0.1013  0.1603  0.2386
 8513TIP3    H146954   2.018   5.733  13.503 -0.8121  0.9718 -0.3809
 8513TIP3    H246955   2.158   5.788  13.493 -0.5772  0.3023 -0.8201
 8514TIP3   OH246956   3.362   0.936  11.252 -0.0949 -0.0682  0.4740
 8514TIP3    H146957   3.336   0.859  11.301 -0.6928  0.8062  1.5909
 8514TIP3    H246958   3.421   0.984  11.310  1.2466 -0.2544 -0.6698
 8515TIP3   OH246959   5.516   4.360  11.295  0.1026  0.4057 -0.3856
 8515TIP3    H146960   5.529   4.438  11.241  0.7840  0.5386 -0.0373
 8515TIP3    H246961   5.600   4.314  11.292 -0.3479 -0.4019 -0.7229
 8516TIP3   OH246962   5.530   6.111   5.243  0.3066 -0.3660  0.2331
 8516TIP3    H146963   5.526   6.165   5.322 -1.7290 -0.0773 -0.0166
 8516TIP3    H246964   5.543   6.022   5.275  0.9358 -0.0780  0.8002
 8517TIP3   OH246965   2.474   0.185   1.700  0.2886 -0.2517  0.2376
 8517TIP3    H146966   2.504   0.223   1.783  0.3913  2.0871 -0.7882
 8517TIP3    H246967   2.503   0.247   1.633 -1.3094 -1.1511 -1.3938
 8518TIP3   OH246968   2.298   0.902   4.373  0.7416 -0.0984  0.5825
 8518TIP3    H146969   2.224   0.855   4.334  0.7752  1.2857 -1.2646
 8518TIP3    H246970   2.362   0.834   4.392 -0.0673 -1.0403  0.0439
 8519TIP3   OH246971   3.676   2.592   2.268  0.2045 -0.1646 -0.1300
 8519TIP3    H146972   3.674   2.639   2.351  0.7351  0.9100 -0.6968
 8519TIP3    H246973   3.584   2.579   2.245  0.0205 -2.2654  1.5673
 8520TIP3   OH246974   4.620   2.463   4.131 -0.1072  0.8804  0.2744
 8520TIP3    H146975   4.624   2.558   4.143  1.8730  0.6789  1.6840
 8520TIP3    H246976   4.604   2.428   4.219  0.4839 -0.1343  0.0007
 8521TIP3   OH246977   3.233   5.321  17.293 -0.5940  0.3048  0.2750
 8521TIP3    H146978   3.315   5.271  17.292  0.1089  1.3491  1.8404
 8521TIP3    H246979   3.228   5.361  17.207 -0.3592 -1.1588 -0.4489
 8522TIP3   OH246980   1.860   3.438   2.300 -0.0225  0.5296  0.0167
 8522TIP3    H146981   1.798   3.436   2.374 -1.8247  0.1959 -1.4306
 8522TIP3    H246982   1.848   3.525   2.262  2.0141  1.2785  0.9557
 8523TIP3   OH246983   5.091   5.780   6.299 -0.2722  0.2741  0.3197
 8523TIP3    H146984   5.146   5.823   6.233 -1.0778  0.3729 -0.2968
 8523TIP3    H246985   5.046   5.852   6.343  0.0573  0.1896  0.8091
 8524TIP3   OH246986   3.263   4.968   0.479 -0.1715 -0.2551 -0.4526
 8524TIP3    H146987   3.270   4.945   0.572  0.0052  0.4001 -0.2971
 8524TIP3    H246988   3.301   5.055   0.473  1.0155 -0.8111 -1.3664
 8525TIP3   OH246989   0.300   0.397  13.757 -0.1448 -0.2690  0.3397
 8525TIP3    H146990   0.332   0.394  13.666  0.6780  0.4071  0.5837
 8525TIP3    H246991   0.345   0.325  13.801 -0.0688 -0.2191  0.3454
 8526TIP3   OH246992   6.734   2.634  11.460  0.0697 -0.8120  0.0331
 8526TIP3    H146993   6.702   2.638  11.550 -2.7579  2.1092 -0.8989
 8526TIP3    H246994   6.668   2.583  11.413  1.4642 -2.2184 -0.4935
 8527TIP3   OH246995   0.896   1.258  11.642  0.0680 -0.0480  0.1377
 8527TIP3    H146996   0.963   1.203  11.601 -1.9060 -1.3803 -1.5354
 8527TIP3    H246997   0.876   1.325  11.576  1.9046  2.3721  1.8639
 8528TIP3   OH246998   5.991   1.736   4.635  0.8450 -0.1914 -0.3751
 8528TIP3    H146999   5.991   1.651   4.590  3.6689  0.1323 -1.1701
 8528TIP3    H247000   6.000   1.801   4.565  1.3370  0.5948  0.3998
 8529TIP3   OH247001   3.988   0.435   4.439  0.1514  0.2015  0.6143
 8529TIP3    H147002   3.898   0.462   4.456 -0.6416 -1.9144  0.1743
 8529TIP3    H247003   3.980   0.362   4.377  2.2779  0.8362 -0.5388
 8530TIP3   OH247004   6.613   4.995  16.704  0.1831  0.5991  0.4741
 8530TIP3    H147005   6.704   4.969  16.690  1.9160  3.9209  3.6387
 8530TIP3    H247006   6.582   4.936  16.773  0.2755  0.0776  0.0709
 8531TIP3   OH247007   0.648   3.711   1.309  0.3841 -0.1087 -0.0004
 8531TIP3    H147008   0.650   3.723   1.215  0.6635  0.4021  0.0659
 8531TIP3    H247009   0.733   3.672   1.330  0.2834 -0.3128  0.0273
 8532TIP3   OH247010   4.626   5.444  15.083  0.1911  0.3070 -0.4101
 8532TIP3    H147011   4.534   5.421  15.072  0.2071  0.4520 -0.8823
 8532TIP3    H247012   4.639   5.521  15.028  0.7930 -0.2259 -1.0465
 8533TIP3   OH247013   4.820   1.101  12.922  0.0486  0.3684 -0.2747
 8533TIP3    H147014   4.806   1.177  12.866 -2.1278  1.9812  2.2087
 8533TIP3    H247015   4.862   1.135  13.000 -0.7234 -0.9860  0.7929
 8534TIP3   OH247016   3.997   5.790  14.824  0.5798  0.1138 -0.4031
 8534TIP3    H147017   3.995   5.806  14.729  0.3650  2.8373 -0.0176
 8534TIP3    H247018   4.090   5.781  14.844  1.0219  3.2628 -0.4592
 8535TIP3   OH247019   2.467   0.913  11.528 -0.4179 -0.3635 -0.0253
 8535TIP3    H147020   2.419   0.976  11.580 -0.2898 -2.4682  2.8804
 8535TIP3    H247021   2.402   0.880  11.465 -0.7491  1.8057 -0.8971
 8536TIP3   OH247022   4.600   2.818   2.130  0.3758 -0.2011 -0.4123
 8536TIP3    H147023   4.580   2.736   2.174 -1.6781  0.3859 -0.1640
 8536TIP3    H247024   4.695   2.828   2.140  0.3371 -1.3801  1.5613
 8537TIP3   OH247025   1.207   3.011   1.564  0.1594  0.5722  0.3483
 8537TIP3    H147026   1.262   2.936   1.541  0.2521  1.0945 -1.2647
 8537TIP3    H247027   1.117   2.981   1.549  0.1811  0.6952 -0.0310
 8538TIP3   OH247028   0.348   5.460   5.700 -0.0765 -0.1691  0.1998
 8538TIP3    H147029   0.386   5.429   5.782  1.1550  1.4411  0.2702
 8538TIP3    H247030   0.270   5.509   5.727  0.4694  0.5796  0.4557
 8539TIP3   OH247031   5.446   4.560  13.018  0.7686  0.4681  0.5259
 8539TIP3    H147032   5.416   4.470  13.036 -0.6486  0.5864 -0.9603
 8539TIP3    H247033   5.427   4.608  13.098 -2.6964  0.3699 -0.0539
 8540TIP3   OH247034   5.992   6.543   2.865 -0.1982  0.4720 -0.4735
 8540TIP3    H147035   5.935   6.492   2.922  0.7182 -1.5777 -1.2875
 8540TIP3    H247036   6.055   6.584   2.924 -1.4758  1.3829  0.2769
 8541TIP3   OH247037   3.328   2.145   4.227  0.6270  0.3902  0.6041
 8541TIP3    H147038   3.393   2.208   4.196 -2.8963  3.6436 -0.9896
 8541TIP3    H247039   3.285   2.113   4.148  0.8475 -2.4944  1.5268
 8542TIP3   OH247040   1.132   0.664  15.808 -0.6615 -0.3269  0.0943
 8542TIP3    H147041   1.057   0.723  15.803  0.4103  1.0005 -1.3761
 8542TIP3    H247042   1.094   0.577  15.797 -2.2893  0.0007  2.3868
 8543TIP3   OH247043   3.259   3.968   4.464  0.6538 -0.3918  0.3605
 8543TIP3    H147044   3.332   3.932   4.414  0.1116 -1.1022  0.0607
 8543TIP3    H247045   3.272   4.063   4.462  1.5934 -0.5160  0.3658
 8544TIP3   OH247046   4.739   1.170  16.502  0.5108  0.4328  0.3454
 8544TIP3    H147047   4.777   1.213  16.425  2.1005 -0.0397  0.8442
 8544TIP3    H247048   4.806   1.108  16.531 -0.2379  0.2953  1.8656
 8545TIP3   OH247049   3.065   5.114   1.129  0.3333 -0.1439  0.1876
 8545TIP3    H147050   3.005   5.097   1.056  0.6344 -0.2162 -0.0454
 8545TIP3    H247051   3.014   5.167   1.190 -0.0192 -0.3438  0.0671
 8546TIP3   OH247052   4.775   1.959   6.118 -0.1390 -0.2593  0.3945
 8546TIP3    H147053   4.706   1.948   6.183  0.9591 -0.7617  1.5185
 8546TIP3    H247054   4.797   2.052   6.121 -0.6895 -0.1106  0.0796
 8547TIP3   OH247055   3.790   0.027  12.063  0.2988  0.1528 -0.4316
 8547TIP3    H147056   3.787  -0.058  12.020  2.7943  0.2828 -1.0006
 8547TIP3    H247057   3.773   0.090  11.993 -0.0708  0.1856 -0.3129
 8548TIP3   OH247058   0.182   0.410  15.512 -0.5064 -0.1466  0.3492
 8548TIP3    H147059   0.161   0.344  15.577 -0.8658  0.6669  1.0821
 8548TIP3    H247060   0.256   0.459  15.551 -1.1397  0.7505  0.4565
 8549TIP3   OH247061   2.319   3.681   5.209 -0.3246 -0.6411 -0.4312
 8549TIP3    H147062   2.239   3.685   5.156 -0.4013  0.1526 -0.2692
 8549TIP3    H247063   2.334   3.772   5.236  0.4055 -0.8494 -0.1219
 8550TIP3   OH247064   3.690   5.718   3.728 -0.3094  0.4538 -0.2159
 8550TIP3    H147065   3.752   5.773   3.680 -0.9694  1.4088 -0.0025
 8550TIP3    H247066   3.661   5.772   3.801  1.3044 -1.2797  1.8200
 8551TIP3   OH247067   4.175   1.593  16.598 -0.6608  0.6990  0.4895
 8551TIP3    H147068   4.142   1.637  16.676  0.8547  2.7742  0.0594
 8551TIP3    H247069   4.153   1.501  16.611 -1.3949  1.1335  2.8519
 8552TIP3   OH247070   0.955   2.500   0.213 -0.3468 -0.2558 -0.0212
 8552TIP3    H147071   0.870   2.463   0.190 -0.1040 -0.0526 -1.3306
 8552TIP3    H247072   0.934   2.583   0.256 -0.8516  1.1398 -2.7150
 8553TIP3   OH247073   5.168   6.716   0.673 -0.1573 -0.0097 -0.0678
 8553TIP3    H147074   5.104   6.698   0.741 -0.3658 -1.1277 -0.5406
 8553TIP3    H247075   5.144   6.658   0.601  1.5224 -0.6421 -0.1602
 8554TIP3   OH247076   4.801   5.693   0.964 -0.1393 -0.9088 -0.0072
 8554TIP3    H147077   4.814   5.598   0.967  1.5436 -0.6985  0.4295
 8554TIP3    H247078   4.854   5.726   1.037 -0.5430  0.3894 -0.2845
 8555TIP3   OH247079   1.347   3.578   0.698  0.0311  0.1897  0.3832
 8555TIP3    H147080   1.369   3.600   0.607  0.2265 -0.3089  0.3068
 8555TIP3    H247081   1.401   3.636   0.751 -1.2122  1.5843  0.1857
 8556TIP3   OH247082   1.225   4.275  15.302  0.6912 -0.3208 -0.0585
 8556TIP3    H147083   1.205   4.206  15.239 -0.8498 -0.1714  0.2188
 8556TIP3    H247084   1.275   4.230  15.371  0.7632 -0.8899 -0.4743
 8557TIP3   OH247085   1.157   5.794  16.457 -0.5694  0.3748 -0.3537
 8557TIP3    H147086   1.157   5.705  16.423  0.2038  0.9695 -2.0487
 8557TIP3    H247087   1.070   5.807  16.493 -0.7463 -0.9960 -0.2470
 8558TIP3   OH247088   3.690   2.145   1.447 -0.2625 -0.1332  0.1592
 8558TIP3    H147089   3.751   2.211   1.479  0.7711 -1.3406  0.7474
 8558TIP3    H247090   3.603   2.181   1.467  0.2511  1.2309  0.0560
 8559TIP3   OH247091   1.675   0.455   4.535 -0.2049 -0.3688 -0.0230
 8559TIP3    H147092   1.647   0.422   4.621 -0.4718 -1.9058 -0.6699
 8559TIP3    H247093   1.741   0.393   4.506  1.7682  1.5319  0.1326
 8560TIP3   OH247094   0.312   0.058   2.158 -0.0082 -0.1674 -0.4521
 8560TIP3    H147095   0.260  -0.023   2.160 -0.0159 -0.1696 -0.7632
 8560TIP3    H247096   0.304   0.090   2.068  1.5335 -0.8204 -0.8449
 8561TIP3   OH247097   6.249   5.764   1.212 -0.4985  0.4895 -0.3696
 8561TIP3    H147098   6.233   5.719   1.295 -2.3403  0.5388 -0.6578
 8561TIP3    H247099   6.209   5.708   1.146 -2.1072  2.0816 -0.8188
 8562TIP3   OH247100   2.413   3.428   4.875  0.1964 -0.2993  0.1823
 8562TIP3    H147101   2.337   3.390   4.918 -1.6023  0.2685 -2.3008
 8562TIP3    H247102   2.387   3.517   4.853  1.2685 -0.3174 -1.3506
 8563TIP3   OH247103   4.226   2.408  12.870 -0.0175 -0.5215  0.0928
 8563TIP3    H147104   4.147   2.410  12.924  0.5143 -1.0072  0.9036
 8563TIP3    H247105   4.284   2.346  12.914  1.3268  0.7901  0.2416
 8564TIP3   OH247106   5.025   2.378  15.409  0.2883 -0.1615  0.0666
 8564TIP3    H147107   4.952   2.408  15.355 -1.4199 -0.0109  2.3006
 8564TIP3    H247108   5.016   2.283  15.412 -1.1513 -0.0349  1.9484
 8565TIP3   OH247109   1.333   1.513   3.859 -0.0520  0.0171 -0.4735
 8565TIP3    H147110   1.289   1.479   3.782 -0.9848  0.9200 -0.3608
 8565TIP3    H247111   1.275   1.491   3.932 -0.3157  1.1651 -0.3131
 8566TIP3   OH247112   1.126   0.428   4.237  0.1223  0.1155 -0.1594
 8566TIP3    H147113   1.107   0.436   4.144 -1.1418  1.2126  0.1606
 8566TIP3    H247114   1.171   0.510   4.260 -1.2268  0.6868  0.5466
 8567TIP3   OH247115   5.146   2.631  14.366 -0.1989  0.1804  0.2627
 8567TIP3    H147116   5.208   2.646  14.295 -1.3749  0.5403 -0.7250
 8567TIP3    H247117   5.146   2.713  14.416 -1.8486  1.2100 -1.3346
 8568TIP3   OH247118   4.150   3.225   4.705  1.1163  0.1162 -0.4510
 8568TIP3    H147119   4.095   3.292   4.665  1.0349  0.6411  0.5309
 8568TIP3    H247120   4.102   3.196   4.783  1.4777 -0.5802 -0.4700
 8569TIP3   OH247121   2.580   5.445  16.186  0.1675 -0.3404  0.5621
 8569TIP3    H147122   2.570   5.540  16.193 -2.8933 -0.3506 -1.5718
 8569TIP3    H247123   2.504   5.410  16.232  1.7260 -1.8714  2.1005
 8570TIP3   OH247124   1.300   5.882  11.897  1.0973 -0.6284 -0.1740
 8570TIP3    H147125   1.370   5.947  11.899  0.7503 -0.2465  2.5403
 8570TIP3    H247126   1.225   5.926  11.935 -0.4099 -1.3606 -2.1191
 8571TIP3   OH247127   0.438   4.968   3.730  0.0506 -0.1278  0.1162
 8571TIP3    H147128   0.456   5.009   3.645 -0.5755  0.4543  0.2508
 8571TIP3    H247129   0.515   4.914   3.748 -0.3596 -1.2947 -1.4322
 8572TIP3   OH247130   5.696   0.563  17.015  0.3974 -0.5447 -0.6344
 8572TIP3    H147131   5.788   0.570  17.043  0.2240 -1.8821  0.3699
 8572TIP3    H247132   5.654   0.514  17.085 -0.9635 -0.4963 -1.3947
 8573TIP3   OH247133   0.792   3.878  14.132  0.2363  0.9507  0.0888
 8573TIP3    H147134   0.861   3.814  14.149 -0.2562  0.3433 -0.1570
 8573TIP3    H247135   0.803   3.903  14.040 -0.3643  0.2415 -0.1816
 8574TIP3   OH247136   1.376   2.980   3.524 -0.2355 -0.2134  0.6149
 8574TIP3    H147137   1.413   2.894   3.548  2.3965 -0.0414 -2.2176
 8574TIP3    H247138   1.328   2.963   3.443  0.5968  0.9773 -0.1561
 8575TIP3   OH247139   6.291   6.452   3.744 -0.4595 -0.0013 -0.0196
 8575TIP3    H147140   6.385   6.435   3.732 -0.3239 -0.2934  1.2538
 8575TIP3    H247141   6.256   6.459   3.655  0.4139 -1.9113 -0.5754
 8576TIP3   OH247142   2.640   5.788  13.973 -0.1679 -0.4683 -0.0978
 8576TIP3    H147143   2.686   5.705  13.959  0.2462 -0.3884  0.7594
 8576TIP3    H247144   2.600   5.780  14.059 -0.6366 -0.0030 -0.2626
 8577TIP3   OH247145   0.235   1.686   5.946 -0.6657  0.0194 -0.2907
 8577TIP3    H147146   0.272   1.605   5.983 -0.1858  0.4103  0.1104
 8577TIP3    H247147   0.188   1.658   5.868 -2.6195 -0.9828  1.1663
 8578TIP3   OH247148   0.507   2.952   3.406 -0.8007 -0.0981 -0.3352
 8578TIP3    H147149   0.597   2.945   3.437 -1.0249  0.8479  0.5868
 8578TIP3    H247150   0.513   3.003   3.324 -0.5413  0.4203  0.0009
 8579TIP3   OH247151   1.097   2.397  13.721 -0.6512 -0.2262  0.2061
 8579TIP3    H147152   1.039   2.407  13.796  0.2138 -1.3582  1.0618
 8579TIP3    H247153   1.183   2.426  13.752 -0.3256 -0.5103 -0.4022
 8580TIP3   OH247154   0.042   6.222   0.561  0.0470 -0.0325  0.3958
 8580TIP3    H147155   0.049   6.259   0.649  1.8450  1.1607 -0.1777
 8580TIP3    H247156  -0.044   6.250   0.530 -0.8312 -0.8943  1.9128
 8581TIP3   OH247157   5.382   1.806   4.818 -0.1061 -0.1336  0.5348
 8581TIP3    H147158   5.452   1.742   4.828  0.2165  0.4105  2.1279
 8581TIP3    H247159   5.314   1.777   4.879  0.4189  1.4582  1.9767
 8582TIP3   OH247160   2.634   5.038  16.785 -0.1773 -0.5429 -0.1445
 8582TIP3    H147161   2.575   5.093  16.838  1.6476  0.0563  1.3948
 8582TIP3    H247162   2.606   4.949  16.804 -0.9526 -0.2582  0.1109
 8583TIP3   OH247163   1.828   3.804   4.246 -0.0885 -0.8465 -0.3277
 8583TIP3    H147164   1.911   3.838   4.280  0.9202 -2.2787 -1.2441
 8583TIP3    H247165   1.799   3.869   4.183  0.3599 -0.3601 -0.0383
 8584TIP3   OH247166   2.938   6.285  16.058  0.2327  0.9728 -0.0442
 8584TIP3    H147167   2.949   6.342  15.982 -0.3192  1.8995  0.5512
 8584TIP3    H247168   2.843   6.270  16.064  0.2493  1.1045  0.6016
 8585TIP3   OH247169   2.809   0.396   0.778 -0.1774  1.0866 -0.2079
 8585TIP3    H147170   2.821   0.456   0.705  3.2227  0.8997  0.0772
 8585TIP3    H247171   2.884   0.338   0.775 -1.3817 -0.7363  1.8319
 8586TIP3   OH247172   0.740   0.908   5.803 -0.1242  0.1931 -0.1317
 8586TIP3    H147173   0.754   0.832   5.860 -0.0042 -0.2719 -0.7793
 8586TIP3    H247174   0.683   0.965   5.855  0.6326  0.1503  0.7853
 8587TIP3   OH247175   4.535   0.439   2.454  0.5226 -0.5150 -0.2018
 8587TIP3    H147176   4.556   0.363   2.400 -0.8226 -0.6522 -0.5736
 8587TIP3    H247177   4.612   0.495   2.447  0.4252 -0.5434 -2.2452
 8588TIP3   OH247178   5.654   3.841   5.111 -0.2316 -0.7057 -0.0169
 8588TIP3    H147179   5.636   3.915   5.053  3.8830 -1.1635 -2.3470
 8588TIP3    H247180   5.605   3.769   5.073  0.2882 -0.3763 -1.3966
 8589TIP3   OH247181   4.763   2.091   5.410 -0.6676 -0.7052 -0.0737
 8589TIP3    H147182   4.673   2.097   5.378 -0.2361 -3.0085 -2.0442
 8589TIP3    H247183   4.769   2.002   5.446  1.2462 -1.3470 -1.7442
 8590TIP3   OH247184   1.661   1.866   3.323  0.5693  0.7097  0.0026
 8590TIP3    H147185   1.573   1.857   3.286  0.0148 -1.5703  1.6578
 8590TIP3    H247186   1.719   1.830   3.256 -0.1950 -1.2877  0.3344
 8591TIP3   OH247187   4.399   1.850   1.476  0.1426  0.0350 -0.1216
 8591TIP3    H147188   4.423   1.760   1.501 -0.5832 -0.2519 -0.4264
 8591TIP3    H247189   4.358   1.886   1.554 -1.0780 -0.4747 -0.4934
 8592TIP3   OH247190   6.292   6.128  12.782  0.4408 -0.0683  0.6496
 8592TIP3    H147191   6.353   6.186  12.828  0.6448 -0.9516  1.5083
 8592TIP3    H247192   6.300   6.044  12.826  0.0619 -0.7415 -0.5070
 8593TIP3   OH247193   4.514   4.066  15.278  0.1690 -0.1196 -0.3976
 8593TIP3    H147194   4.422   4.056  15.301 -0.6980 -1.5011 -3.8307
 8593TIP3    H247195   4.540   3.980  15.245  2.1015  0.7818 -1.3854
 8594TIP3   OH247196   0.719   4.867  11.238 -0.0426 -0.4746 -0.0870
 8594TIP3    H147197   0.638   4.917  11.234 -0.0879 -0.4161  1.1033
 8594TIP3    H247198   0.746   4.856  11.147 -0.5802  0.8074 -0.4126
 8595TIP3   OH247199   6.681   5.596  13.391 -0.0839 -0.2179 -0.0132
 8595TIP3    H147200   6.676   5.657  13.317 -0.4861 -0.3785 -0.1193
 8595TIP3    H247201   6.601   5.612  13.441 -0.2732 -0.7708 -0.1322
 8596TIP3   OH247202   5.049   3.523  14.077 -0.0471 -0.3811  0.2722
 8596TIP3    H147203   4.965   3.554  14.043 -0.3097 -1.2946  0.0755
 8596TIP3    H247204   5.028   3.443  14.126  0.9592 -1.8893 -1.6182
 8597TIP3   OH247205   1.589   0.153   2.857  0.2324  0.6000 -0.2943
 8597TIP3    H147206   1.496   0.153   2.880  0.6445 -1.3307  1.6724
 8597TIP3    H247207   1.611   0.061   2.843  2.3688  0.6416  1.9483
 8598TIP3   OH247208   4.118   4.828   5.444 -0.3938  0.1363 -0.4829
 8598TIP3    H147209   4.122   4.762   5.374 -0.6719 -0.2288 -0.1557
 8598TIP3    H247210   4.025   4.842   5.458 -0.4288 -1.5564  1.4535
 8599TIP3   OH247211   2.566   0.408  16.716  0.5371 -0.1455  0.3722
 8599TIP3    H147212   2.568   0.328  16.664  2.0258  0.4235 -0.5196
 8599TIP3    H247213   2.595   0.476  16.655  1.4239  0.7042  1.7060
 8600TIP3   OH247214   5.093   2.058   2.711  0.0727 -0.1185  0.4294
 8600TIP3    H147215   5.030   2.117   2.751 -2.2290 -2.6855  0.9070
 8600TIP3    H247216   5.053   2.033   2.628  1.4067 -0.3480 -0.1802
 8601TIP3   OH247217   0.031   2.595  16.180  0.3571  0.2987 -0.2095
 8601TIP3    H147218  -0.022   2.518  16.159 -0.4400  0.7259  0.2044
 8601TIP3    H247219   0.044   2.591  16.275 -0.3479  1.0716 -0.0635
 8602TIP3   OH247220   3.880   2.063   5.578 -0.7148 -0.2801  0.3758
 8602TIP3    H147221   3.828   1.988   5.548 -1.4365  0.2303  0.3098
 8602TIP3    H247222   3.914   2.036   5.664  2.1383 -2.1228 -1.1693
 8603TIP3   OH247223   2.481   5.284   1.074  0.0772 -0.2293  0.3062
 8603TIP3    H147224   2.479   5.365   1.125 -1.4556  0.3767 -0.6576
 8603TIP3    H247225   2.443   5.218   1.132 -0.1963  0.1152  0.5223
 8604TIP3   OH247226   5.912   4.424   3.432  1.0872 -0.2857  0.5924
 8604TIP3    H147227   5.915   4.331   3.411 -0.1362 -0.5647  1.5155
 8604TIP3    H247228   5.907   4.427   3.527  0.2912  0.6866  0.5390
 8605TIP3   OH247229   4.605   4.972  15.160  0.1680 -0.1463 -0.0974
 8605TIP3    H147230   4.663   4.895  15.163 -1.5867 -1.7371 -2.5276
 8605TIP3    H247231   4.659   5.041  15.121  0.8676 -1.2129 -1.1064
 8606TIP3   OH247232   6.447   1.314   1.596 -0.7721  0.0080  0.3678
 8606TIP3    H147233   6.388   1.272   1.534 -1.6319  0.5133  0.8254
 8606TIP3    H247234   6.494   1.242   1.637  0.4127 -0.3122 -1.4045
 8607TIP3   OH247235   3.318   4.721   1.735  0.2987  0.3063 -0.3008
 8607TIP3    H147236   3.404   4.762   1.722 -0.4250  1.8555 -0.4814
 8607TIP3    H247237   3.280   4.717   1.648 -0.3672  0.9659 -0.0555
 8608TIP3   OH247238   1.959   4.074   2.353 -0.3786 -0.6750 -0.7456
 8608TIP3    H147239   1.995   4.142   2.296 -0.6909 -0.7218 -1.0016
 8608TIP3    H247240   1.933   4.121   2.433  0.2770 -0.6481 -0.5448
 8609TIP3   OH247241   3.724   5.322   1.967 -0.4157 -0.3189 -0.5500
 8609TIP3    H147242   3.665   5.343   2.040 -0.3476 -0.7613 -0.3638
 8609TIP3    H247243   3.792   5.389   1.971 -0.4421 -0.3099 -0.2429
 8610TIP3   OH247244   3.338   6.422  10.893  0.0767 -0.1302 -0.5247
 8610TIP3    H147245   3.325   6.481  10.819  0.4240  2.4730  1.3389
 8610TIP3    H247246   3.418   6.373  10.871 -1.8136 -2.2237 -3.4271
 8611TIP3   OH247247   4.252   0.881   2.600 -0.0188 -0.4824  0.3995
 8611TIP3    H147248   4.225   0.972   2.592 -0.7675 -0.8189 -1.2825
 8611TIP3    H247249   4.330   0.874   2.545 -1.1859 -1.2954 -1.2438
 8612TIP3   OH247250   1.047   6.567  11.425 -0.0467  0.0121  0.6835
 8612TIP3    H147251   0.966   6.617  11.416 -0.2480 -0.1892  1.3213
 8612TIP3    H247252   1.065   6.567  11.519 -1.0088 -2.5983  0.9482
 8613TIP3   OH247253   1.971   5.515  14.431 -0.5105  0.7334 -0.1689
 8613TIP3    H147254   1.940   5.600  14.461 -0.3405  0.5641  0.4988
 8613TIP3    H247255   1.892   5.462  14.424 -0.8136  1.3394 -1.9828
 8614TIP3   OH247256   3.978   1.252   4.558 -0.2968 -0.4065 -0.1414
 8614TIP3    H147257   4.042   1.185   4.533  1.9487  1.9550 -1.2433
 8614TIP3    H247258   3.995   1.266   4.651 -1.3200 -1.8452  0.2898
 8615TIP3   OH247259   5.604   1.540  14.556  0.6008 -0.4524  0.3779
 8615TIP3    H147260   5.636   1.603  14.492  2.2560 -1.9563 -0.3504
 8615TIP3    H247261   5.516   1.517  14.525 -0.0271  1.3921  0.6345
 8616TIP3   OH247262   0.844   0.085  12.252  0.4732 -0.3376 -0.1684
 8616TIP3    H147263   0.882   0.042  12.329 -1.2198 -1.3443  0.1527
 8616TIP3    H247264   0.835   0.015  12.188  0.4796  0.1917 -0.7549
 8617TIP3   OH247265   5.431   3.293   0.723 -0.2314  0.2473 -0.1170
 8617TIP3    H147266   5.470   3.304   0.810 -1.7341  1.5618  0.4457
 8617TIP3    H247267   5.472   3.361   0.670 -0.0195  0.0751 -0.1747
 8618TIP3   OH247268   1.428   0.476  11.088 -0.2459  0.0605  0.0230
 8618TIP3    H147269   1.392   0.395  11.125 -0.3459  0.5578  1.0611
 8618TIP3    H247270   1.354   0.515  11.042 -0.5513  0.1933  0.6189
 8619TIP3   OH247271   6.643   1.399   1.414 -0.4139  0.2424 -0.0869
 8619TIP3    H147272   6.705   1.336   1.377 -1.5224 -0.7038 -0.4129
 8619TIP3    H247273   6.579   1.345   1.461 -1.0627  1.1627  0.1201
 8620TIP3   OH247274   2.740   3.401   2.222  0.3817  0.2624 -0.2663
 8620TIP3    H147275   2.799   3.469   2.256  0.5142  0.6019 -1.1633
 8620TIP3    H247276   2.731   3.421   2.129 -0.3473 -0.3884 -0.3431
 8621TIP3   OH247277   6.711   1.494  15.530  0.2237  0.4550 -0.1040
 8621TIP3    H147278   6.764   1.444  15.468  0.5039  1.0932 -0.3896
 8621TIP3    H247279   6.689   1.574  15.482 -1.9152 -0.2548 -0.3951
 8622TIP3   OH247280   5.312   3.279  16.851  0.2079 -0.0558  0.3837
 8622TIP3    H147281   5.347   3.196  16.885  0.2127 -0.9980 -1.7755
 8622TIP3    H247282   5.386   3.322  16.810 -0.3202 -0.2157 -0.7765
 8623TIP3   OH247283   2.325   1.007   0.979 -0.0910  0.0284 -0.1037
 8623TIP3    H147284   2.251   1.035   1.033  1.1152  0.1930  1.5231
 8623TIP3    H247285   2.402   1.030   1.030  1.0656 -1.7606 -0.9458
 8624TIP3   OH247286   0.693   6.468   3.711 -0.2554  0.4084 -0.0413
 8624TIP3    H147287   0.734   6.530   3.771  1.0408 -0.5279  0.0976
 8624TIP3    H247288   0.766   6.415   3.679 -1.3379 -1.1839  0.0318
 8625TIP3   OH247289   0.509   3.540   4.196 -0.0872  0.6714  0.2255
 8625TIP3    H147290   0.481   3.577   4.112  0.4330 -0.5020 -0.4808
 8625TIP3    H247291   0.572   3.472   4.173 -1.1451 -0.8037  1.4719
 8626TIP3   OH247292   3.266   4.192   0.278 -0.4594 -0.6956  0.2087
 8626TIP3    H147293   3.244   4.284   0.267  1.9603 -0.1970 -1.2381
 8626TIP3    H247294   3.241   4.172   0.369 -0.2661  1.6233  0.8356
 8627TIP3   OH247295   3.184   1.806  16.491  0.2756 -0.0337  0.7189
 8627TIP3    H147296   3.268   1.785  16.533  0.1195  1.2379  1.7074
 8627TIP3    H247297   3.147   1.721  16.468  1.8952 -0.6224  0.1279
 8628TIP3   OH247298   1.202   2.856  16.225  0.4170 -0.0302  0.0562
 8628TIP3    H147299   1.227   2.766  16.206  0.3311  0.5652 -3.5186
 8628TIP3    H247300   1.115   2.849  16.265  1.0193 -1.5516  1.1685
 8629TIP3   OH247301   3.293   3.635   6.887  0.1967  0.2178  0.2170
 8629TIP3    H147302   3.224   3.581   6.925  1.3372 -1.0429  0.5773
 8629TIP3    H247303   3.317   3.589   6.806  0.6863  0.5916  0.1471
 8630TIP3   OH247304   0.559   1.393  16.970 -0.0653 -0.8442  0.6269
 8630TIP3    H147305   0.576   1.313  17.018 -0.9071 -0.8207  0.9794
 8630TIP3    H247306   0.576   1.370  16.878  2.1756 -0.7051  0.9730
 8631TIP3   OH247307   2.871   6.690   3.161 -0.2423 -0.1054  0.3483
 8631TIP3    H147308   2.857   6.681   3.255  0.4292  0.8421  0.5491
 8631TIP3    H247309   2.793   6.736   3.129 -2.1277 -3.3701 -0.1606
 8632TIP3   OH247310   0.738   2.884   3.907 -0.3553 -0.1341 -0.0162
 8632TIP3    H147311   0.719   2.870   4.000  3.4849  0.9134  1.1167
 8632TIP3    H247312   0.736   2.979   3.896  1.6862 -0.0585 -0.2521
 8633TIP3   OH247313   3.728   4.266   1.008 -0.3837  0.1527  0.1535
 8633TIP3    H147314   3.747   4.350   1.050  0.0079  0.0669  0.1518
 8633TIP3    H247315   3.741   4.282   0.915 -2.1235  0.5838 -0.0520
 8634TIP3   OH247316   0.112   4.338   6.451 -0.3978 -0.1976 -0.0657
 8634TIP3    H147317   0.072   4.424   6.445  0.1358  0.0674  0.1071
 8634TIP3    H247318   0.048   4.279   6.412  0.1857  0.5791 -2.3410
 8635TIP3   OH247319   3.021   4.844  13.681  0.2306 -0.4237  0.1698
 8635TIP3    H147320   3.049   4.894  13.757 -0.2563 -1.5824  1.1313
 8635TIP3    H247321   2.973   4.907  13.627  1.9594  0.8101 -0.0008
 8636TIP3   OH247322   1.101   5.710  13.991 -0.1621 -0.2958  1.1093
 8636TIP3    H147323   1.058   5.796  13.985 -0.8277 -0.5099  2.3911
 8636TIP3    H247324   1.050   5.653  13.933  1.3216  0.5200 -1.1321
 8637TIP3   OH247325   6.597   5.182   0.772  0.4140 -0.4109  0.2034
 8637TIP3    H147326   6.512   5.183   0.815  0.1525 -0.5022 -0.3065
 8637TIP3    H247327   6.616   5.274   0.753  0.3404 -0.4065  0.1493
 8638TIP3   OH247328   1.527   4.481  11.830 -0.3609  0.3857  0.4298
 8638TIP3    H147329   1.487   4.568  11.823  0.3012  0.7146  0.6069
 8638TIP3    H247330   1.492   4.433  11.755  0.6212  1.3837 -0.7343
 8639TIP3   OH247331   1.971   3.502  17.038  0.8029 -0.2773 -0.6648
 8639TIP3    H147332   1.936   3.506  16.949  0.3665  0.0975 -0.4814
 8639TIP3    H247333   1.898   3.468  17.091  1.2261 -0.9923 -0.5306
 8640TIP3   OH247334   0.534   3.093  11.463 -0.2185  0.5396  0.2560
 8640TIP3    H147335   0.579   3.105  11.379 -0.8841  1.7772  0.0549
 8640TIP3    H247336   0.466   3.027  11.444  0.9685 -0.7554  0.3717
 8641TIP3   OH247337   2.845   0.138  12.019  0.1718  0.2739 -0.6211
 8641TIP3    H147338   2.816   0.055  12.057 -0.0477  0.4582 -0.3841
 8641TIP3    H247339   2.765   0.178  11.986  0.2004  0.6304 -0.2649
 8642TIP3   OH247340   1.913   4.446   1.595  0.6000 -0.4825  0.1327
 8642TIP3    H147341   1.886   4.398   1.673 -0.0379 -1.3082 -0.5735
 8642TIP3    H247342   1.837   4.500   1.573  0.2922 -1.1965 -0.6252
 8643TIP3   OH247343   0.063   2.171  11.613  0.0805 -0.4964 -0.7930
 8643TIP3    H147344   0.076   2.240  11.548  1.1196  0.4445  0.3491
 8643TIP3    H247345   0.104   2.206  11.693 -0.3724 -1.9729  0.1224
 8644TIP3   OH247346   2.483   3.273  14.472  0.1025 -0.1618  0.5207
 8644TIP3    H147347   2.569   3.310  14.454 -0.3726  1.1346  0.7605
 8644TIP3    H247348   2.453   3.319  14.551 -1.1855  0.1130 -0.0873
 8645TIP3   OH247349   1.906   5.420  16.117  0.4006 -0.2938  0.0240
 8645TIP3    H147350   1.871   5.344  16.070  1.4596 -0.0857 -1.1671
 8645TIP3    H247351   1.997   5.397  16.134  0.7154  0.6751 -0.2933
 8646TIP3   OH247352   4.045   5.298  16.384 -0.0834  0.0076  0.1067
 8646TIP3    H147353   4.007   5.351  16.454 -1.0976 -0.4446 -0.0968
 8646TIP3    H247354   4.016   5.209  16.403  2.0493 -0.6199  0.7596
 8647TIP3   OH247355   2.844   0.008   0.567 -0.4469 -0.7013  0.0381
 8647TIP3    H147356   2.893   0.043   0.641 -0.0063 -0.4683 -0.3543
 8647TIP3    H247357   2.767  -0.034   0.606  0.3037 -1.4947  0.7129
 8648TIP3   OH247358   3.790   1.885   1.392 -0.6929 -0.7174  0.0135
 8648TIP3    H147359   3.884   1.901   1.398 -0.6983  0.0493 -1.3739
 8648TIP3    H247360   3.751   1.972   1.402 -1.1900 -0.8970 -0.3564
 8649TIP3   OH247361   2.605   0.710  15.017  0.3182 -0.1715 -0.2022
 8649TIP3    H147362   2.555   0.629  15.007  0.4540 -0.2492 -0.2515
 8649TIP3    H247363   2.663   0.713  14.941 -0.1869  0.3283 -0.5703
 8650TIP3   OH247364   5.084   5.559  17.298  0.2149  0.7619  0.0350
 8650TIP3    H147365   5.072   5.466  17.316  3.3433  0.4001  0.7399
 8650TIP3    H247366   5.127   5.561  17.212  1.7084  1.4102  0.7708
 8651TIP3   OH247367   0.311   2.508   5.675 -0.7386  0.0025  0.1963
 8651TIP3    H147368   0.396   2.472   5.701  0.0524  0.2023 -1.9295
 8651TIP3    H247369   0.318   2.601   5.694  0.1213  0.2792 -1.3426
 8652TIP3   OH247370   4.077   4.166  14.278  0.2444  0.2831  0.2308
 8652TIP3    H147371   4.017   4.182  14.205  0.0053  1.9529  0.7515
 8652TIP3    H247372   4.078   4.071  14.288 -3.9648  0.1712  1.5456
 8653TIP3   OH247373   3.446   5.118  12.349 -0.1649 -0.5679 -0.6019
 8653TIP3    H147374   3.424   5.158  12.264  1.5989  2.0569  0.0550
 8653TIP3    H247375   3.518   5.059  12.329 -1.4525 -1.9938 -1.2659
 8654TIP3   OH247376   5.085   1.709   3.148 -0.6277  0.3060 -0.0326
 8654TIP3    H147377   5.029   1.766   3.202 -1.3171  0.3861 -0.8065
 8654TIP3    H247378   5.174   1.739   3.165 -0.7617 -0.1321  1.6013
 8655TIP3   OH247379   3.274   6.210  12.193 -0.2408 -0.4830  0.3207
 8655TIP3    H147380   3.184   6.205  12.226 -0.1847  1.3996  0.8927
 8655TIP3    H247381   3.323   6.250  12.265  0.7540 -0.1597 -0.5087
 8656TIP3   OH247382   0.812   0.433  15.074  0.0326  0.4324 -0.8762
 8656TIP3    H147383   0.747   0.374  15.113 -0.1565  0.4197 -1.1996
 8656TIP3    H247384   0.858   0.379  15.009  0.9715  0.2038 -0.0351
 8657TIP3   OH247385   2.462   0.871  12.248  0.1266  0.7202 -0.6092
 8657TIP3    H147386   2.531   0.804  12.255 -1.5646 -0.9791  1.3613
 8657TIP3    H247387   2.397   0.832  12.190 -1.2326  0.2211  1.1571
 8658TIP3   OH247388   5.132   5.861   1.968 -0.3216 -0.2808 -0.5291
 8658TIP3    H147389   5.053   5.806   1.970 -1.5049  1.2076 -2.2052
 8658TIP3    H247390   5.098   5.950   1.974  1.4476  0.3349  0.8761
 8659TIP3   OH247391   6.024   4.244  16.069 -0.1631  0.0641  0.1122
 8659TIP3    H147392   6.089   4.229  16.001  0.0487  1.0431  0.0946
 8659TIP3    H247393   5.947   4.194  16.040 -0.7684  2.0105 -1.8751
 8660TIP3   OH247394   1.811   1.578  16.900  0.6476  0.2695 -0.2186
 8660TIP3    H147395   1.851   1.492  16.885  0.6035  0.3016 -0.5122
 8660TIP3    H247396   1.874   1.625  16.954  0.8099  0.1658 -0.3198
 8661TIP3   OH247397   3.828   3.961  14.613  0.2099  0.1203 -0.4542
 8661TIP3    H147398   3.772   3.901  14.663 -0.1208 -0.0500 -1.0166
 8661TIP3    H247399   3.773   3.990  14.540  0.5728  0.6341 -0.5297
 8662TIP3   OH247400   2.452   0.679   4.353  0.0164  0.1893  0.3416
 8662TIP3    H147401   2.460   0.662   4.260  1.4467 -1.1591  0.6670
 8662TIP3    H247402   2.385   0.617   4.383 -0.3324  0.5155  0.2371
 8663TIP3   OH247403   2.689   1.286   2.981 -0.0823 -0.2264  0.1183
 8663TIP3    H147404   2.695   1.271   3.075  1.5419 -0.0885  0.0611
 8663TIP3    H247405   2.726   1.373   2.968  0.7412 -0.6764 -0.7409
 8664TIP3   OH247406   5.129   1.930   5.106 -0.6143 -0.2273  0.3513
 8664TIP3    H147407   5.189   1.978   5.162 -1.2106  0.0408  0.7747
 8664TIP3    H247408   5.068   1.996   5.074  0.6445 -0.0791 -1.9057
 8665TIP3   OH247409   6.624   4.964   5.190  0.7136 -0.1551  0.5652
 8665TIP3    H147410   6.660   5.046   5.223 -1.5709  1.4997 -0.7882
 8665TIP3    H247411   6.559   4.937   5.255  1.1640 -0.6962  0.8016
 8666TIP3   OH247412   5.595   2.029  13.155 -0.2342 -0.5742  0.2495
 8666TIP3    H147413   5.561   2.028  13.066  0.2041 -0.2724  0.0714
 8666TIP3    H247414   5.679   1.983  13.149  0.5192  0.7534  0.1893
 8667TIP3   OH247415   5.454   2.757  12.944 -0.2370  0.5330  1.3012
 8667TIP3    H147416   5.513   2.727  12.876  0.2916  1.1976  1.4526
 8667TIP3    H247417   5.378   2.790  12.897 -1.1679 -1.6558  1.1541
 8668TIP3   OH247418   5.112   5.460   1.901  0.1000  0.5882 -0.0541
 8668TIP3    H147419   5.108   5.541   1.849 -0.7568  0.4837 -0.1728
 8668TIP3    H247420   5.021   5.446   1.930  0.5685  0.6532  1.5063
 8669TIP3   OH247421   5.920   1.904  11.849 -0.6209 -0.0260 -0.2977
 8669TIP3    H147422   5.951   1.820  11.816 -0.6323 -0.3909  0.5682
 8669TIP3    H247423   5.943   1.968  11.782  0.4465 -0.5547 -0.4452
 8670TIP3   OH247424   3.609   1.072  16.527 -0.2963 -0.3367 -0.4945
 8670TIP3    H147425   3.631   0.992  16.479 -1.4088 -0.0333 -1.5586
 8670TIP3    H247426   3.683   1.086  16.586 -0.0798 -2.1423 -0.2829
 8671TIP3   OH247427   4.568   5.206   0.050  0.4940 -0.4450 -0.0243
 8671TIP3    H147428   4.593   5.115   0.034  2.3267  0.0010  0.0906
 8671TIP3    H247429   4.563   5.246  -0.037  0.6704 -0.4273 -0.0268
 8672TIP3   OH247430   1.584   1.839   1.871  0.1947 -0.3299 -0.7150
 8672TIP3    H147431   1.605   1.859   1.962  0.4992 -1.4946 -0.5243
 8672TIP3    H247432   1.490   1.856   1.864  0.5416  1.9387 -0.7911
 8673TIP3   OH247433   5.456   3.157  12.691  0.7474 -0.0797 -0.3668
 8673TIP3    H147434   5.540   3.111  12.682 -0.2974 -1.9284 -1.4347
 8673TIP3    H247435   5.431   3.177  12.601  1.0874  2.5863  0.0629
 8674TIP3   OH247436   5.729   4.313  16.785 -0.4790  0.1301  0.0537
 8674TIP3    H147437   5.657   4.261  16.749 -0.2414  1.7951 -3.2829
 8674TIP3    H247438   5.807   4.275  16.746  0.1881  0.0103  1.4783
 8675TIP3   OH247439   2.737   6.057   5.510  0.2047  0.5192  0.1057
 8675TIP3    H147440   2.766   6.035   5.421  2.1819  0.1062  0.8041
 8675TIP3    H247441   2.786   6.136   5.532  1.0861 -0.3544  1.4328
 8676TIP3   OH247442   5.669   5.879   1.951 -0.5418 -0.1282 -0.0982
 8676TIP3    H147443   5.677   5.924   2.035  0.2197  0.2548 -0.3681
 8676TIP3    H247444   5.598   5.816   1.964  0.1358 -0.6773  1.1008
 8677TIP3   OH247445   2.525   1.213   1.446 -0.6477 -0.1404  0.5082
 8677TIP3    H147446   2.458   1.187   1.508 -0.8355 -0.0499  0.3430
 8677TIP3    H247447   2.575   1.281   1.491 -2.4937  1.9394 -0.4466
 8678TIP3   OH247448   3.853   4.823  11.464 -0.1764 -0.2289 -0.2760
 8678TIP3    H147449   3.810   4.756  11.410 -1.3502  0.7405 -0.5626
 8678TIP3    H247450   3.806   4.903  11.445  1.8862  0.9479 -0.7573
 8679TIP3   OH247451   1.271   0.265   3.755 -0.2370  0.1275  0.6786
 8679TIP3    H147452   1.279   0.181   3.709  0.7258  0.9726 -0.8019
 8679TIP3    H247453   1.181   0.293   3.738 -0.5493 -0.5743  1.1426
 8680TIP3   OH247454   4.275   0.082   0.280 -0.0127 -0.3575  0.2976
 8680TIP3    H147455   4.282  -0.009   0.254 -0.5923 -0.2265 -0.3602
 8680TIP3    H247456   4.191   0.111   0.244  0.8623  0.8570 -0.8705
 8681TIP3   OH247457   3.561   2.855   3.809  0.8881 -0.3601  0.3559
 8681TIP3    H147458   3.544   2.921   3.877 -0.2694  2.2342 -2.2395
 8681TIP3    H247459   3.656   2.856   3.799  0.9692  0.1812  1.0751
 8682TIP3   OH247460   4.539   4.116  16.951 -0.4085 -0.9736 -0.9040
 8682TIP3    H147461   4.600   4.097  17.023 -1.7280 -2.0196  0.0051
 8682TIP3    H247462   4.504   4.203  16.971 -1.5795 -1.6908  0.3944
 8683TIP3   OH247463   6.079   4.153  16.975  0.6881 -0.0673 -0.6011
 8683TIP3    H147464   6.000   4.191  17.014 -0.9933 -2.6735 -1.2075
 8683TIP3    H247465   6.078   4.185  16.885  0.8516  0.6247 -0.3666
 8684TIP3   OH247466   2.426   2.494   5.478  0.3577 -0.2554 -0.6993
 8684TIP3    H147467   2.504   2.549   5.471  1.3341 -1.3878  0.5707
 8684TIP3    H247468   2.353   2.554   5.464  1.4435  0.8944 -1.6555
 8685TIP3   OH247469   2.090   0.812  14.448 -0.0787  0.3587 -0.1288
 8685TIP3    H147470   2.128   0.900  14.452  0.8025  0.1089 -1.9147
 8685TIP3    H247471   2.013   0.821  14.392 -0.4839  0.1401  0.3840
 8686TIP3   OH247472   0.076   3.606  10.456 -0.2109 -0.5082  0.3412
 8686TIP3    H147473   0.034   3.527  10.491  0.3680 -1.2937 -0.6908
 8686TIP3    H247474   0.070   3.669  10.528  1.0824 -2.1138  1.9805
 8687TIP3   OH247475   4.989   1.398  10.696  0.8531 -0.1631  0.7888
 8687TIP3    H147476   4.986   1.336  10.769  2.4643  0.6944  1.6223
 8687TIP3    H247477   5.031   1.476  10.732 -0.9001  1.3778 -0.2949
 8688TIP3   OH247478   0.189   3.435  14.948 -0.2097  0.1060  0.1396
 8688TIP3    H147479   0.095   3.448  14.959 -0.5006 -0.3635 -1.4811
 8688TIP3    H247480   0.204   3.345  14.977 -0.2311  0.2210  0.5143
 8689TIP3   OH247481   6.039   2.437   5.412  0.0010 -0.6521 -0.3045
 8689TIP3    H147482   6.043   2.426   5.317  0.8942  0.5870 -0.4380
 8689TIP3    H247483   6.058   2.530   5.427  1.4139 -1.1255  1.1607
 8690TIP3   OH247484   5.096   6.347  14.341  0.0052 -0.0266 -0.5217
 8690TIP3    H147485   5.010   6.368  14.378 -0.2826 -1.2505 -0.4293
 8690TIP3    H247486   5.157   6.404  14.388 -0.5349 -0.4926  0.8029
 8691TIP3   OH247487   2.026   2.636  14.802  0.1352  0.7432  0.5856
 8691TIP3    H147488   1.968   2.702  14.840 -0.8405 -0.0656  0.5306
 8691TIP3    H247489   2.074   2.600  14.877 -2.6868 -1.7506  1.3909
 8692TIP3   OH247490   3.759   6.432  11.700  0.0776  0.2911  0.6560
 8692TIP3    H147491   3.728   6.347  11.667  1.6342 -0.1586  0.2365
 8692TIP3    H247492   3.786   6.479  11.621 -0.2758  0.9736  0.9364
 8693TIP3   OH247493   2.232   5.372  12.722  0.4911 -0.4748  0.1010
 8693TIP3    H147494   2.285   5.305  12.678  1.0789  0.1768 -0.2030
 8693TIP3    H247495   2.273   5.383  12.808  0.5651 -0.3070  0.0444
 8694TIP3   OH247496   4.180   4.833   3.123 -0.3871 -0.2062  0.0967
 8694TIP3    H147497   4.150   4.769   3.187  0.3077 -1.3301 -0.6605
 8694TIP3    H247498   4.210   4.907   3.175 -2.4674  0.1160  0.9487
 8695TIP3   OH247499   3.008   5.065  15.221 -0.6000 -0.5021  0.2720
 8695TIP3    H147500   3.049   4.981  15.199  0.2212 -0.1201  0.3186
 8695TIP3    H247501   3.070   5.108  15.279 -1.4139 -0.2240  0.9532
 8696TIP3   OH247502   2.232   1.545  13.855  0.4370 -0.0194 -0.0402
 8696TIP3    H147503   2.194   1.620  13.901  0.6373 -0.1009  0.2618
 8696TIP3    H247504   2.326   1.554  13.868  0.4721 -0.2318 -0.1419
 8697TIP3   OH247505   3.961   4.428   2.643 -0.2924 -0.1436 -0.1378
 8697TIP3    H147506   4.025   4.356   2.645 -0.4629 -0.2871  0.1251
 8697TIP3    H247507   3.983   4.481   2.719 -1.3231 -0.9163  0.7271
 8698TIP3   OH247508   0.828   5.966  14.294 -0.6198  1.0502 -0.2516
 8698TIP3    H147509   0.884   5.898  14.332 -0.0483  0.4529 -2.0771
 8698TIP3    H247510   0.798   6.017  14.370 -2.6062 -2.3157  1.4990
 8699TIP3   OH247511   4.040   0.358   2.370  0.4335 -0.6029  0.0190
 8699TIP3    H147512   3.994   0.388   2.448 -0.7094 -3.5052  0.6068
 8699TIP3    H247513   3.989   0.392   2.297  0.7994  1.0963  0.5111
 8700TIP3   OH247514   1.671   0.461  12.051  0.3663 -0.2264  0.3268
 8700TIP3    H147515   1.732   0.476  12.123  1.1276 -2.7442  0.3112
 8700TIP3    H247516   1.660   0.547  12.010  4.6271  0.2379 -0.2518
 8701TIP3   OH247517   4.284   4.203  10.698  0.4788  0.0220 -0.3724
 8701TIP3    H147518   4.219   4.232  10.633 -0.5514 -1.2315  0.0609
 8701TIP3    H247519   4.368   4.219  10.656 -0.1244  0.6866 -1.3857
 8702TIP3   OH247520   4.971   5.452  14.651 -0.5885  0.3727  0.2199
 8702TIP3    H147521   4.890   5.422  14.611 -1.3362  1.8859  0.5120
 8702TIP3    H247522   5.036   5.387  14.626 -2.0498 -1.3339  0.7017
 8703TIP3   OH247523   0.118   3.565   2.129  0.0654  0.2550 -0.2125
 8703TIP3    H147524   0.065   3.591   2.054 -0.3874 -1.0414 -0.3792
 8703TIP3    H247525   0.103   3.470   2.137  0.8544  0.2021  0.9246
 8704TIP3   OH247526   2.137   3.817   0.061  0.0428  0.4726  0.5873
 8704TIP3    H147527   2.137   3.801  -0.034  1.4726 -0.0707  0.6573
 8704TIP3    H247528   2.071   3.758   0.096 -0.2780  0.4564 -0.0298
 8705TIP3   OH247529   4.951   6.763  12.866 -0.0700  0.0917  0.0447
 8705TIP3    H147530   4.990   6.835  12.915  2.3843 -0.7199 -0.5965
 8705TIP3    H247531   4.981   6.776  12.776  1.3555 -2.2451  0.0967
 8706TIP3   OH247532   4.019   3.921  12.346  0.2584  0.5493 -0.0869
 8706TIP3    H147533   3.945   3.948  12.292  1.6497  0.2077 -2.3216
 8706TIP3    H247534   3.984   3.913  12.434 -2.2098  0.8969 -0.9769
 8707TIP3   OH247535   5.594   4.769  15.349 -0.2181  0.3811 -0.3538
 8707TIP3    H147536   5.654   4.722  15.407  0.2481  0.8843 -0.4262
 8707TIP3    H247537   5.530   4.703  15.322 -0.5740  0.1910  0.9064
 8708TIP3   OH247538   1.515   4.814   1.390  0.0104  0.3130  0.0717
 8708TIP3    H147539   1.565   4.837   1.312 -0.2876 -0.3936 -0.3419
 8708TIP3    H247540   1.470   4.733   1.366  0.8777 -0.6110  1.3888
 8709TIP3   OH247541   4.564   2.546   5.960  0.4080 -0.7501 -0.7459
 8709TIP3    H147542   4.632   2.526   5.895  1.3582  1.0425 -0.3654
 8709TIP3    H247543   4.593   2.499   6.039  1.0182 -0.2787 -0.6859
 8710TIP3   OH247544   4.601   0.139  15.062 -0.0437  0.5157  0.3488
 8710TIP3    H147545   4.679   0.083  15.052 -0.1992  0.3495  0.0460
 8710TIP3    H247546   4.622   0.218  15.012 -0.2431  0.2871 -0.1011
 8711TIP3   OH247547   1.619   4.972  16.082  0.7409 -0.2030 -0.0827
 8711TIP3    H147548   1.675   5.024  16.025  0.1797  0.8495  0.3142
 8711TIP3    H247549   1.554   4.933  16.024  1.0130 -0.2619 -0.3484
 8712TIP3   OH247550   5.053   5.934  15.728  0.5959 -0.1323 -0.4587
 8712TIP3    H147551   5.133   5.975  15.761  0.9076  0.8855 -2.3392
 8712TIP3    H247552   5.029   5.987  15.652 -1.1308 -1.2240 -0.7190
 8713TIP3   OH247553   1.623   2.700   1.541  0.6409 -0.5767  0.0249
 8713TIP3    H147554   1.660   2.633   1.484 -1.2520 -0.1425 -1.7983
 8713TIP3    H247555   1.693   2.766   1.549  1.2490 -1.0682 -1.0664
 8714TIP3   OH247556   2.726   4.284   2.426 -1.0458 -0.0619  0.0186
 8714TIP3    H147557   2.755   4.281   2.335 -1.2541 -0.0193 -0.0488
 8714TIP3    H247558   2.657   4.218   2.432 -1.0838 -0.0133  0.1283
 8715TIP3   OH247559   1.092   5.473   1.005 -0.1907 -0.1917 -0.0582
 8715TIP3    H147560   1.047   5.518   1.076  0.1624  1.0533 -0.5922
 8715TIP3    H247561   1.149   5.539   0.967  0.1421 -1.0220 -1.0667
 8716TIP3   OH247562   1.383   1.943   4.053  0.3334 -0.1477 -0.3811
 8716TIP3    H147563   1.437   1.943   3.974  3.5613 -2.0977  1.6121
 8716TIP3    H247564   1.380   2.034   4.080  0.3241  0.3564 -1.9782
 8717TIP3   OH247565   0.035   4.580  15.763  0.7575  0.0529  0.0017
 8717TIP3    H147566   0.042   4.485  15.764  1.8874  0.1266 -0.2569
 8717TIP3    H247567   0.041   4.605  15.671 -0.2296  0.3389  0.0010
 8718TIP3   OH247568   0.497   4.348   1.403  0.2021  0.0837  0.5810
 8718TIP3    H147569   0.419   4.396   1.433  0.0185  1.4824 -1.8185
 8718TIP3    H247570   0.519   4.289   1.475 -3.2923 -0.6411  1.2337
 8719TIP3   OH247571   6.634   1.903  12.902  0.3812 -0.1046  0.2039
 8719TIP3    H147572   6.666   1.890  12.991 -2.5995 -1.6142  1.2040
 8719TIP3    H247573   6.604   1.994  12.901 -0.1402 -0.2589  0.9745
 8720TIP3   OH247574   1.097   1.106   1.016 -0.1552  0.2512 -0.0536
 8720TIP3    H147575   1.105   1.011   1.005 -0.4393 -0.2685  3.2148
 8720TIP3    H247576   1.187   1.137   1.025 -0.0943  0.2274 -0.5381
 8721TIP3   OH247577   5.305   1.548   2.118 -0.4354  0.0537 -0.2686
 8721TIP3    H147578   5.251   1.612   2.164 -0.1881 -1.3177  2.0961
 8721TIP3    H247579   5.267   1.463   2.141  0.3952 -0.7596 -1.7376
 8722TIP3   OH247580   6.107   0.839   1.255  0.5730 -0.4021  1.0207
 8722TIP3    H147581   6.138   0.864   1.342  0.4626 -2.7737  1.8021
 8722TIP3    H247582   6.166   0.769   1.227  0.1886 -0.1495 -0.5258
 8723TIP3   OH247583   5.141   2.916   5.529  0.0426  0.2180 -0.1024
 8723TIP3    H147584   5.065   2.959   5.568  0.3634  0.4350  0.2982
 8723TIP3    H247585   5.115   2.824   5.520 -0.9841  0.6505 -1.8464
 8724TIP3   OH247586   1.702   2.928  15.625  0.5596  0.0383  0.4483
 8724TIP3    H147587   1.732   2.877  15.550  0.5508  0.6314  0.0338
 8724TIP3    H247588   1.709   2.868  15.699  2.5162  0.0596  0.3419
 8725TIP3   OH247589   5.014   4.050   4.705  0.4743 -0.5230  0.3389
 8725TIP3    H147590   5.043   4.018   4.791 -1.2728  0.6523  1.4291
 8725TIP3    H247591   5.055   4.136   4.697  1.2157 -0.9309 -0.3601
 8726TIP3   OH247592   1.009   0.169  15.897  0.4438  0.3616  0.9759
 8726TIP3    H147593   0.987   0.143  15.987 -2.3736 -0.2101  0.2440
 8726TIP3    H247594   0.937   0.227  15.871  1.4138  0.8486 -0.7857
 8727TIP3   OH247595   3.497   4.119  13.697 -0.3182 -0.5920  0.0614
 8727TIP3    H147596   3.553   4.071  13.758  0.8201  0.1366 -0.3796
 8727TIP3    H247597   3.502   4.210  13.727 -1.8526 -0.6064  0.4384
 8728TIP3   OH247598   1.851   1.753   4.920  0.1404 -0.0771  0.0889
 8728TIP3    H147599   1.800   1.735   4.841  0.9518 -3.8360  0.2100
 8728TIP3    H247600   1.940   1.726   4.898  0.5705 -0.3090  1.9521
 8729TIP3   OH247601   1.213   2.286   2.902 -0.5630 -0.7621 -0.1510
 8729TIP3    H147602   1.290   2.230   2.915 -0.7207 -0.9225  0.0971
 8729TIP3    H247603   1.167   2.247   2.828 -1.1626 -1.5079  0.5988
 8730TIP3   OH247604   2.237   3.009  13.058 -0.6126 -0.3698  0.8608
 8730TIP3    H147605   2.222   2.968  12.974  0.8542  0.7446 -0.0014
 8730TIP3    H247606   2.170   3.078  13.064  0.8659  1.3137 -0.6756
 8731TIP3   OH247607   5.796   3.555   4.587 -0.3130 -0.4840  0.2516
 8731TIP3    H147608   5.815   3.551   4.681 -0.3530 -0.0145  0.2822
 8731TIP3    H247609   5.876   3.522   4.545 -0.4682 -1.1367  0.4614
 8732TIP3   OH247610   4.203   3.601  11.186  0.1291  0.2707  0.0711
 8732TIP3    H147611   4.142   3.538  11.148  0.8559 -1.8093  2.1086
 8732TIP3    H247612   4.154   3.683  11.190 -1.7324 -0.7678 -0.4365
 8733TIP3   OH247613   2.715   5.815   4.021 -0.4208 -0.5737  0.1168
 8733TIP3    H147614   2.710   5.720   4.037 -0.0471 -0.7385 -0.6720
 8733TIP3    H247615   2.791   5.825   3.964 -1.1790  0.0535 -0.8091
 8734TIP3   OH247616   1.985   1.119  11.737 -0.6169 -0.0952 -0.3373
 8734TIP3    H147617   2.009   1.211  11.725 -0.4784 -0.0132  0.4947
 8734TIP3    H247618   2.036   1.072  11.671 -1.3333  0.5019 -1.3463
 8735TIP3   OH247619   0.594   6.328   6.857 -0.3606  0.0255  0.1704
 8735TIP3    H147620   0.507   6.365   6.872 -0.3015  0.4362 -0.4397
 8735TIP3    H247621   0.578   6.245   6.813 -0.4361  0.3221 -0.3710
 8736TIP3   OH247622   3.145   1.402   0.025 -0.2499 -0.4830 -0.0407
 8736TIP3    H147623   3.075   1.356   0.071 -1.6270  0.5218 -1.0457
 8736TIP3    H247624   3.122   1.395  -0.068  1.1708 -0.4024 -0.4321
 8737TIP3   OH247625   0.884   2.793  11.395 -0.3500 -0.4957 -0.5919
 8737TIP3    H147626   0.918   2.830  11.476  0.6742 -1.6229 -0.4690
 8737TIP3    H247627   0.905   2.859  11.328 -0.6045  0.1427 -0.0488
 8738TIP3   OH247628   1.537   4.372   6.110  0.3886  0.7124 -0.0326
 8738TIP3    H147629   1.539   4.437   6.040  2.6272  0.3550 -0.3686
 8738TIP3    H247630   1.552   4.423   6.190 -0.4536  0.9018  0.0166
 8739TIP3   OH247631   2.214   5.905  16.477  0.5985  0.1063  0.1603
 8739TIP3    H147632   2.126   5.925  16.508  1.3610  0.5484  2.1971
 8739TIP3    H247633   2.218   5.809  16.478 -0.0933  0.0622 -0.6803
 8740TIP3   OH247634   6.089   0.090  17.022  0.1764 -0.2035 -0.1004
 8740TIP3    H147635   6.088   0.102  17.117 -0.8261  2.0453 -0.3183
 8740TIP3    H247636   5.997   0.072  16.999  0.5073 -1.3032 -0.5960
 8741TIP3   OH247637   2.874   6.282   4.759 -0.3485  0.0736  0.1585
 8741TIP3    H147638   2.838   6.337   4.690 -1.6404 -1.0315 -0.1000
 8741TIP3    H247639   2.804   6.277   4.824  0.7913  0.9759  1.5018
 8742TIP3   OH247640   3.424   1.423  11.418 -0.4773 -0.3263  0.0998
 8742TIP3    H147641   3.344   1.370  11.414 -0.2397 -0.7006  0.2610
 8742TIP3    H247642   3.401   1.505  11.373 -1.0189 -0.3394  0.3501
 8743TIP3   OH247643   5.391   1.910  16.853  0.0333 -0.2088  0.2994
 8743TIP3    H147644   5.335   1.975  16.811  0.1292 -1.1039 -1.2860
 8743TIP3    H247645   5.333   1.835  16.870  0.2928 -0.3533  0.5670
 8744TIP3   OH247646   0.366   3.521  14.078 -0.6479 -0.0276 -0.1855
 8744TIP3    H147647   0.343   3.611  14.101  0.8118  0.2985  0.0740
 8744TIP3    H247648   0.335   3.469  14.152 -1.0478  0.3158 -0.1075
 8745TIP3   OH247649   6.234   3.915  13.497 -0.6223  0.1969 -0.0560
 8745TIP3    H147650   6.311   3.859  13.486 -0.3740  0.5825 -0.3260
 8745TIP3    H247651   6.185   3.876  13.570 -0.5093 -0.4262 -0.3151
 8746TIP3   OH247652   6.539   0.669   0.775  0.2549  0.5165  0.0325
 8746TIP3    H147653   6.446   0.690   0.786  0.2578  0.8050 -0.4553
 8746TIP3    H247654   6.546   0.640   0.684  0.3202 -1.2225  0.5449
 8747TIP3   OH247655   3.139   6.067  15.062 -0.0617 -0.0194 -0.1402
 8747TIP3    H147656   3.138   6.044  14.969 -1.8330 -1.9670  0.2794
 8747TIP3    H247657   3.226   6.040  15.092  0.0260 -0.6777 -0.9484
 8748TIP3   OH247658   1.076   1.944   3.502  0.4242  0.4189  0.1187
 8748TIP3    H147659   1.162   1.901   3.510  0.6016  0.8670  0.6793
 8748TIP3    H247660   1.096   2.036   3.486  0.0400  0.3574 -0.7522
 8749TIP3   OH247661   1.377   2.119  17.055 -0.2283 -0.2105  0.4553
 8749TIP3    H147662   1.350   2.164  17.135 -0.3316 -0.3854  0.5205
 8749TIP3    H247663   1.468   2.147  17.041 -0.2125 -0.1739  0.6319
 8750TIP3   OH247664   2.651   4.300   1.104 -0.0616 -0.1836 -0.2042
 8750TIP3    H147665   2.690   4.383   1.134  2.4977 -1.4603  0.2716
 8750TIP3    H247666   2.564   4.299   1.145 -0.7175  2.7688 -1.2146
 8751TIP3   OH247667   3.500   4.261   1.343  0.3534 -0.2056 -0.4432
 8751TIP3    H147668   3.541   4.338   1.305  0.8729 -0.2534  0.0075
 8751TIP3    H247669   3.572   4.198   1.354 -0.2771 -1.2888 -2.1011
 8752TIP3   OH247670   3.319   1.612  14.343  0.0249  0.1434  0.1717
 8752TIP3    H147671   3.273   1.528  14.338  0.3336  0.0121 -0.6006
 8752TIP3    H247672   3.396   1.594  14.397 -1.7234  0.8092  3.1419
 8753TIP3   OH247673   6.068   0.147  14.846 -0.1080  0.5030  0.5811
 8753TIP3    H147674   6.106   0.162  14.932  0.2862  0.0069  0.5015
 8753TIP3    H247675   6.144   0.133  14.788 -0.3836  0.2176  0.2796
 8754TIP3   OH247676   2.034   5.666  16.358 -0.3854  0.0691 -0.2518
 8754TIP3    H147677   2.093   5.628  16.424 -0.1414  1.6659  0.4874
 8754TIP3    H247678   1.947   5.639  16.386 -0.2387  0.2425  0.3932
 8755TIP3   OH247679   2.115   1.499   1.873 -0.4543 -0.3805 -0.0427
 8755TIP3    H147680   2.115   1.594   1.866 -0.9565 -0.4221 -0.7139
 8755TIP3    H247681   2.059   1.470   1.801 -0.3020 -1.1822  0.1556
 8756TIP3   OH247682   5.978   6.218   0.942  0.1070 -0.1684  0.3050
 8756TIP3    H147683   6.050   6.157   0.958 -0.2405 -0.1000  2.5228
 8756TIP3    H247684   5.961   6.256   1.028 -2.3667  0.0574 -0.2351
 8757TIP3   OH247685   0.396   1.647  15.708  0.0287 -0.4564 -0.1936
 8757TIP3    H147686   0.470   1.591  15.685  0.7051  0.4518 -0.2804
 8757TIP3    H247687   0.407   1.665  15.801  1.2800  1.5680 -0.6589
 8758TIP3   OH247688   0.683   2.523  16.754  0.1536  0.3875 -0.1081
 8758TIP3    H147689   0.662   2.574  16.676  0.3346  1.8044  0.7337
 8758TIP3    H247690   0.737   2.582  16.807 -0.1388 -0.4746  1.1851
 8759TIP3   OH247691   0.154   0.723   2.309 -0.3467  0.8495 -0.1242
 8759TIP3    H147692   0.161   0.628   2.300  0.3863  0.7032  1.6729
 8759TIP3    H247693   0.233   0.757   2.266 -0.4361  0.6433 -0.4601
 8760TIP3   OH247694   3.278   4.801   5.956 -0.2790 -0.5524 -0.2748
 8760TIP3    H147695   3.308   4.740   5.890 -1.3790 -1.2060 -0.1908
 8760TIP3    H247696   3.269   4.885   5.910  0.3342 -0.6667 -0.6046
 8761TIP3   OH247697   3.414   5.500   1.869  0.2208 -0.5200  0.7339
 8761TIP3    H147698   3.333   5.492   1.919 -1.4551  2.5952 -1.1384
 8761TIP3    H247699   3.458   5.576   1.906  0.1019  0.4056 -0.8945
 8762TIP3   OH247700   4.085   4.952  13.529 -0.1505  0.1470  0.3026
 8762TIP3    H147701   4.016   4.886  13.543 -1.1825  1.1909  0.3298
 8762TIP3    H247702   4.155   4.904  13.484 -0.6480 -1.0842  0.7813
 8763TIP3   OH247703   2.453   1.410   0.229  0.6364  0.3473 -0.0035
 8763TIP3    H147704   2.461   1.339   0.292 -0.3923  1.9331  2.0323
 8763TIP3    H247705   2.479   1.371   0.145  1.5643 -1.9772  1.2792
 8764TIP3   OH247706   2.105   3.743  13.148 -0.2453  0.4198 -0.0004
 8764TIP3    H147707   2.163   3.775  13.079  0.0691  0.1454  0.1292
 8764TIP3    H247708   2.137   3.785  13.228  0.8194 -0.9548  0.3432
 8765TIP3   OH247709   6.267   0.923  16.938  0.0762  0.1173  0.0389
 8765TIP3    H147710   6.191   0.864  16.944 -0.6811  1.2197  2.2258
 8765TIP3    H247711   6.230   1.011  16.945  1.5466  0.6715  1.5149
 8766TIP3   OH247712   2.944   1.972   3.439  0.2509  0.1283  0.1386
 8766TIP3    H147713   3.013   1.908   3.422  0.3752  0.7124 -1.8462
 8766TIP3    H247714   2.960   2.042   3.375 -0.6610  1.5192  1.3606
 8767TIP3   OH247715   3.263   6.016   2.285  0.4582  0.3990 -0.4049
 8767TIP3    H147716   3.180   5.973   2.307  1.3351 -1.6911 -0.9474
 8767TIP3    H247717   3.272   6.085   2.351 -2.7857  2.3054 -1.6911
 8768TIP3   OH247718   2.632   3.107   2.883 -0.3186 -0.3194  0.0595
 8768TIP3    H147719   2.587   3.027   2.909 -0.4442 -0.1803  0.2739
 8768TIP3    H247720   2.668   3.142   2.965  0.0121 -0.3268 -0.0819
 8769TIP3   OH247721   1.353   4.033  13.010  0.0541  0.3641 -0.2863
 8769TIP3    H147722   1.295   3.957  13.001  1.8240 -0.9071 -1.7720
 8769TIP3    H247723   1.337   4.066  13.099 -2.5836 -0.1695 -0.4973
 8770TIP3   OH247724   4.747   1.899  14.834 -0.2597 -0.0839 -0.0940
 8770TIP3    H147725   4.752   1.838  14.907 -0.6194  1.4118  1.2409
 8770TIP3    H247726   4.745   1.986  14.875  0.2187  0.8413 -1.9066
 8771TIP3   OH247727   0.225   6.701   3.590  0.1733 -0.1362 -0.1028
 8771TIP3    H147728   0.161   6.639   3.625 -0.1658 -0.4599 -1.2640
 8771TIP3    H247729   0.306   6.650   3.583  0.5185  0.2096  1.1434
 8772TIP3   OH247730   5.112   0.689  12.229 -0.2040 -0.2635  0.2351
 8772TIP3    H147731   5.141   0.688  12.137 -2.2425 -0.3469 -0.4503
 8772TIP3    H247732   5.101   0.597  12.252 -3.4340 -0.2732 -0.7852
 8773TIP3   OH247733   5.450   2.410  15.261 -0.2688  0.2668 -0.8330
 8773TIP3    H147734   5.444   2.488  15.206  1.0335  1.2197  0.3285
 8773TIP3    H247735   5.365   2.405  15.305  0.4836  2.5757  1.0537
 8774TIP3   OH247736   6.556   5.624  11.624  0.2010  0.0963  0.3829
 8774TIP3    H147737   6.638   5.665  11.598  0.3879  0.9678  2.2169
 8774TIP3    H247738   6.566   5.532  11.599  1.4583  0.3316 -0.0281
 8775TIP3   OH247739   0.657   5.140  14.028 -0.3945 -0.0687  0.3324
 8775TIP3    H147740   0.689   5.191  14.103 -0.2519  0.0037  0.2239
 8775TIP3    H247741   0.651   5.050  14.061 -1.7870  0.2020  0.8842
 8776TIP3   OH247742   4.024   0.373  16.230 -0.3433  0.0937 -0.4619
 8776TIP3    H147743   3.932   0.377  16.255 -0.6217 -0.0371 -1.4521
 8776TIP3    H247744   4.070   0.360  16.313 -1.5167 -4.5151 -0.2808
 8777TIP3   OH247745   6.192   4.737   2.697 -0.1202  0.7084 -0.4102
 8777TIP3    H147746   6.225   4.760   2.783  0.1023 -0.3875 -0.1833
 8777TIP3    H247747   6.167   4.644   2.704  0.4536  0.4286 -1.6723
 8778TIP3   OH247748   2.425   1.130   4.147  0.5647  0.1136 -0.4893
 8778TIP3    H147749   2.497   1.083   4.190  0.0393 -1.5520 -1.3562
 8778TIP3    H247750   2.464   1.213   4.121  1.9519 -0.4040 -0.1815
 8779TIP3   OH247751   3.724   6.040  16.877 -0.6294 -0.7169 -0.1599
 8779TIP3    H147752   3.729   6.102  16.950  1.6444  0.0130 -0.8736
 8779TIP3    H247753   3.661   6.079  16.817 -1.1592 -0.4185  0.5707
 8780TIP3   OH247754   0.555   6.418   4.196  0.2620 -0.0407 -0.4795
 8780TIP3    H147755   0.617   6.359   4.154 -0.5143 -0.5693 -0.9057
 8780TIP3    H247756   0.597   6.444   4.277  0.5914 -1.2376 -0.2544
 8781TIP3   OH247757   0.475   5.968  13.855  0.6874 -0.0078  0.0414
 8781TIP3    H147758   0.492   5.997  13.945 -1.9105 -1.9359  1.2862
 8781TIP3    H247759   0.395   5.917  13.861 -0.3079  0.8240 -3.6421
 8782TIP3   OH247760   6.325   4.905   3.795 -0.1384  0.3019  0.0883
 8782TIP3    H147761   6.416   4.876   3.787 -0.1928  0.3874 -0.9331
 8782TIP3    H247762   6.273   4.837   3.752 -0.4503  0.8351 -0.3950
 8783TIP3   OH247763   5.761   2.850  17.268  0.0883  0.5774  0.2005
 8783TIP3    H147764   5.814   2.889  17.337  1.4531 -0.2233 -0.3476
 8783TIP3    H247765   5.685   2.908  17.259 -0.3938  0.4319  2.6974
 8784TIP3   OH247766   4.376   1.145  13.886  0.0883 -0.1500 -0.3445
 8784TIP3    H147767   4.306   1.146  13.952 -0.3057  0.4442 -0.7615
 8784TIP3    H247768   4.330   1.129  13.803  0.4865 -0.0866 -0.5769
 8785TIP3   OH247769   2.779   6.358   1.658  0.5620 -0.3573  0.6303
 8785TIP3    H147770   2.756   6.445   1.625 -1.7073 -0.9833  0.3987
 8785TIP3    H247771   2.842   6.325   1.594 -0.1640  0.3127 -0.4737
 8786TIP3   OH247772   2.044   6.107  15.789 -0.3892 -0.0389 -0.2042
 8786TIP3    H147773   2.040   6.023  15.835  2.0164 -0.3399 -0.4364
 8786TIP3    H247774   2.018   6.085  15.699  0.0060 -0.4962 -0.2115
 8787TIP3   OH247775   6.411   2.700  15.303 -0.7986 -0.2848  0.4849
 8787TIP3    H147776   6.325   2.741  15.292 -0.8212 -0.4273  0.1232
 8787TIP3    H247777   6.474   2.769  15.279 -0.7759  0.1261  1.6706
 8788TIP3   OH247778   5.921   4.989   0.686  0.4120 -0.4625 -0.1015
 8788TIP3    H147779   5.873   4.908   0.667  3.0007 -2.3484  0.9137
 8788TIP3    H247780   5.954   4.977   0.775  0.8772  1.7633  0.0854
 8789TIP3   OH247781   3.582   0.201   0.327 -0.2707  0.6230  0.0917
 8789TIP3    H147782   3.625   0.148   0.394 -2.3401 -0.3715  0.7235
 8789TIP3    H247783   3.523   0.258   0.376  0.5139  2.1752 -0.7207
 8790TIP3   OH247784   1.557   4.470  14.770  0.0577 -0.4340  0.0993
 8790TIP3    H147785   1.574   4.555  14.729  0.2858 -0.5809 -0.1206
 8790TIP3    H247786   1.594   4.478  14.858 -2.7963  0.7962  1.2832
 8791TIP3   OH247787   4.088   5.961   4.355  0.0147  0.2720  0.0807
 8791TIP3    H147788   4.005   6.004   4.331  0.5878  0.7640 -1.1570
 8791TIP3    H247789   4.116   6.005   4.435  1.3593  3.4549 -1.9521
 8792TIP3   OH247790   2.900   6.219   4.081 -0.0366 -0.5474  0.4054
 8792TIP3    H147791   2.917   6.266   4.162 -0.9026 -0.6276  0.6420
 8792TIP3    H247792   2.874   6.131   4.110  1.0336 -1.0276 -0.0111
 8793TIP3   OH247793   4.052   3.233   2.752  0.1810 -0.0011 -0.2179
 8793TIP3    H147794   3.999   3.199   2.825 -0.0201  0.4985 -0.1224
 8793TIP3    H247795   3.994   3.227   2.676  0.1396  0.1440 -0.1977
 8794TIP3   OH247796   5.456   1.176  13.050 -0.0076  0.9611 -0.1813
 8794TIP3    H147797   5.441   1.256  12.999  1.5174  0.9779 -0.6634
 8794TIP3    H247798   5.547   1.154  13.032 -0.2539 -0.6023  0.3645
 8795TIP3   OH247799   4.080   1.887   1.693  0.3192  0.5579  0.2296
 8795TIP3    H147800   4.159   1.837   1.714  0.2286  0.6939  0.9263
 8795TIP3    H247801   4.010   1.844   1.743 -0.3028 -0.3128 -1.3100
 8796TIP3   OH247802   0.141   4.786   5.477 -0.4177 -0.1738  0.2405
 8796TIP3    H147803   0.152   4.743   5.562  0.0748 -0.8663 -0.1593
 8796TIP3    H247804   0.130   4.879   5.498 -1.1367 -0.4349  1.1037
 8797TIP3   OH247805   6.045   4.783   2.421 -0.1242  0.2304  0.1809
 8797TIP3    H147806   5.952   4.805   2.428 -0.2782 -0.1096 -0.6080
 8797TIP3    H247807   6.078   4.785   2.510 -0.6025  1.6069  0.3423
 8798TIP3   OH247808   1.912   1.261  14.499 -0.1834  0.2479  0.4621
 8798TIP3    H147809   1.901   1.296  14.411  0.7053  0.4625  0.4307
 8798TIP3    H247810   1.823   1.255  14.534 -0.5125  0.4671 -0.3275
 8799TIP3   OH247811   6.559   1.201  17.127 -0.6370 -0.1166 -0.2425
 8799TIP3    H147812   6.565   1.107  17.114  0.8123  0.1813 -2.1683
 8799TIP3    H247813   6.567   1.238  17.039  2.8135  1.9274  0.7467
 8800TIP3   OH247814   1.053   0.306   0.268  0.0009  0.1204 -0.9605
 8800TIP3    H147815   1.111   0.381   0.282 -0.7045  0.7269 -1.2195
 8800TIP3    H247816   1.036   0.306   0.174  0.1684 -0.5042 -0.9968
 8801TIP3   OH247817   5.506   1.465  17.308  0.1613  0.2862  0.0580
 8801TIP3    H147818   5.552   1.440  17.389 -0.8250  1.7953  1.1515
 8801TIP3    H247819   5.488   1.382  17.264 -0.9914 -0.8172  2.3833
 8802TIP3   OH247820   3.266   0.440  15.350  0.0155  0.0428 -0.2666
 8802TIP3    H147821   3.271   0.515  15.292 -1.0361  1.3160  1.2054
 8802TIP3    H247822   3.348   0.442  15.400 -0.4718  0.8746  0.5181
 8803TIP3   OH247823   2.967   6.726   4.210  0.6428 -0.5426 -0.0690
 8803TIP3    H147824   2.900   6.788   4.238  0.6643 -0.9599  0.9569
 8803TIP3    H247825   2.938   6.696   4.123  0.5712  0.7903 -0.5267
 8804TIP3   OH247826   6.420   3.509  16.770  0.0189  0.3175  0.2293
 8804TIP3    H147827   6.358   3.561  16.719 -0.4274  1.2104  1.6042
 8804TIP3    H247828   6.476   3.574  16.813 -1.3162 -0.1861  2.9558
 8805TIP3   OH247829   6.646   2.183   5.005  0.3356  0.2897  0.1625
 8805TIP3    H147830   6.571   2.130   5.032 -0.1749  1.1521  0.4656
 8805TIP3    H247831   6.627   2.206   4.914 -0.3606  1.4806  0.5868
 8806TIP3   OH247832   0.154   2.957   3.801  0.3039  0.7198  0.0491
 8806TIP3    H147833   0.172   3.045   3.835  0.4650  1.3069 -1.4732
 8806TIP3    H247834   0.233   2.934   3.751 -0.2240  0.2166 -0.5700
 8807TIP3   OH247835   3.760   5.415  13.155 -0.4786  0.3530 -0.3348
 8807TIP3    H147836   3.695   5.475  13.119 -2.0476 -0.4637  0.9765
 8807TIP3    H247837   3.834   5.471  13.178 -1.5511  1.6842  0.0587
 8808TIP3   OH247838   5.040   4.380  15.492  0.2709  0.3482 -0.0361
 8808TIP3    H147839   5.065   4.378  15.399 -0.5343  2.0071 -0.3257
 8808TIP3    H247840   5.103   4.323  15.535  1.1158  0.1272 -1.5047
 8809TIP3   OH247841   3.368   1.717   0.688  0.0066 -0.3804  0.6931
 8809TIP3    H147842   3.443   1.743   0.742  0.7344 -1.9027  0.4458
 8809TIP3    H247843   3.321   1.799   0.673  1.8747  0.7036  0.4558
 8810TIP3   OH247844   0.779   1.471   3.259 -0.2335 -0.8407 -0.0640
 8810TIP3    H147845   0.726   1.547   3.235 -0.0598 -0.3581  1.0252
 8810TIP3    H247846   0.775   1.467   3.355  0.8067 -1.4432 -0.0230
 8811TIP3   OH247847   5.370   0.318   2.264  0.0285 -0.1823  0.1717
 8811TIP3    H147848   5.324   0.262   2.326  1.0486  0.5733  1.6828
 8811TIP3    H247849   5.310   0.392   2.249 -0.5403 -0.7434 -0.3705
 8812TIP3   OH247850   3.625   5.103  15.006 -0.1061 -0.6667 -0.1848
 8812TIP3    H147851   3.537   5.078  14.978 -0.4506  1.4226 -1.2043
 8812TIP3    H247852   3.674   5.113  14.924  0.7383 -0.6600  0.3092
 8813TIP3   OH247853   6.535   4.274   5.062 -0.6284 -0.1295  0.0269
 8813TIP3    H147854   6.628   4.251   5.071  0.0645  1.7800 -1.5773
 8813TIP3    H247855   6.489   4.202   5.105  1.5834 -1.0334  1.0823
 8814TIP3   OH247856   4.748   3.882   1.540  0.0448 -0.4706  0.2700
 8814TIP3    H147857   4.674   3.870   1.481  0.7548 -0.6605 -0.5994
 8814TIP3    H247858   4.708   3.897   1.626 -0.9899 -1.3384 -0.0352
 8815TIP3   OH247859   6.675   5.383  11.530  0.0880 -0.5017  0.4419
 8815TIP3    H147860   6.769   5.381  11.545  0.1771  0.6735  0.1474
 8815TIP3    H247861   6.663   5.332  11.449  1.0153  2.5818 -1.8304
 8816TIP3   OH247862   5.673   1.643   4.154  0.4992  0.0271  0.2275
 8816TIP3    H147863   5.641   1.585   4.086  1.1457 -1.3654  1.0509
 8816TIP3    H247864   5.595   1.672   4.201  0.0964  0.6306 -0.8019
 8817TIP3   OH247865   4.410   3.714  14.928  0.3525  0.5655  0.0134
 8817TIP3    H147866   4.486   3.683  14.880  0.6401  0.4830  0.5147
 8817TIP3    H247867   4.446   3.751  15.009 -0.2098 -0.4660  0.7572
 8818TIP3   OH247868   2.746   3.714   3.869  0.0157 -0.2804  0.6641
 8818TIP3    H147869   2.702   3.668   3.940 -2.8765  0.8790 -0.2281
 8818TIP3    H247870   2.761   3.802   3.902  1.7718 -0.6323  0.9304
 8819TIP3   OH247871   0.573   2.363  14.837 -0.4522  0.0616  0.5211
 8819TIP3    H147872   0.654   2.336  14.794 -0.7094 -0.4151  0.3198
 8819TIP3    H247873   0.577   2.324  14.924  0.4332  1.6819  1.2606
 8820TIP3   OH247874   2.942   5.481   4.882 -0.4093 -0.5326  0.0780
 8820TIP3    H147875   2.946   5.575   4.900 -0.1006 -0.2905 -1.1754
 8820TIP3    H247876   3.013   5.466   4.820  0.3108 -1.8246  1.1542
 8821TIP3   OH247877   5.362   1.100  16.159  0.3803  0.2517 -0.2183
 8821TIP3    H147878   5.379   1.020  16.208 -1.6291 -0.1245 -0.0488
 8821TIP3    H247879   5.419   1.165  16.199  0.9438 -0.7360  0.6360
 8822TIP3   OH247880   0.052   1.768  15.901 -0.3159  0.5362  0.1046
 8822TIP3    H147881   0.008   1.713  15.837 -1.7840  1.2299  0.4667
 8822TIP3    H247882   0.114   1.710  15.945  0.4394 -0.0320 -1.6496
 8823TIP3   OH247883   3.079   3.516  12.986 -0.4513 -0.1221 -0.2217
 8823TIP3    H147884   3.173   3.514  12.999 -0.5081  0.0167  0.2243
 8823TIP3    H247885   3.062   3.599  12.942 -0.2583 -0.5958 -1.2370
 8824TIP3   OH247886   5.646   2.237   0.671 -0.2271  0.4085 -0.2433
 8824TIP3    H147887   5.699   2.317   0.674 -0.6451  0.9138 -3.0898
 8824TIP3    H247888   5.707   2.168   0.646 -0.0541  0.0032  1.2354
 8825TIP3   OH247889   1.986   4.752  11.355  0.0955 -0.3477 -1.0598
 8825TIP3    H147890   2.045   4.743  11.280  1.8392  0.4803  0.1419
 8825TIP3    H247891   2.024   4.696  11.423 -0.5715  0.1005 -0.2978
 8826TIP3   OH247892   1.186   2.597  11.646 -0.0673 -0.1842  0.0841
 8826TIP3    H147893   1.207   2.661  11.578  1.2521 -0.8776 -0.2069
 8826TIP3    H247894   1.271   2.570  11.680 -0.6687 -0.5613  1.3630
 8827TIP3   OH247895   1.991   4.535   5.838  0.0403  0.5604 -0.4990
 8827TIP3    H147896   1.974   4.624   5.807  0.8857  0.9415  0.0795
 8827TIP3    H247897   2.007   4.485   5.759 -0.3126  0.9520 -0.8247
 8828TIP3   OH247898   2.147   2.437  13.816 -0.1842  0.5074 -0.0764
 8828TIP3    H147899   2.183   2.359  13.775 -1.4782  0.0427 -0.3850
 8828TIP3    H247900   2.137   2.413  13.908  2.4932  1.4682  0.5480
 8829TIP3   OH247901   3.447   1.471  11.729 -0.1454  0.3710 -0.1653
 8829TIP3    H147902   3.496   1.418  11.792 -0.3847 -0.4158 -0.6163
 8829TIP3    H247903   3.444   1.417  11.650 -0.0881  1.2233 -0.7629
 8830TIP3   OH247904   4.550   3.407  14.102 -0.6107  0.3047 -0.5272
 8830TIP3    H147905   4.626   3.459  14.128  0.0084 -0.7678 -0.1216
 8830TIP3    H247906   4.499   3.398  14.182  0.3833 -1.4876 -0.0401
 8831TIP3   OH247907   4.756   6.632   3.311  0.6158  0.3278  0.2423
 8831TIP3    H147908   4.710   6.652   3.229 -1.4499  0.7939  1.4313
 8831TIP3    H247909   4.732   6.541   3.330  0.6674  0.3841  0.5800
 8832TIP3   OH247910   4.814   5.532  15.417 -0.3586 -0.2837 -0.1111
 8832TIP3    H147911   4.783   5.456  15.368 -2.6255  1.3103 -1.3791
 8832TIP3    H247912   4.813   5.504  15.509 -2.3480 -1.4489 -0.4319
 8833TIP3   OH247913   2.600   4.295  16.964 -0.1896 -0.3094  0.1148
 8833TIP3    H147914   2.648   4.240  17.026 -1.6065 -0.0214  1.5075
 8833TIP3    H247915   2.648   4.378  16.965 -0.7078 -0.0089  1.5271
 8834TIP3   OH247916   2.075   6.490  14.257 -0.3757  0.2277 -0.1012
 8834TIP3    H147917   2.094   6.396  14.266  1.9805  0.5855 -0.5851
 8834TIP3    H247918   2.115   6.530  14.335 -0.8532  0.8936 -0.1906
 8835TIP3   OH247919   4.731   3.515   2.645 -0.6867  0.1383  0.3140
 8835TIP3    H147920   4.732   3.610   2.632 -0.6026  0.3124  1.4679
 8835TIP3    H247921   4.689   3.481   2.566  1.5179  0.8992 -1.3062
 8836TIP3   OH247922   3.120   0.798   5.514 -0.1232 -0.3010  0.0259
 8836TIP3    H147923   3.040   0.848   5.504 -0.1041  0.2507  2.0825
 8836TIP3    H247924   3.143   0.808   5.607  1.5611 -1.5876 -0.1972
 8837TIP3   OH247925   1.248   0.738   3.981  0.0052  0.3337  0.4613
 8837TIP3    H147926   1.278   0.715   4.069 -1.9120 -0.4807  0.9516
 8837TIP3    H247927   1.189   0.667   3.956 -0.8299  1.3984 -0.7714
 8838TIP3   OH247928   5.037   1.345  14.562  0.3276  0.5506  0.5839
 8838TIP3    H147929   5.122   1.361  14.522 -1.8024  2.5625 -3.8484
 8838TIP3    H247930   5.018   1.253  14.541  0.9243  0.4134  0.6234
 8839TIP3   OH247931   0.697   1.666   3.457 -0.0239 -0.1675  0.3689
 8839TIP3    H147932   0.764   1.603   3.485  0.2158  0.6585  1.7595
 8839TIP3    H247933   0.614   1.626   3.483  0.0671 -0.3422  0.3912
 8840TIP3   OH247934   5.991   1.902   2.626 -0.3369 -0.5696  0.4377
 8840TIP3    H147935   6.029   1.975   2.674 -0.4976  0.2194 -0.6059
 8840TIP3    H247936   6.015   1.918   2.535 -2.4964 -0.4470 -0.1729
 8841TIP3   OH247937   5.961   2.156   4.405  0.0213  0.4855 -0.4598
 8841TIP3    H147938   5.879   2.203   4.391  0.0028  0.1200 -1.6949
 8841TIP3    H247939   6.019   2.188   4.335 -0.0787 -1.4615 -1.5076
 8842TIP3   OH247940   0.969   0.531  11.666  0.0992 -0.1001  0.3871
 8842TIP3    H147941   0.989   0.538  11.573 -0.0123  0.7039  0.4172
 8842TIP3    H247942   0.993   0.441  11.689  1.7989  0.2017 -0.0323
 8843TIP3   OH247943   3.424   3.518   5.597  0.0742  0.6145  0.3617
 8843TIP3    H147944   3.378   3.490   5.677 -0.9144  0.3918 -0.2706
 8843TIP3    H247945   3.502   3.463   5.595  0.3516  0.9422  1.4134
 8844TIP3   OH247946   1.284   2.687   1.771 -0.0978 -0.2610  0.2677
 8844TIP3    H147947   1.347   2.758   1.760 -0.8312  0.3929  0.1236
 8844TIP3    H247948   1.311   2.642   1.851 -0.4543  1.1002  1.2001
 8845TIP3   OH247949   2.541   5.303   1.820  0.0298 -0.1956  0.0907
 8845TIP3    H147950   2.510   5.318   1.730  0.7822  1.0099  0.0103
 8845TIP3    H247951   2.465   5.266   1.865 -0.3532 -0.8541 -1.0373
 8846TIP3   OH247952   4.733   1.398  14.717 -0.3124  0.2324 -0.4805
 8846TIP3    H147953   4.751   1.306  14.736  2.1041  0.6065 -0.7390
 8846TIP3    H247954   4.803   1.447  14.760 -1.9244  2.0749  0.2639
 8847TIP3   OH247955   4.086   6.603   5.631  0.0050 -0.3053 -0.1961
 8847TIP3    H147956   3.996   6.623   5.606  0.2853  1.6017  0.1401
 8847TIP3    H247957   4.140   6.662   5.577  0.9354 -0.2140  0.7873
 8848TIP3   OH247958   3.207   1.207  11.643  0.3636  0.7192 -0.3487
 8848TIP3    H147959   3.286   1.154  11.646 -0.5084 -0.5783  0.5872
 8848TIP3    H247960   3.210   1.259  11.723 -1.0154 -1.3449  1.1539
 8849TIP3   OH247961   0.419   5.306  16.692  0.1737 -0.0491  0.3976
 8849TIP3    H147962   0.354   5.275  16.629  1.9498  0.3172 -1.7313
 8849TIP3    H247963   0.471   5.229  16.714 -0.5030 -0.1981  1.5544
 8850TIP3   OH247964   3.414   1.430  16.726 -0.6775 -0.6734  0.1785
 8850TIP3    H147965   3.325   1.464  16.713  0.4954  2.7102  0.0166
 8850TIP3    H247966   3.452   1.487  16.792  1.3501 -2.1727  0.3955
 8851TIP3   OH247967   5.613   2.053  16.979  0.4482 -0.5486  0.2136
 8851TIP3    H147968   5.526   2.026  16.948  0.4347 -0.5504  0.2535
 8851TIP3    H247969   5.647   2.107  16.908  0.0429  0.2076  0.5840
 8852TIP3   OH247970   1.733   4.081  14.920  0.1712 -0.4852 -0.7258
 8852TIP3    H147971   1.681   4.004  14.943  0.2957 -0.4661 -0.3709
 8852TIP3    H247972   1.729   4.085  14.825  0.4418 -1.1294 -0.7721
 8853TIP3   OH247973   2.345   2.638  11.832  0.3554  0.0139  0.3037
 8853TIP3    H147974   2.255   2.631  11.863 -0.6121 -0.8903 -2.4741
 8853TIP3    H247975   2.392   2.569  11.880 -1.2402 -1.8751 -0.7052
 8854TIP3   OH247976   5.466   2.846  13.421 -0.1658 -0.3100  0.3606
 8854TIP3    H147977   5.489   2.783  13.488 -0.8090 -0.0633  0.8265
 8854TIP3    H247978   5.545   2.857  13.369  0.6371  0.2074  1.6592
 8855TIP3   OH247979   6.444   3.364   2.313  0.1035 -0.2433 -0.1639
 8855TIP3    H147980   6.373   3.302   2.328 -0.0649 -0.4460 -1.6495
 8855TIP3    H247981   6.510   3.315   2.265  0.0394  0.6506 -1.2127
 8856TIP3   OH247982   6.186   6.364  13.150 -0.5442 -0.0696  0.1295
 8856TIP3    H147983   6.146   6.383  13.235  0.0960 -1.6396  0.8408
 8856TIP3    H247984   6.125   6.303  13.108 -0.1461 -0.4855  0.1386
 8857TIP3   OH247985   1.377   4.117  11.460  0.5163 -0.4391 -0.5476
 8857TIP3    H147986   1.453   4.067  11.427  0.8981 -0.8773  0.9205
 8857TIP3    H247987   1.325   4.052  11.507  1.7300  0.7284  2.6324
 8858TIP3   OH247988   0.863   2.582   6.008  0.5644  0.4311 -0.3400
 8858TIP3    H147989   0.933   2.605   6.070 -0.3009 -0.0415  0.8481
 8858TIP3    H247990   0.789   2.637   6.034 -1.4524 -3.1110  2.3409
 8859TIP3   OH247991   4.085   1.425   0.581 -0.0156  0.0572  0.5117
 8859TIP3    H147992   4.149   1.492   0.607  1.6394 -0.7339 -1.3216
 8859TIP3    H247993   4.087   1.362   0.654  0.3116  0.7100  1.0857
 8860TIP3   OH247994   5.596   2.822  14.901  0.0508  0.2585 -0.1455
 8860TIP3    H147995   5.528   2.865  14.849  0.1601  1.5837  0.7728
 8860TIP3    H247996   5.549   2.756  14.952  0.0009 -1.3968 -2.1888
 8861TIP3   OH247997   3.304   1.080  14.164  0.0361 -0.3246  0.9535
 8861TIP3    H147998   3.244   1.104  14.234 -0.2073 -1.2355  1.0722
 8861TIP3    H247999   3.383   1.051  14.208  1.0512  1.9371  0.7880
 8862TIP3   OH248000   2.638   5.942   4.650 -0.2627  0.0243  0.6401
 8862TIP3    H148001   2.644   5.856   4.691  3.4536  0.1562  0.6901
 8862TIP3    H248002   2.667   6.004   4.717  2.1563  0.6563 -0.8566
 8863TIP3   OH248003   0.548   6.664  12.342 -0.3432 -0.1862  0.8769
 8863TIP3    H148004   0.473   6.617  12.378 -0.4680 -0.7252 -0.0609
 8863TIP3    H248005   0.592   6.600  12.286  2.1318 -0.6229  3.1163
 8864TIP3   OH248006   6.262   5.277  14.876 -0.4205  0.4644  0.1662
 8864TIP3    H148007   6.315   5.212  14.923 -0.6118 -0.3705 -0.7439
 8864TIP3    H248008   6.180   5.232  14.856 -1.1664  1.4729  0.8134
 8865TIP3   OH248009   6.729   5.624  13.909  0.1735  0.3926  0.0790
 8865TIP3    H148010   6.677   5.684  13.962  0.3156 -0.1339  0.8256
 8865TIP3    H248011   6.809   5.673  13.890  0.8889 -0.0013  1.8369
 8866TIP3   OH248012   4.167   6.245  12.854 -0.0516 -0.5571  0.1192
 8866TIP3    H148013   4.146   6.338  12.863  2.3348 -0.0895  2.0309
 8866TIP3    H248014   4.204   6.237  12.766 -1.6006 -0.0447 -0.6162
 8867TIP3   OH248015   2.737   4.372   6.425  0.0566 -0.0634 -0.4608
 8867TIP3    H148016   2.643   4.354   6.419 -0.1009  0.2618  0.8316
 8867TIP3    H248017   2.766   4.376   6.334 -1.2812  0.3641 -0.8893
 8868TIP3   OH248018   3.604   3.327   5.689  0.2536  0.2276 -0.4375
 8868TIP3    H148019   3.639   3.370   5.767  0.2709 -0.6447  0.0433
 8868TIP3    H248020   3.578   3.240   5.719  3.8525 -1.6472 -2.1441
 8869TIP3   OH248021   4.649   5.236   4.189  0.0324 -0.6989 -0.0642
 8869TIP3    H148022   4.713   5.250   4.258 -0.8695  0.2036  0.6260
 8869TIP3    H248023   4.574   5.290   4.215 -0.8311 -1.3726 -1.0721
 8870TIP3   OH248024   4.484   2.658  16.816 -0.4100 -0.3099 -0.8597
 8870TIP3    H148025   4.439   2.579  16.844  1.6218 -0.7818  1.4236
 8870TIP3    H248026   4.494   2.709  16.897 -0.2747  1.5421 -2.0008
 8871TIP3   OH248027   5.650   4.509   3.275 -0.1269  0.2079 -0.1066
 8871TIP3    H148028   5.716   4.524   3.207  1.2104 -0.1470  1.0614
 8871TIP3    H248029   5.687   4.550   3.354  0.1656 -2.6264  1.3473
 8872TIP3   OH248030   1.092   0.315  15.144 -0.1412  0.0888 -0.8096
 8872TIP3    H148031   1.033   0.244  15.119 -1.0624  0.7166 -0.4329
 8872TIP3    H248032   1.040   0.395  15.135  0.4001  0.5859  0.2804
 8873TIP3   OH248033   6.031   5.223  13.935  0.4734  0.3071 -0.1656
 8873TIP3    H148034   6.102   5.207  13.873 -0.7900  1.1551 -1.9074
 8873TIP3    H248035   5.969   5.277  13.887 -0.9129  0.3987  1.6287
 8874TIP3   OH248036   3.071   5.809  11.967 -0.1038 -0.4469 -0.2254
 8874TIP3    H148037   3.157   5.768  11.958 -0.1729 -0.7654  0.5426
 8874TIP3    H248038   3.084   5.899  11.935  0.2849 -0.7605 -0.9765
 8875TIP3   OH248039   4.166   0.334  16.466 -0.6486 -0.0649  0.3403
 8875TIP3    H148040   4.242   0.387  16.442 -2.0120  1.1681 -1.4920
 8875TIP3    H248041   4.203   0.248  16.487  1.2641  0.5620 -0.2282
 8876TIP3   OH248042   3.960   0.652  16.509  0.3369  0.2597 -0.0434
 8876TIP3    H148043   3.968   0.654  16.413 -0.0769  1.7411 -0.0724
 8876TIP3    H248044   3.925   0.565  16.529 -1.2127  0.5290 -1.3866
 8877TIP3   OH248045   6.401   1.511  16.352  0.2355  0.1420  0.3410
 8877TIP3    H148046   6.355   1.440  16.399  1.3035 -0.0123  1.1884
 8877TIP3    H248047   6.341   1.534  16.281 -1.2823  0.1061  1.5312
 8878TIP3   OH248048   3.902   1.902  11.549 -0.2435  0.0503 -0.2558
 8878TIP3    H148049   3.893   1.861  11.464  1.9061  1.0076 -1.0190
 8878TIP3    H248050   3.896   1.996  11.532  0.6807  0.2783  0.5424
 8879TIP3   OH248051   5.049   0.056   1.411  0.4357 -0.0254 -0.2853
 8879TIP3    H148052   5.038   0.151   1.413  0.7713  0.0126 -0.1322
 8879TIP3    H248053   4.960   0.021   1.419  0.2627  0.2761 -0.8357
 8880TIP3   OH248054   0.541   3.785  12.475 -0.2191 -0.2021 -0.5294
 8880TIP3    H148055   0.586   3.762  12.556  0.4086 -0.6924 -0.9985
 8880TIP3    H248056   0.482   3.856  12.499  0.8016  0.4633  0.1255
 8881TIP3   OH248057   2.248   6.114  16.793  0.3431 -0.1559  0.1626
 8881TIP3    H148058   2.312   6.065  16.844  1.1646 -0.0944 -0.7897
 8881TIP3    H248059   2.300   6.173  16.738 -0.6037  1.8760  1.3359
 8882TIP3   OH248060   4.007   0.370  13.711  0.6436 -0.2055  0.1880
 8882TIP3    H148061   4.100   0.380  13.691  0.9007  0.0419  1.3753
 8882TIP3    H248062   3.989   0.439  13.775  0.0602 -1.2369  1.2005
 8883TIP3   OH248063   5.556   0.009   0.524 -0.6966 -0.1595  0.0770
 8883TIP3    H148064   5.617   0.064   0.574 -1.4031  0.2922  0.4605
 8883TIP3    H248065   5.583   0.021   0.433  0.2996 -0.6103  0.3018
 8884TIP3   OH248066   0.840   5.613  12.186  0.4906  0.2096  0.2224
 8884TIP3    H148067   0.913   5.643  12.133 -0.1387  0.7680 -0.3555
 8884TIP3    H248068   0.795   5.548  12.132  0.5420 -0.1053  0.5562
 8885TIP3   OH248069   5.941   6.556  12.301  0.7454 -0.8467 -0.2067
 8885TIP3    H148070   5.867   6.617  12.304  1.0325 -0.5266  0.4445
 8885TIP3    H248071   6.016   6.606  12.331  1.1538 -1.2891 -0.4637
 8886TIP3   OH248072   1.457   5.993  12.579  0.3188  0.1334 -0.7976
 8886TIP3    H148073   1.529   5.929  12.579 -0.5373 -0.9926 -3.4990
 8886TIP3    H248074   1.396   5.961  12.645  0.6525 -0.9725 -0.9979
 8887TIP3   OH248075   5.566   0.367  12.550 -0.0666 -0.2275  0.2255
 8887TIP3    H148076   5.565   0.354  12.455  0.6512  0.4769  0.1125
 8887TIP3    H248077   5.627   0.301  12.583 -0.6915 -0.7990  0.2578
 8888TIP3   OH248078   3.382   4.242   0.780  0.0243 -0.3971 -0.0533
 8888TIP3    H148079   3.458   4.213   0.831 -0.8506 -2.5899  0.1447
 8888TIP3    H248080   3.332   4.297   0.841  1.4120  1.0326 -0.1796
 8889TIP3   OH248081   2.782   3.695  15.146  0.3565 -0.2361 -0.3099
 8889TIP3    H148082   2.790   3.708  15.051  2.0565  0.5435 -0.0939
 8889TIP3    H248083   2.821   3.609  15.161 -0.6587 -0.7245 -0.3959
 8890TIP3   OH248084   5.464   1.855  14.878 -0.3148  0.5152  0.0646
 8890TIP3    H148085   5.555   1.831  14.861 -0.6363 -1.4551  0.8274
 8890TIP3    H248086   5.440   1.912  14.805  1.4588  0.9408 -0.2387
 8891TIP3   OH248087   0.387   3.703  11.306 -0.1670  0.3846 -0.0980
 8891TIP3    H148088   0.395   3.753  11.225  0.3858  0.1534 -0.1954
 8891TIP3    H248089   0.378   3.769  11.374  1.8168  0.6952 -0.0801
 8892TIP3   OH248090   4.103   5.357  17.213 -0.1607 -0.5059  0.3876
 8892TIP3    H148091   4.152   5.374  17.133 -1.3201 -0.1057 -0.2570
 8892TIP3    H248092   4.088   5.443  17.251  0.9043 -0.7337  1.3765
 8893TIP3   OH248093   4.607   5.681  15.544  0.5145  0.7487  0.1266
 8893TIP3    H148094   4.672   5.624  15.585 -0.4833 -0.5963 -0.0731
 8893TIP3    H248095   4.642   5.701  15.458  0.7594  0.2041  0.0964
 8894TIP3   OH248096   4.494   3.590   4.940  0.2867  0.3634  0.1536
 8894TIP3    H148097   4.569   3.530   4.939 -1.5505 -2.1187  0.0427
 8894TIP3    H248098   4.454   3.579   4.853 -1.0259  0.4225  0.7190
 8895TIP3   OH248099   3.309   0.651  15.170 -0.6074  0.3078 -0.6603
 8895TIP3    H148100   3.234   0.691  15.126 -0.6701  0.0929 -0.7527
 8895TIP3    H248101   3.376   0.719  15.170 -0.3733  0.1023 -1.6947
 8896TIP3   OH248102   5.123   5.807  13.592  1.1155 -0.1577 -0.5052
 8896TIP3    H148103   5.184   5.782  13.523  0.3917  0.5025 -1.4097
 8896TIP3    H248104   5.120   5.903  13.589  1.6299 -0.0683  0.9491
 8897TIP3   OH248105   1.356   0.605  11.509 -0.0349 -0.2642 -0.3789
 8897TIP3    H148106   1.362   0.523  11.461  1.6751 -0.0945 -0.5009
 8897TIP3    H248107   1.343   0.578  11.601 -1.7504 -0.5970 -0.6730
 8898TIP3   OH248108   6.121   1.235  13.140 -0.1054 -0.1312  0.3273
 8898TIP3    H148109   6.044   1.190  13.175 -0.0082 -1.2401 -0.7795
 8898TIP3    H248110   6.194   1.176  13.160  0.3357  0.5354  0.6859
 8899TIP3   OH248111   5.915   1.632   2.980 -0.2617  0.0475  0.7499
 8899TIP3    H148112   5.931   1.540   3.001 -1.8609  0.0270  2.0491
 8899TIP3    H248113   5.866   1.666   3.055  0.3230  1.9776  0.3094
 8900TIP3   OH248114   4.450   3.111  12.082  0.2727 -0.0187 -0.6263
 8900TIP3    H148115   4.433   3.020  12.105 -0.1044  0.3286  0.5553
 8900TIP3    H248116   4.451   3.157  12.166 -0.3685  1.2102 -1.2659
 8901TIP3   OH248117   2.169   0.424  11.491 -0.0176  0.4380 -0.1985
 8901TIP3    H148118   2.209   0.446  11.407  0.9829  0.2852  0.2213
 8901TIP3    H248119   2.094   0.483  11.499  0.1190  0.7268 -1.0164
 8902TIP3   OH248120   3.769   3.240   0.668 -0.3920 -0.1488 -0.3742
 8902TIP3    H148121   3.767   3.266   0.576 -1.2791 -1.6937 -0.8181
 8902TIP3    H248122   3.738   3.317   0.715 -2.2265 -0.0890 -1.5793
 8903TIP3   OH248123   0.715   4.965   4.494  0.0445  0.6084 -0.6428
 8903TIP3    H148124   0.742   5.049   4.531 -0.0325 -0.0222  0.9270
 8903TIP3    H248125   0.675   4.918   4.567  0.5549 -1.0042 -1.3505
 8904TIP3   OH248126   5.486   4.303   3.337  0.5309 -0.2389 -0.4484
 8904TIP3    H148127   5.570   4.347   3.323  1.8257 -2.4157  0.0197
 8904TIP3    H248128   5.477   4.299   3.432 -0.7415  1.0238 -0.4795
 8905TIP3   OH248129   4.430   5.654  16.647  0.7748  0.2039  0.3315
 8905TIP3    H148130   4.481   5.698  16.579  0.4420 -1.0822 -0.7820
 8905TIP3    H248131   4.343   5.694  16.641  0.1925 -1.1982 -1.3355
 8906TIP3   OH248132   6.417   4.400  14.205  0.2264  0.2705  0.0766
 8906TIP3    H148133   6.423   4.459  14.280 -1.4529 -1.3284  1.5902
 8906TIP3    H248134   6.460   4.320  14.233 -1.0639 -0.6170 -0.3427
 8907TIP3   OH248135   2.409   2.438  14.464  0.6463 -0.3428  0.1481
 8907TIP3    H148136   2.385   2.478  14.547 -0.9448  0.0332 -0.4729
 8907TIP3    H248137   2.363   2.354  14.463  1.2582 -0.6890 -0.0447
 8908TIP3   OH248138   1.490   2.718  13.605 -0.3479  0.6458  0.3742
 8908TIP3    H148139   1.410   2.717  13.552  0.7230  0.5463 -1.3112
 8908TIP3    H248140   1.555   2.763  13.550  0.4959  1.6782  2.1242
 8909TIP3   OH248141   1.325   0.508  16.364 -0.1014 -0.6242  0.4738
 8909TIP3    H148142   1.416   0.532  16.382  0.0249  0.0263 -0.8722
 8909TIP3    H248143   1.305   0.439  16.427  0.1274  1.7023  3.3231
 8910TIP3   OH248144   4.722   5.956  15.025  0.3299 -0.4595  0.5283
 8910TIP3    H148145   4.756   5.909  15.101  1.4241  0.6077  0.7265
 8910TIP3    H248146   4.648   6.006  15.059 -0.7308 -1.8304  0.3525
 8911TIP3   OH248147   1.850   6.217  17.189  0.5517 -0.5295  0.3622
 8911TIP3    H148148   1.926   6.264  17.222  2.4709 -2.8929 -0.3923
 8911TIP3    H248149   1.862   6.127  17.218 -2.4402 -0.8624  0.9134
 8912TIP3   OH248150   5.619   5.662  15.376 -0.5277  0.0221  0.1953
 8912TIP3    H148151   5.584   5.722  15.309  1.1441  2.0445  1.0074
 8912TIP3    H248152   5.664   5.594  15.326  0.5172  1.3816 -0.8102
 8913TIP3   OH248153   1.164   6.431  15.368  0.5778 -0.1504  0.0401
 8913TIP3    H148154   1.252   6.440  15.334  0.8969 -0.0062  0.8729
 8913TIP3    H248155   1.132   6.521  15.377  0.6230 -0.1702  0.4255
 8914TIP3   OH248156   1.194   1.437  16.617 -0.7984  0.1509 -0.0575
 8914TIP3    H148157   1.175   1.378  16.544 -0.9548 -2.0166  1.6117
 8914TIP3    H248158   1.249   1.506  16.580  0.6180 -1.8351 -1.8663
 8915TIP3   OH248159   0.146   2.819  14.921  0.3404  0.1163 -0.1808
 8915TIP3    H148160   0.180   2.900  14.882  0.1979  0.3369  0.1500
 8915TIP3    H248161   0.065   2.846  14.965  0.2118 -0.2364 -0.1990
 8916TIP3   OH248162   1.326   4.302   1.487 -0.2474  0.3453 -0.1086
 8916TIP3    H148163   1.339   4.207   1.486 -0.5586  0.2921 -1.2749
 8916TIP3    H248164   1.246   4.314   1.537 -0.1725 -0.0060  0.1015
 8917TIP3   OH248165   0.164   2.462  10.803  0.0495 -0.7239  0.4382
 8917TIP3    H148166   0.167   2.558  10.799 -0.4629 -0.6989  0.5394
 8917TIP3    H248167   0.218   2.433  10.730 -2.0621 -0.3390 -1.3891
 8918TIP3   OH248168   5.296   3.560   2.824  0.0107 -0.4407  0.3809
 8918TIP3    H148169   5.378   3.608   2.816 -0.3500  1.1455  4.0466
 8918TIP3    H248170   5.321   3.475   2.860  0.1011  0.3595  2.3450
 8919TIP3   OH248171   4.671   3.688  14.778  0.4501 -0.2203 -0.3264
 8919TIP3    H148172   4.680   3.605  14.732 -0.6206  0.9265 -2.7720
 8919TIP3    H248173   4.674   3.755  14.709  1.5678  1.8302  1.5655
 8920TIP3   OH248174   6.236   0.648  11.267 -0.0659 -0.1723  0.6532
 8920TIP3    H148175   6.179   0.590  11.217  0.0450  1.0404 -0.9946
 8920TIP3    H248176   6.196   0.735  11.257  1.3116  0.4859  0.5989
 8921TIP3   OH248177   5.468   0.001   2.675 -0.4716 -0.4388  0.0721
 8921TIP3    H148178   5.460  -0.036   2.763 -2.1816 -1.5066 -0.4889
 8921TIP3    H248179   5.496   0.091   2.689 -2.0160 -0.1852  1.7740
 8922TIP3   OH248180   2.641   3.181  15.615 -0.8439  0.2275  0.4814
 8922TIP3    H148181   2.726   3.156  15.650 -0.7253  2.2120  1.8195
 8922TIP3    H248182   2.581   3.114  15.647  0.0868 -0.7343  0.2314
 8923TIP3   OH248183   1.964   4.600  15.975 -0.4255  0.1557 -0.1411
 8923TIP3    H148184   2.034   4.539  15.949 -0.1364 -0.2268  1.4583
 8923TIP3    H248185   1.890   4.543  15.994 -0.3761  0.3481  0.6582
 8924TIP3   OH248186   1.757   3.713  15.824  0.2827 -0.2440 -0.4900
 8924TIP3    H148187   1.793   3.630  15.856  2.3571  1.1569  1.1259
 8924TIP3    H248188   1.832   3.773  15.824 -1.1390  1.6566 -1.5740
 8925TIP3   OH248189   6.049   0.972  10.735  0.0269 -0.1985 -0.4404
 8925TIP3    H148190   6.030   0.890  10.690  1.1878  0.0846 -1.4795
 8925TIP3    H248191   5.990   1.035  10.694 -0.8503 -0.4718  0.3436
 8926TIP3   OH248192   4.006   0.070   5.160  0.0955 -0.1064 -0.1515
 8926TIP3    H148193   3.928   0.042   5.207 -1.5517  1.1644 -1.9636
 8926TIP3    H248194   4.008   0.165   5.171  0.2760  0.0927 -1.6896
 8927TIP3   OH248195   4.147   1.829   0.655  0.1627 -0.2030 -0.1561
 8927TIP3    H148196   4.186   1.884   0.587  0.0653 -1.0047 -0.8811
 8927TIP3    H248197   4.155   1.880   0.735  2.1883 -0.0837 -0.3715
 8928TIP3   OH248198   4.748   5.812  16.057 -0.3327 -0.7328  0.4496
 8928TIP3    H148199   4.760   5.862  15.976 -0.7250 -2.3469 -0.6775
 8928TIP3    H248200   4.830   5.823  16.105  0.4745 -0.8747 -0.8479
 8929TIP3   OH248201   1.494   2.769  15.211  0.3500  0.2022 -0.1258
 8929TIP3    H148202   1.513   2.801  15.124 -0.1099  0.5623 -0.0960
 8929TIP3    H248203   1.398   2.770  15.217  0.3974  0.7927  0.6094
 8930TIP3   OH248204   4.923   4.456   5.131 -0.0010 -0.2257  0.8627
 8930TIP3    H148205   4.857   4.523   5.114  1.1707  0.7294 -0.0721
 8930TIP3    H248206   4.929   4.407   5.049 -0.2226 -0.9192  1.2572
 8931TIP3   OH248207   4.513   6.435   4.632 -0.0748 -0.1689 -0.1573
 8931TIP3    H148208   4.510   6.491   4.555  0.1641  0.8402  0.5455
 8931TIP3    H248209   4.495   6.347   4.599 -0.0361  0.2559 -1.3430
 8932TIP3   OH248210   3.232   3.904  12.463 -0.4899 -0.1061 -0.0181
 8932TIP3    H148211   3.154   3.861  12.429 -0.7368 -0.3096  0.8088
 8932TIP3    H248212   3.201   3.989  12.495 -0.6034 -0.6718  1.4308
 8933TIP3   OH248213   2.414   1.697  11.883  0.1099 -0.8737  0.1475
 8933TIP3    H148214   2.474   1.701  11.957 -0.4292  0.0659  0.5582
 8933TIP3    H248215   2.335   1.741  11.914  0.4379  1.0198 -1.4945
 8934TIP3   OH248216   2.179   3.325   0.831  0.4667 -0.5056  0.4573
 8934TIP3    H148217   2.174   3.339   0.926  2.2513  0.6608  0.4142
 8934TIP3    H248218   2.264   3.361   0.806  0.1610 -1.0954 -1.5507
 8935TIP3   OH248219   4.122   5.430  14.074  0.3965 -0.5533 -0.6979
 8935TIP3    H148220   4.093   5.487  14.002 -2.3748  0.7197  1.2322
 8935TIP3    H248221   4.180   5.485  14.126 -1.2076  0.1649  0.4238
 8936TIP3   OH248222   3.127   6.298  16.269  0.3182  0.0215  0.4975
 8936TIP3    H148223   3.066   6.286  16.196 -0.7140  0.0412  1.3331
 8936TIP3    H248224   3.142   6.210  16.303  1.5386 -0.1080 -0.2801
 8937TIP3   OH248225   2.845   6.656  14.789  0.1282 -0.3977  0.8321
 8937TIP3    H148226   2.903   6.610  14.849 -0.4104 -0.4884  1.3029
 8937TIP3    H248227   2.845   6.747  14.821  0.4073 -0.2891  0.5233
 8938TIP3   OH248228   3.052   1.968  12.003  0.5591 -0.0660  0.1615
 8938TIP3    H148229   3.048   1.965  11.907 -1.0360  0.8730  0.1641
 8938TIP3    H248230   3.017   1.884  12.031  1.9462 -0.7513 -0.0492
 8939TIP3   OH248231   4.721   4.280  16.140 -0.3191  0.0598 -0.3717
 8939TIP3    H148232   4.702   4.222  16.067 -2.0858  0.0612  0.0399
 8939TIP3    H248233   4.638   4.323  16.159  0.1933  0.3732  1.3589
 8940TIP3   OH248234   5.655   3.543   6.452 -0.1449 -0.3396 -0.5422
 8940TIP3    H148235   5.716   3.615   6.438  0.0483 -0.0623  1.3900
 8940TIP3    H248236   5.575   3.569   6.407  0.4019  0.4060 -1.0808
 8941TIP3   OH248237   6.603   3.750  11.164 -0.4800 -0.0890 -0.1396
 8941TIP3    H148238   6.668   3.700  11.213 -0.6366  1.2580  1.5511
 8941TIP3    H248239   6.562   3.686  11.106 -0.6794 -1.9494  1.9025
 8942TIP3   OH248240   4.448   1.872  10.798 -0.0179 -0.7626 -0.2575
 8942TIP3    H148241   4.408   1.926  10.865 -1.5311 -0.5948 -1.2405
 8942TIP3    H248242   4.542   1.893  10.802 -0.5336  1.9603 -0.6048
 8943TIP3   OH248243   2.680   6.071  16.904  0.2857  0.0361  0.1240
 8943TIP3    H148244   2.684   6.154  16.857 -0.9640  0.8065  1.2907
 8943TIP3    H248245   2.739   6.081  16.978 -2.0005  1.0753  1.9319
 8944TIP3   OH248246   2.970   0.638   2.990 -0.1847  0.0449 -0.3234
 8944TIP3    H148247   2.949   0.625   3.082 -0.7978  1.6705 -0.2004
 8944TIP3    H248248   2.932   0.562   2.946  0.0979 -0.7407  0.7370
 8945TIP3   OH248249   1.253   2.949   3.278 -0.1081  0.0165  0.3278
 8945TIP3    H148250   1.176   2.898   3.256 -0.3843  0.0578  1.1768
 8945TIP3    H248251   1.326   2.901   3.239 -0.5891  0.1843 -0.8179
 8946TIP3   OH248252   3.712   2.060   4.582  0.3673 -0.2082  0.2161
 8946TIP3    H148253   3.740   2.047   4.492  0.7520 -0.5827  0.3886
 8946TIP3    H248254   3.768   2.131   4.614  1.0041 -0.8388  0.5072
 8947TIP3   OH248255   0.333   4.812  11.140 -0.2630  0.2038  0.1269
 8947TIP3    H148256   0.392   4.887  11.142 -0.2372  0.1735  1.7351
 8947TIP3    H248257   0.322   4.792  11.047  4.2970 -1.4330 -0.3085
 8948TIP3   OH248258   1.434   0.267  15.834 -0.0010  0.0445  0.0499
 8948TIP3    H148259   1.517   0.228  15.806 -0.6323 -0.9528 -0.5113
 8948TIP3    H248260   1.432   0.352  15.791  0.2555 -0.3733 -0.8269
 8949TIP3   OH248261   2.452   2.869  16.033 -0.1438  0.4016  0.1294
 8949TIP3    H148262   2.370   2.821  16.030 -0.7775  1.4773 -0.8230
 8949TIP3    H248263   2.448   2.920  16.114  0.5372 -1.0731  1.1505
 8950TIP3   OH248264   3.977   6.595  17.049 -0.4928 -0.1982 -0.4111
 8950TIP3    H148265   4.027   6.603  16.968  0.3214  0.5877  0.1605
 8950TIP3    H248266   3.963   6.685  17.078 -2.4124 -0.3697 -0.6381
 8951TIP3   OH248267   2.766   1.543   4.044  0.3882  0.6175 -0.1105
 8951TIP3    H148268   2.712   1.620   4.024 -0.5746 -0.3054 -1.1467
 8951TIP3    H248269   2.811   1.524   3.962 -1.3391 -1.4375 -0.6501
 8952TIP3   OH248270   6.053   1.803   1.761 -0.3919  0.1306 -0.1900
 8952TIP3    H148271   6.044   1.899   1.762 -0.1431  0.1608  0.8089
 8952TIP3    H248272   6.133   1.786   1.811 -1.7143 -0.6839  1.7877
 8953TIP3   OH248273   3.267   4.386  13.342 -0.3659 -0.4605  0.4156
 8953TIP3    H148274   3.268   4.471  13.387 -0.3829 -0.3504  0.2138
 8953TIP3    H248275   3.260   4.321  13.411 -0.7362 -0.2801  0.5477
 8954TIP3   OH248276   0.444   6.433  11.309 -0.9059  0.4010  0.3231
 8954TIP3    H148277   0.349   6.422  11.307 -1.0270  1.1673  1.2186
 8954TIP3    H248278   0.462   6.500  11.243 -0.6261 -1.8322 -2.0238
 8955TIP3   OH248279   5.009   2.368   3.285 -0.5658  0.3863 -0.4378
 8955TIP3    H148280   4.999   2.283   3.241  1.0407  0.7355 -1.5709
 8955TIP3    H248281   4.933   2.374   3.343 -2.9367 -0.0795 -3.2395
 8956TIP3   OH248282   3.739   1.101  13.088 -0.3100  0.1585 -0.2929
 8956TIP3    H148283   3.683   1.152  13.030  0.0621 -0.8393 -1.5743
 8956TIP3    H248284   3.827   1.133  13.071 -0.2200 -0.0124 -0.1500
 8957TIP3   OH248285   2.489   6.381   0.246  0.1597 -0.2394  0.9870
 8957TIP3    H148286   2.579   6.371   0.216  0.0895 -1.2246  1.0663
 8957TIP3    H248287   2.493   6.453   0.309  0.9629 -0.5276  1.2778
 8958TIP3   OH248288   1.703   2.224   1.947  0.1740 -0.3418  0.2645
 8958TIP3    H148289   1.684   2.207   2.039 -0.6526 -2.5437 -0.2373
 8958TIP3    H248290   1.624   2.264   1.912 -0.8145 -2.4604 -0.1237
 8959TIP3   OH248291   0.567   0.099  12.510  0.1020 -0.2251 -0.0027
 8959TIP3    H148292   0.568   0.019  12.458  0.2298 -0.0617 -0.2577
 8959TIP3    H248293   0.533   0.165  12.451  0.8440  0.1001 -0.0865
 8960TIP3   OH248294   2.525   5.914  15.954 -0.1753 -0.1309 -0.3053
 8960TIP3    H148295   2.563   5.858  16.021 -0.9353 -0.3833 -0.0774
 8960TIP3    H248296   2.586   5.988  15.947 -0.4853  0.2976  1.2219
 8961TIP3   OH248297   2.643   5.554   3.681  0.4163  0.0700 -0.5766
 8961TIP3    H148298   2.689   5.533   3.763  1.6392 -1.6648 -1.6576
 8961TIP3    H248299   2.658   5.648   3.670  1.3968  0.0708  0.4909
 8962TIP3   OH248300   4.996   6.005  14.084  0.6289  0.2074 -0.3860
 8962TIP3    H148301   4.955   6.075  14.134 -0.3035 -0.9162  0.4891
 8962TIP3    H248302   5.090   6.023  14.089  0.5764  0.1525  1.7820
 8963TIP3   OH248303   3.370   4.332   3.162  0.0041 -0.2541 -0.4169
 8963TIP3    H148304   3.316   4.354   3.086 -0.7947  0.4447  0.3367
 8963TIP3    H248305   3.451   4.296   3.124 -1.0294 -1.4879 -1.5578
 8964TIP3   OH248306   1.275   0.030  17.145 -0.4513  0.6003 -0.1272
 8964TIP3    H148307   1.216  -0.006  17.212 -2.1617  0.7733 -1.4871
 8964TIP3    H248308   1.359  -0.012  17.164 -1.0077  0.2176  1.7759
 8965TIP3   OH248309   1.469   5.027  12.601  0.1059  0.4912 -0.1857
 8965TIP3    H148310   1.549   4.980  12.627 -0.0187  0.4419  0.1092
 8965TIP3    H248311   1.502   5.106  12.559  0.3349 -0.3447 -1.6446
 8966TIP3   OH248312   1.274   3.173   4.300 -0.2607  0.1002  0.2170
 8966TIP3    H148313   1.236   3.256   4.270  1.6717  1.0885  0.3143
 8966TIP3    H248314   1.326   3.143   4.226  1.6689  0.7073  1.2597
 8967TIP3   OH248315   3.904   6.295  11.061 -0.1192 -0.0652 -0.2654
 8967TIP3    H148316   3.978   6.336  11.105  0.1442 -2.1631  1.4018
 8967TIP3    H248317   3.942   6.254  10.983  0.6884 -1.7487  0.9606
 8968TIP3   OH248318   5.101   1.382  16.725 -0.3407 -0.0045  0.2433
 8968TIP3    H148319   5.190   1.416  16.730 -0.4595  0.0816  2.3337
 8968TIP3    H248320   5.050   1.440  16.781 -1.1689 -1.6749  1.2887
 8969TIP3   OH248321   6.643   1.102  13.760  0.0717 -0.4228  0.1522
 8969TIP3    H148322   6.597   1.181  13.733 -0.3358 -0.8072 -0.2976
 8969TIP3    H248323   6.636   1.101  13.856  0.6203  0.4014  0.2144
 8970TIP3   OH248324   5.738   5.056   3.953  0.6657 -0.0485  0.4056
 8970TIP3    H148325   5.730   4.989   3.885  0.1873 -0.0899  0.5034
 8970TIP3    H248326   5.653   5.100   3.954  0.9918  0.5957  0.3090
 8971TIP3   OH248327   5.472   6.254  14.867 -0.0592 -0.4918 -0.2914
 8971TIP3    H148328   5.487   6.308  14.789 -1.5648  2.4273  1.2652
 8971TIP3    H248329   5.393   6.204  14.846 -0.6179  0.4816 -0.5861
 8972TIP3   OH248330   1.590   6.710  14.764 -0.2688  0.0490  0.0891
 8972TIP3    H148331   1.538   6.697  14.843  0.9816 -0.2698  0.8889
 8972TIP3    H248332   1.622   6.800  14.770  1.4112 -0.5638  0.9662
 8973TIP3   OH248333   2.406   3.088   1.888  0.1466 -0.1683 -0.2355
 8973TIP3    H148334   2.387   3.169   1.936  2.2458 -0.1449  0.6483
 8973TIP3    H248335   2.491   3.104   1.847 -0.8076 -0.8094 -2.6614
 8974TIP3   OH248336   6.119   1.940   4.804 -0.9031 -0.2999 -0.5865
 8974TIP3    H148337   6.071   1.980   4.877  0.1839 -1.2033  0.6506
 8974TIP3    H248338   6.052   1.893   4.754 -1.5699 -0.1679  0.1692
 8975TIP3   OH248339   4.572   2.842   6.572 -0.0481  0.5892 -0.7684
 8975TIP3    H148340   4.487   2.836   6.529 -0.2114  0.1506 -0.3902
 8975TIP3    H248341   4.631   2.791   6.515 -0.1960  0.2752 -0.6418
 8976TIP3   OH248342   4.080   3.831  11.172 -0.1300 -0.2601 -0.1053
 8976TIP3    H148343   4.077   3.828  11.076 -0.3992  0.7160 -0.1355
 8976TIP3    H248344   4.167   3.864  11.192 -0.3836  0.3986 -0.0497
 8977TIP3   OH248345   1.502   2.123   6.621 -0.2233 -0.1709 -0.4097
 8977TIP3    H148346   1.563   2.195   6.638 -0.7882 -0.0965  1.4806
 8977TIP3    H248347   1.554   2.044   6.637 -0.2805 -0.1295 -0.0101
 8978TIP3   OH248348   3.441   6.664  12.069 -0.2532 -0.3440 -0.0078
 8978TIP3    H148349   3.423   6.628  12.155  0.3900 -1.1227 -0.1837
 8978TIP3    H248350   3.521   6.716  12.081 -1.0792  0.9133  0.2080
 8979TIP3   OH248351   6.458   4.914   5.411  0.0284  0.8927  0.2533
 8979TIP3    H148352   6.436   4.821   5.409  2.7824  0.1697 -0.3884
 8979TIP3    H248353   6.501   4.926   5.496  0.9165  1.2398 -0.2356
 8980TIP3   OH248354   5.137   2.320  16.172  0.3945 -0.0873 -0.0349
 8980TIP3    H148355   5.135   2.286  16.082  1.1113 -0.3212  0.0368
 8980TIP3    H248356   5.046   2.312  16.202 -0.0342  0.7597 -1.0179
 8981TIP3   OH248357   2.846   1.928   0.575 -0.6647 -0.2041 -0.5210
 8981TIP3    H148358   2.856   1.930   0.480 -3.9920  0.4809 -0.9867
 8981TIP3    H248359   2.814   2.016   0.598 -1.7397 -0.9241  0.9436
 8982TIP3   OH248360   2.154   4.827  17.222 -0.0345  0.3219 -0.2180
 8982TIP3    H148361   2.098   4.794  17.292  1.2712 -1.7867 -0.0838
 8982TIP3    H248362   2.121   4.785  17.143 -0.0971  0.9231 -0.5176
 8983TIP3   OH248363   5.086   0.209  13.004 -0.5765  0.4019  0.0744
 8983TIP3    H148364   5.029   0.205  13.081 -1.9783 -1.1129 -0.9544
 8983TIP3    H248365   5.051   0.282  12.952 -2.2410 -1.0509 -0.9616
 8984TIP3   OH248366   3.673   0.570   2.705  0.7827 -0.7927  0.0938
 8984TIP3    H148367   3.600   0.513   2.679 -0.3478  1.3332 -1.6584
 8984TIP3    H248368   3.699   0.536   2.791 -0.4740 -3.2897 -0.4023
 8985TIP3   OH248369   0.678   4.669  14.311  0.2322 -0.3608  0.0463
 8985TIP3    H148370   0.590   4.637  14.329  0.1916  0.0385  0.5709
 8985TIP3    H248371   0.716   4.684  14.397 -0.5652  3.3280 -0.0872
 8986TIP3   OH248372   5.911   4.283   4.081  0.0530  0.2748  0.1775
 8986TIP3    H148373   5.883   4.271   3.990  0.6135 -0.1288  0.0529
 8986TIP3    H248374   5.991   4.230   4.089 -1.6143 -2.2160  1.7212
 8987TIP3   OH248375   4.315   6.612  15.434 -0.0084 -0.2083 -0.0574
 8987TIP3    H148376   4.331   6.669  15.359  0.8713  2.2068  1.7831
 8987TIP3    H248377   4.401   6.577  15.456 -0.3694 -1.4188 -0.5402
 8988TIP3   OH248378   1.552   4.828   2.549  0.1065  0.3503  0.4994
 8988TIP3    H148379   1.503   4.807   2.470  0.0865 -0.6731  0.7681
 8988TIP3    H248380   1.486   4.856   2.612  0.1374  1.3124  0.1223
 8989TIP3   OH248381   4.251   4.176  17.190 -0.0521 -0.3357  0.2501
 8989TIP3    H148382   4.264   4.096  17.138  0.3263 -0.2282  0.1740
 8989TIP3    H248383   4.204   4.235  17.132 -0.4707 -0.5582  0.3604
 8990TIP3   OH248384   5.192   3.848   2.683  0.6352 -0.5471 -0.6100
 8990TIP3    H148385   5.232   3.798   2.755  0.9944  0.5127 -0.0587
 8990TIP3    H248386   5.257   3.844   2.613  0.3118 -1.5270 -0.8779
 8991TIP3   OH248387   1.453   4.422  16.512  0.0228  0.1916  0.6056
 8991TIP3    H148388   1.368   4.393  16.546  1.2320 -0.6789  3.0867
 8991TIP3    H248389   1.515   4.402  16.582  2.1359  1.8123 -0.6969
 8992TIP3   OH248390   4.062   3.401  12.965 -0.0350 -0.2055  0.4599
 8992TIP3    H148391   4.146   3.442  12.983  0.2423 -0.6333  0.1626
 8992TIP3    H248392   4.060   3.323  13.020  0.1269 -0.6446 -0.1415
 8993TIP3   OH248393   3.676   3.204  14.030 -0.2979 -0.5540  0.1283
 8993TIP3    H148394   3.674   3.294  14.063 -0.5135 -1.4137  2.6280
 8993TIP3    H248395   3.629   3.153  14.096  0.4049 -2.6224 -0.8897
 8994TIP3   OH248396   6.724   6.638  15.504 -0.3400 -0.5453  0.5525
 8994TIP3    H148397   6.777   6.615  15.580 -0.0835 -1.9088 -0.0061
 8994TIP3    H248398   6.663   6.565  15.494 -0.1035 -0.5978 -0.7711
 8995TIP3   OH248399   5.141   5.243   3.850 -0.1787  0.2188 -0.3372
 8995TIP3    H148400   5.071   5.308   3.843  0.2545  0.7315  0.0542
 8995TIP3    H248401   5.160   5.238   3.944 -1.1736 -1.5190 -0.1954
 8996TIP3   OH248402   0.204   4.828   3.764  0.0955  0.1470 -0.2676
 8996TIP3    H148403   0.286   4.875   3.747  0.7803 -1.1216 -0.6058
 8996TIP3    H248404   0.158   4.882   3.828  1.6815  0.3670  0.7362
 8997TIP3   OH248405   0.240   4.939   2.086  0.1665  0.2782  0.0396
 8997TIP3    H148406   0.153   4.957   2.122  0.4206  0.9616  0.3211
 8997TIP3    H248407   0.274   4.868   2.142 -0.6697 -0.8413 -0.8172
 8998TIP3   OH248408   4.077   5.822   3.586  0.0021 -0.2148  0.1092
 8998TIP3    H148409   4.025   5.847   3.509  1.1182  0.1722 -0.5356
 8998TIP3    H248410   4.134   5.752   3.555 -0.2382 -0.7596  0.8652
 8999TIP3   OH248411   0.593   1.730  13.158 -0.0631 -0.4702 -0.5750
 8999TIP3    H148412   0.650   1.801  13.188  0.1424 -0.1195 -1.7553
 8999TIP3    H248413   0.615   1.719  13.066 -1.2458 -0.9896 -0.8054
 9000TIP3   OH248414   1.528   6.706  12.394  0.1000 -0.1470  0.3608
 9000TIP3    H148415   1.473   6.718  12.317 -0.8310 -1.3836  0.7996
 9000TIP3    H248416   1.614   6.682  12.359 -0.1418 -0.0770 -0.3009
 9001TIP3   OH248417   6.623   1.699   4.249 -0.2414  0.3557  0.4959
 9001TIP3    H148418   6.666   1.664   4.327 -1.3707 -0.8105  0.6295
 9001TIP3    H248419   6.615   1.793   4.266 -1.9419 -0.0978  2.5379
 9002TIP3   OH248420   5.732   0.136   0.678 -0.4813  0.5021  0.1310
 9002TIP3    H148421   5.755   0.188   0.755  1.0263  0.2576 -0.1385
 9002TIP3    H248422   5.782   0.055   0.688 -1.3242 -0.1022 -0.4315
 9003TIP3   OH248423   3.108   2.934  15.985 -0.5957 -0.0464 -0.5401
 9003TIP3    H148424   3.036   2.876  16.007  0.9755 -1.7463  0.4446
 9003TIP3    H248425   3.146   2.959  16.069  0.8969 -0.5004 -1.0394
 9004TIP3   OH248426   4.366   1.729   5.247 -0.4857  0.0442 -0.3750
 9004TIP3    H148427   4.352   1.714   5.341  0.0289  0.5191 -0.2140
 9004TIP3    H248428   4.448   1.778   5.243 -1.1719  1.2003 -0.9713
 9005TIP3   OH248429   6.631   2.345   0.637 -0.7838 -1.0103 -0.1946
 9005TIP3    H148430   6.570   2.419   0.625  1.1288  0.5342 -0.8850
 9005TIP3    H248431   6.644   2.310   0.548 -0.5936 -1.2766 -0.0634
 9006TIP3   OH248432   3.707   6.274   4.823  0.3213  0.0229 -0.0550
 9006TIP3    H148433   3.696   6.257   4.916 -0.1690  1.2524  0.1321
 9006TIP3    H248434   3.729   6.188   4.785  0.3793 -0.5155  1.1546
 9007TIP3   OH248435   1.143   4.420  16.985  0.0213 -0.5031  0.0816
 9007TIP3    H148436   1.120   4.327  16.995 -2.6084  0.1389  1.0481
 9007TIP3    H248437   1.058   4.465  16.979  1.1784  1.9419  0.6323
 9008TIP3   OH248438   3.797   6.150  15.245  0.0835 -0.2783  0.4968
 9008TIP3    H148439   3.891   6.165  15.231  0.2402 -1.3271  0.3688
 9008TIP3    H248440   3.760   6.148  15.157 -0.1116  0.4066  0.5574
 9009TIP3   OH248441   4.059   0.999   4.439 -0.3507  0.2415 -0.5461
 9009TIP3    H148442   4.036   0.912   4.405 -1.1500 -0.2909  1.2005
 9009TIP3    H248443   4.155   0.999   4.443 -0.3259 -0.3796 -0.9951
 9010TIP3   OH248444   6.585   1.889   5.553 -0.2450 -0.0032  0.5882
 9010TIP3    H148445   6.540   1.830   5.613 -1.8619  1.5084  0.9366
 9010TIP3    H248446   6.646   1.833   5.506 -0.3211 -1.5816  2.2608
 9011TIP3   OH248447   1.205   1.322   5.777 -0.1027  0.8059  0.3995
 9011TIP3    H148448   1.234   1.377   5.850  0.5281 -0.9510  1.5224
 9011TIP3    H248449   1.253   1.240   5.787 -1.6174 -0.2898 -0.7238
 9012TIP3   OH248450   0.136   5.210   2.267 -0.0467 -0.2580  0.2892
 9012TIP3    H148451   0.091   5.171   2.342  1.1759 -1.1649  0.5816
 9012TIP3    H248452   0.217   5.247   2.304  1.4063 -2.1971 -0.7759
 9013TIP3   OH248453   4.402   0.454  11.946 -0.0889  0.8896 -0.0605
 9013TIP3    H148454   4.331   0.502  11.989  0.9508  1.0752  1.5393
 9013TIP3    H248455   4.422   0.383  12.007  2.0374  1.6797  0.2409
 9014TIP3   OH248456   2.066   3.575   1.741  0.3035  0.2170 -0.1920
 9014TIP3    H148457   2.035   3.561   1.651  4.0226 -0.8061 -1.4901
 9014TIP3    H248458   2.138   3.514   1.751 -0.0918  0.1802  3.6625
 9015TIP3   OH248459   3.273   5.481  12.223 -0.4194 -0.6220 -0.3867
 9015TIP3    H148460   3.262   5.506  12.131 -1.6471 -0.8459 -0.3154
 9015TIP3    H248461   3.360   5.443  12.227 -0.3087 -0.5031 -1.4381
 9016TIP3   OH248462   3.068   6.167   2.512 -0.2638 -0.5151  0.3631
 9016TIP3    H148463   3.072   6.236   2.577  0.4222  0.0006 -0.2062
 9016TIP3    H248464   3.157   6.162   2.477 -1.3100  1.9005 -3.2350
 9017TIP3   OH248465   6.737   5.505   1.793  0.1124 -0.4515 -0.0191
 9017TIP3    H148466   6.724   5.463   1.878 -1.8992 -1.5018 -0.7769
 9017TIP3    H248467   6.649   5.520   1.760  0.7910  2.3256 -0.8301
 9018TIP3   OH248468   2.619   0.334   4.893 -0.4340  0.3675 -0.9628
 9018TIP3    H148469   2.635   0.423   4.925  2.3145 -0.4163  0.1472
 9018TIP3    H248470   2.702   0.308   4.853 -0.4810 -2.3374  0.4423
 9019TIP3   OH248471   3.117   5.458  13.313 -0.2000 -0.1748  0.3261
 9019TIP3    H148472   3.036   5.449  13.263 -0.9204 -0.5897  1.5093
 9019TIP3    H248473   3.183   5.414  13.260 -0.8515 -0.2679 -0.4290
 9020TIP3   OH248474   0.008   5.825   4.723  0.2450  0.4124 -0.4104
 9020TIP3    H148475  -0.076   5.846   4.683  0.2842  0.4666 -0.4634
 9020TIP3    H248476   0.008   5.730   4.729  0.3609  0.3862 -0.7996
 9021TIP3   OH248477   5.981   0.069   2.065 -0.1465 -0.1858  0.0925
 9021TIP3    H148478   6.017   0.134   2.005  0.7408 -1.7201 -1.1158
 9021TIP3    H248479   5.955   0.119   2.142 -0.4075  1.7183 -1.1609
 9022TIP3   OH248480   3.593   3.002  12.099  0.2031  0.2369 -0.1542
 9022TIP3    H148481   3.605   3.055  12.178  0.3978 -0.8422  0.5532
 9022TIP3    H248482   3.648   3.046  12.033  5.2996 -2.2011  1.8904
 9023TIP3   OH248483   4.965   3.753   1.618  0.0481  0.1490  0.4057
 9023TIP3    H148484   4.888   3.794   1.579 -0.2880 -1.2674 -0.4894
 9023TIP3    H248485   4.930   3.689   1.680  0.4422 -1.0107 -0.5269
 9024TIP3   OH248486   4.644   3.545  15.018 -0.1832  0.6570  0.5478
 9024TIP3    H148487   4.681   3.610  14.959 -0.0138  0.5613  0.5457
 9024TIP3    H248488   4.633   3.467  14.964 -3.0295  1.4628 -0.2050
 9025TIP3   OH248489   3.555   3.580  13.258 -0.2805  0.1642  0.0409
 9025TIP3    H148490   3.602   3.647  13.308  0.3938 -0.4548  0.2573
 9025TIP3    H248491   3.487   3.629  13.211  0.3909  1.0507 -0.0466
 9026TIP3   OH248492   1.877   4.878  11.033  0.2289 -0.6441 -0.3027
 9026TIP3    H148493   1.801   4.878  11.092  0.7588 -2.2514  0.4517
 9026TIP3    H248494   1.844   4.916  10.951 -1.3720 -1.2180  0.0388
 9027TIP3   OH248495   2.140   1.269  13.243  0.3514 -0.4372 -0.4360
 9027TIP3    H148496   2.142   1.176  13.217 -2.3662 -0.6902 -0.0294
 9027TIP3    H248497   2.092   1.312  13.173  0.6424  0.4938 -0.0748
 9028TIP3   OH248498   0.765   6.006  12.489  0.2298  0.3415 -0.1397
 9028TIP3    H148499   0.746   6.093  12.525  0.9724  0.3191  0.3266
 9028TIP3    H248500   0.713   6.002  12.409 -1.2156  0.5199  0.7534
 9029TIP3   OH248501   1.841   2.138   2.246 -0.7394 -0.7472  0.2488
 9029TIP3    H148502   1.936   2.124   2.250 -0.5339  0.7123  3.4422
 9029TIP3    H248503   1.804   2.054   2.273 -0.2270 -0.6302  1.3797
 9030TIP3   OH248504   1.783   5.441  14.718 -0.2396 -0.0218  0.6331
 9030TIP3    H148505   1.821   5.354  14.710  0.5577  0.0451  2.8804
 9030TIP3    H248506   1.695   5.426  14.752 -0.3351  0.0341  0.4148
 9031TIP3   OH248507   5.205   1.755   1.613  0.1244 -0.4039 -0.0549
 9031TIP3    H148508   5.234   1.740   1.523  0.0057  0.6167 -0.2737
 9031TIP3    H248509   5.193   1.667   1.649  1.9076 -0.8605 -0.4596
 9032TIP3   OH248510   5.529   4.714   0.874  0.3254  0.3362  0.6669
 9032TIP3    H148511   5.552   4.676   0.959  0.2006  1.1617  1.0865
 9032TIP3    H248512   5.462   4.779   0.895 -2.1507 -1.6777 -0.4497
 9033TIP3   OH248513   2.577   0.356  14.044 -0.0554 -0.0348 -0.4709
 9033TIP3    H148514   2.525   0.277  14.030 -1.3247  0.6565  0.1462
 9033TIP3    H248515   2.531   0.404  14.113  0.9299  1.0364 -0.5112
 9034TIP3   OH248516   5.250   4.649  15.872  1.0676 -0.1889  0.0890
 9034TIP3    H148517   5.194   4.632  15.948  1.2583 -0.2799  0.2079
 9034TIP3    H248518   5.220   4.734  15.839 -0.3357 -1.0075 -0.9023
 9035TIP3   OH248519   3.244   0.243   4.665 -0.1168 -0.2580 -0.2318
 9035TIP3    H148520   3.217   0.334   4.654  0.7594  0.1589  0.8470
 9035TIP3    H248521   3.289   0.222   4.583 -1.2886 -0.1051 -0.9429
 9036TIP3   OH248522   4.861   4.049   2.905  0.2023  0.1899  0.7811
 9036TIP3    H148523   4.938   4.055   2.848 -0.8563  0.8008 -0.6505
 9036TIP3    H248524   4.850   3.956   2.922 -0.5959 -0.2471 -1.7086
 9037TIP3   OH248525   2.292   4.270   4.627  0.3426 -0.3527 -0.6517
 9037TIP3    H148526   2.217   4.321   4.656  0.2475  0.3013 -1.9943
 9037TIP3    H248527   2.351   4.269   4.702 -0.1368  0.8051 -0.2498
 9038TIP3   OH248528   6.658   1.424  16.307  0.3848 -0.1939 -0.2169
 9038TIP3    H148529   6.687   1.503  16.260  1.2156 -0.8546 -0.8492
 9038TIP3    H248530   6.564   1.436  16.319 -0.5529 -1.2818 -4.6988
 9039TIP3   OH248531   3.825   6.760  13.478  0.1867 -0.4465 -0.1420
 9039TIP3    H148532   3.855   6.807  13.399 -2.2972  1.5454 -0.0324
 9039TIP3    H248533   3.857   6.813  13.550  1.7362 -1.8135  0.2222
 9040TIP3   OH248534   1.731   3.105   0.190  0.2521  0.3086  0.0660
 9040TIP3    H148535   1.800   3.126   0.253 -0.5954 -0.3886  1.2643
 9040TIP3    H248536   1.739   3.172   0.123  1.0634  1.1977  1.0107
 9041TIP3   OH248537   3.543   1.242   1.803 -0.7990 -0.6139 -0.0839
 9041TIP3    H148538   3.574   1.154   1.824  0.2572 -0.9132 -2.5295
 9041TIP3    H248539   3.449   1.238   1.814 -0.5483 -1.2396  2.4072
 9042TIP3   OH248540   4.211   0.912   0.191 -0.5331  0.2935  0.4843
 9042TIP3    H148541   4.240   0.909   0.099  0.1792  0.9894  0.6751
 9042TIP3    H248542   4.211   1.005   0.212  1.8621  0.0260  1.9820
 9043TIP3   OH248543   6.532   2.280   1.279 -0.3683  0.3097 -0.1665
 9043TIP3    H148544   6.626   2.300   1.286  0.1149 -1.8290  0.0071
 9043TIP3    H248545   6.503   2.270   1.370 -1.4945  3.6675 -0.0133
 9044TIP3   OH248546   2.081   3.798  15.972  0.1457 -0.5549  0.0379
 9044TIP3    H148547   2.088   3.761  15.884  1.6505  1.0465 -0.5942
 9044TIP3    H248548   2.104   3.725  16.031  1.0906 -1.1573 -1.0277
 9045TIP3   OH248549   4.397   5.421   1.482 -0.2572  0.4351  0.0378
 9045TIP3    H148550   4.425   5.500   1.437  1.0555  0.6973  1.2493
 9045TIP3    H248551   4.432   5.349   1.428  0.4101  0.7189  0.0878
 9046TIP3   OH248552   3.126   6.301  12.428  0.0276  0.0074 -0.4496
 9046TIP3    H148553   3.219   6.323  12.437  0.4095 -1.4514 -0.6429
 9046TIP3    H248554   3.084   6.349  12.499  1.2333 -1.0124  1.0323
 9047TIP3   OH248555   0.437   1.314   0.935 -0.3183 -0.2216  0.5294
 9047TIP3    H148556   0.368   1.380   0.928 -0.3997 -0.1949  1.4271
 9047TIP3    H248557   0.506   1.346   0.876 -1.1376 -0.3609 -0.5319
 9048TIP3   OH248558   3.400   5.617  12.496 -0.0654 -0.4464 -0.0167
 9048TIP3    H148559   3.364   5.599  12.409 -2.2111 -0.7583  0.8934
 9048TIP3    H248560   3.459   5.543  12.513 -0.9964 -1.3122 -0.4866
 9049TIP3   OH248561   3.174   2.955  15.718  0.0135  0.1200 -0.1353
 9049TIP3    H148562   3.160   2.967  15.812  2.1124  1.1706  0.1116
 9049TIP3    H248563   3.166   3.043  15.681  0.2344 -0.1167 -0.7687
 9050TIP3   OH248564   3.239   4.544   4.223 -0.0329 -0.4240  0.9237
 9050TIP3    H148565   3.304   4.477   4.244  0.0452  0.1281  2.5647
 9050TIP3    H248566   3.247   4.608   4.293  0.3400  1.6737 -0.9015
 9051TIP3   OH248567   2.132   5.201  17.176 -0.6641  0.0155  0.5150
 9051TIP3    H148568   2.111   5.176  17.266  0.8378 -0.0411  0.8728
 9051TIP3    H248569   2.227   5.209  17.174 -0.7916  2.4075 -0.4426
 9052TIP3   OH248570   0.137   2.543  12.122  0.2391 -0.1555 -1.0284
 9052TIP3    H148571   0.215   2.500  12.088  0.9591  0.4593 -0.1761
 9052TIP3    H248572   0.151   2.636  12.104 -0.0045  0.0273 -0.3053
 9053TIP3   OH248573   4.226   4.227   4.443  0.4962  0.6618 -0.6154
 9053TIP3    H148574   4.309   4.256   4.405  0.6873  4.3077  2.0206
 9053TIP3    H248575   4.242   4.226   4.538 -2.1291  0.2861 -0.1037
 9054TIP3   OH248576   6.080   6.067   3.709  0.0265  0.3900 -0.2268
 9054TIP3    H148577   6.024   6.035   3.638  0.7134 -1.4303  0.0045
 9054TIP3    H248578   6.019   6.085   3.781 -0.2998 -1.8290  0.1189
 9055TIP3   OH248579   2.881   4.736   5.111 -0.2544  1.0725  0.2424
 9055TIP3    H148580   2.965   4.690   5.113 -0.7470  0.1248 -0.2454
 9055TIP3    H248581   2.876   4.773   5.023 -0.6900  0.4480 -0.0038
 9056TIP3   OH248582   3.080   0.033   6.428  0.3766 -0.2530  0.3653
 9056TIP3    H148583   3.166   0.050   6.389  0.6139  0.6425  1.2409
 9056TIP3    H248584   3.037   0.119   6.431  0.4561 -0.2229  2.2301
 9057TIP3   OH248585   5.491   2.310  16.454 -0.5305  0.2079 -0.4270
 9057TIP3    H148586   5.544   2.335  16.529 -1.7388  1.6064  0.0152
 9057TIP3    H248587   5.504   2.216  16.446  1.0146  0.3125  0.4163
 9058TIP3   OH248588   4.666   2.856   4.487  0.1402 -0.2118  1.1402
 9058TIP3    H148589   4.610   2.890   4.417  1.5401 -1.8617 -0.8980
 9058TIP3    H248590   4.632   2.769   4.504 -0.2566  0.2118  2.6754
 9059TIP3   OH248591   1.113   3.582   3.849  0.0040  0.8191  0.3789
 9059TIP3    H148592   1.079   3.607   3.935  0.2496  0.5719  0.5492
 9059TIP3    H248593   1.063   3.503   3.826  0.6208  0.3047  0.7440
 9060TIP3   OH248594   1.717   0.138   5.896 -0.0548 -0.1751  0.5083
 9060TIP3    H148595   1.664   0.066   5.861 -0.8654 -0.1861  1.6886
 9060TIP3    H248596   1.755   0.102   5.977 -3.1085  1.6343  2.9767
 9061TIP3   OH248597   6.323   5.669   3.717  0.5889 -0.2776  0.6840
 9061TIP3    H148598   6.301   5.762   3.706  2.2883  0.3965  2.4666
 9061TIP3    H248599   6.418   5.666   3.710  0.5081 -2.0289 -0.0734
 9062TIP3   OH248600   2.336   3.990  14.479 -0.1450 -0.1841 -0.1351
 9062TIP3    H148601   2.373   4.044  14.548 -0.2489 -0.0827 -0.1590
 9062TIP3    H248602   2.331   4.048  14.403 -0.5711 -0.1307 -0.0662
 9063TIP3   OH248603   5.665   2.346   5.026 -0.1756 -0.5347 -0.0952
 9063TIP3    H148604   5.667   2.333   5.121 -0.0818 -0.0436 -0.0229
 9063TIP3    H248605   5.626   2.434   5.015  0.8510 -0.1126 -0.4581
 9064TIP3   OH248606   2.403   1.856  16.663 -0.2011  0.2021  0.3859
 9064TIP3    H148607   2.363   1.838  16.578 -1.2672  1.9790  0.4549
 9064TIP3    H248608   2.435   1.771  16.694 -2.5877 -1.0578 -0.3750
 9065TIP3   OH248609   3.485   0.982   2.952 -0.0980  0.1954 -0.3238
 9065TIP3    H148610   3.564   1.024   2.983  0.2484 -0.2093 -0.6374
 9065TIP3    H248611   3.487   0.894   2.991 -0.3246  0.1371 -0.4378
 9066TIP3   OH248612   2.576   1.846   1.944  0.0762  0.0521  0.7480
 9066TIP3    H148613   2.621   1.797   2.012 -0.5876  0.5721  1.5713
 9066TIP3    H248614   2.631   1.923   1.929  0.0399  0.1160  0.9455
 9067TIP3   OH248615   6.043   6.764   5.575 -0.4343 -1.1953  0.0692
 9067TIP3    H148616   6.108   6.697   5.552 -0.9225 -0.7638 -3.0441
 9067TIP3    H248617   6.093   6.844   5.589 -0.1377 -1.2447 -0.6628
 9068TIP3   OH248618   2.706   1.532   2.900 -0.0806 -0.0046  0.1774
 9068TIP3    H148619   2.727   1.622   2.921  0.5310  0.0221 -0.5252
 9068TIP3    H248620   2.640   1.538   2.831  0.8991 -0.0772 -0.7915
 9069TIP3   OH248621   5.104   0.038  12.119  0.8289  0.2468 -0.2534
 9069TIP3    H148622   5.090   0.096  12.194 -0.5322 -0.3491 -0.0090
 9069TIP3    H248623   5.167  -0.026  12.150  2.8229  1.8764 -0.7178
 9070TIP3   OH248624   4.958   1.536  16.922 -0.0138 -0.3922 -0.2351
 9070TIP3    H148625   4.889   1.517  16.986 -0.0868 -1.4120 -0.5923
 9070TIP3    H248626   4.915   1.588  16.855  0.3846  1.8871  1.1868
 9071TIP3   OH248627   6.047   4.751   5.279 -0.3293  0.2124  0.1123
 9071TIP3    H148628   6.104   4.824   5.302 -0.6601  0.9608 -1.3487
 9071TIP3    H248629   6.001   4.730   5.361  1.4695  0.0643  1.1282
 9072TIP3   OH248630   4.902   1.704  13.603 -0.3468  0.3104 -0.4457
 9072TIP3    H148631   4.923   1.794  13.626  0.8144 -0.0565 -0.0078
 9072TIP3    H248632   4.897   1.659  13.687 -0.2505 -0.1764 -0.6992
 9073TIP3   OH248633   0.091   0.940   2.738 -0.0131  0.3904 -0.7291
 9073TIP3    H148634   0.036   0.863   2.726  0.9178 -0.1459 -1.7885
 9073TIP3    H248635   0.041   0.997   2.795 -1.5712 -0.1759 -1.4815
 9074TIP3   OH248636   3.609   4.909  12.280 -0.2666  0.5372 -0.2229
 9074TIP3    H148637   3.559   4.841  12.235 -0.0758 -0.5673  1.1683
 9074TIP3    H248638   3.692   4.913  12.233 -0.5099  0.2563 -0.6915
 9075TIP3   OH248639   4.494   4.152  12.203 -0.1978  0.0775  0.4106
 9075TIP3    H148640   4.575   4.102  12.188  0.9558  2.0706 -0.4296
 9075TIP3    H248641   4.506   4.191  12.289 -0.9752 -0.8483  0.9489
 9076TIP3   OH248642   2.963   0.634  16.965  0.1815  0.5334  0.2649
 9076TIP3    H148643   2.880   0.680  16.954 -0.0133 -0.0843 -1.0405
 9076TIP3    H248644   2.963   0.608  17.057 -1.2772  0.1786  0.1962
 9077TIP3   OH248645   6.644   3.210  11.900 -0.4616  0.1487 -0.2214
 9077TIP3    H148646   6.613   3.247  11.982  0.3675  0.4876 -0.0404
 9077TIP3    H248647   6.568   3.166  11.862 -0.5716 -0.9606  1.2464
 9078TIP3   OH248648   1.539   0.939  16.176 -0.2125 -0.3010 -0.3949
 9078TIP3    H148649   1.461   0.991  16.157  0.0057 -0.1003 -0.7456
 9078TIP3    H248650   1.540   0.932  16.272  1.0165  2.3315 -0.1179
 9079TIP3   OH248651   1.388   6.288   4.234 -0.5056  0.6413 -0.0932
 9079TIP3    H148652   1.389   6.196   4.262  0.8652  0.6932  0.0780
 9079TIP3    H248653   1.345   6.285   4.148 -2.2359  0.1212  0.7419
 9080TIP3   OH248654   4.248   4.661  11.915  0.0356 -0.1224 -0.0562
 9080TIP3    H148655   4.310   4.693  11.981  0.3086  1.3743 -0.9958
 9080TIP3    H248656   4.238   4.567  11.935 -1.3395  0.5871  3.2589
 9081TIP3   OH248657   1.879   4.861  12.881 -0.4371 -0.0383  0.1353
 9081TIP3    H148658   1.926   4.779  12.868 -0.5828 -0.0665 -0.2090
 9081TIP3    H248659   1.947   4.928  12.883 -0.3544 -0.1195  0.0079
 9082TIP3   OH248660   6.145   4.534   3.316 -0.2576  0.6374 -0.1603
 9082TIP3    H148661   6.061   4.507   3.351  2.1273 -1.8548  4.5453
 9082TIP3    H248662   6.161   4.620   3.356 -0.1529  0.6712 -0.2757
 9083TIP3   OH248663   3.523   1.967   4.092 -0.1695  0.2075 -0.0096
 9083TIP3    H148664   3.460   1.971   4.020  0.2131  0.2578 -0.3461
 9083TIP3    H248665   3.575   1.889   4.074 -2.5050 -2.0919  2.2672
 9084TIP3   OH248666   0.008   6.762  13.902  0.5325 -0.2043 -0.4672
 9084TIP3    H148667   0.091   6.714  13.897 -0.1936 -1.4387 -1.1844
 9084TIP3    H248668   0.023   6.840  13.848  1.6417  0.2840  0.5017
 9085TIP3   OH248669   4.881   3.436   4.823 -0.7400  0.2418  0.0629
 9085TIP3    H148670   4.836   3.469   4.902  1.7345  0.7104  1.3748
 9085TIP3    H248671   4.875   3.341   4.831 -2.1856  0.2792 -0.2543
 9086TIP3   OH248672   2.913   0.113   1.174  0.2503  0.4098  0.1965
 9086TIP3    H148673   2.988   0.172   1.190 -0.1212  1.0162 -0.2778
 9086TIP3    H248674   2.870   0.107   1.259  1.4807 -0.8745  0.7733
 9087TIP3   OH248675   0.266   4.369   2.402 -0.0598 -0.5124 -0.3784
 9087TIP3    H148676   0.294   4.369   2.494  0.3305  0.4501 -0.4899
 9087TIP3    H248677   0.346   4.384   2.352 -0.3432 -0.5694 -0.8565
 9088TIP3   OH248678   4.440   1.898   0.858  0.6471 -0.0739  0.8171
 9088TIP3    H148679   4.530   1.908   0.891  1.2095 -1.8888 -0.0095
 9088TIP3    H248680   4.403   1.829   0.914 -1.2099  2.4268  2.9050
 9089TIP3   OH248681   3.042   2.042  13.716 -0.3729  0.0421  0.1857
 9089TIP3    H148682   3.096   2.114  13.748 -0.4393 -0.6925  2.0352
 9089TIP3    H248683   3.092   1.963  13.737 -1.5129 -0.5848  0.6461
 9090TIP3   OH248684   2.083   4.426  16.232  0.2289 -0.0024  0.5324
 9090TIP3    H148685   2.017   4.366  16.197 -1.0132  0.9840  1.1234
 9090TIP3    H248686   2.166   4.377  16.224 -0.6680 -1.6019  0.5490
 9091TIP3   OH248687   2.971   3.228   3.748 -0.0250 -0.3859 -0.0644
 9091TIP3    H148688   2.883   3.211   3.715  0.4392  0.3169 -1.7643
 9091TIP3    H248689   3.027   3.225   3.671  1.7057 -2.2845  1.1717
 9092TIP3   OH248690   5.380   0.204  15.842 -0.0403 -0.6815 -0.4458
 9092TIP3    H148691   5.305   0.222  15.900 -1.0950 -0.1038 -1.9295
 9092TIP3    H248692   5.424   0.129  15.883  0.1078  0.5616  1.8601
 9093TIP3   OH248693   2.903   1.284  15.223  0.1132 -0.3901  0.4436
 9093TIP3    H148694   2.902   1.296  15.128 -0.1703  4.8683  0.8643
 9093TIP3    H248695   2.853   1.203  15.237  0.0577 -1.3334 -3.7789
 9094TIP3   OH248696   0.324   5.633  10.452  0.1793 -0.5446  0.0308
 9094TIP3    H148697   0.257   5.681  10.403  0.5808 -0.9201 -0.9297
 9094TIP3    H248698   0.396   5.694  10.461 -0.0919 -0.3044  0.6251
 9095TIP3   OH248699   0.097   5.430  13.026  0.5831  0.7586  0.0585
 9095TIP3    H148700   0.158   5.356  13.023 -0.7458 -0.3989  0.5210
 9095TIP3    H248701   0.011   5.391  13.011 -0.2412  2.0923  1.0840
 9096TIP3   OH248702   1.296   2.068  12.129  0.2281 -0.1026 -0.5198
 9096TIP3    H148703   1.361   2.034  12.191 -0.2129  1.8604  1.1596
 9096TIP3    H248704   1.212   2.045  12.168 -0.0606  0.3487 -0.8613
 9097TIP3   OH248705   0.541   5.458  14.125 -0.0788 -0.4993 -0.0348
 9097TIP3    H148706   0.487   5.406  14.066 -0.6197 -0.0165  0.0287
 9097TIP3    H248707   0.493   5.540  14.137  0.5320 -0.1710  0.2417
 9098TIP3   OH248708   5.485   5.592  10.813  1.0054  0.2734  0.2388
 9098TIP3    H148709   5.517   5.519  10.760  0.4457  0.0028  0.2666
 9098TIP3    H248710   5.562   5.648  10.825  1.2739  0.0438 -0.3656
 9099TIP3   OH248711   1.467   5.426  16.655  0.3936 -0.4165 -0.1509
 9099TIP3    H148712   1.507   5.382  16.730 -0.6406  1.3230  1.5263
 9099TIP3    H248713   1.381   5.385  16.647  0.4479 -0.5027 -0.2936
 9100TIP3   OH248714   4.053   0.051  10.734  0.4738  0.5411 -0.5290
 9100TIP3    H148715   4.068   0.138  10.698  1.6008  0.4860 -0.2466
 9100TIP3    H248716   4.135   0.004  10.718  0.0999 -0.2707 -0.1354
 9101TIP3   OH248717   1.991   0.747   1.048  0.2086 -0.1907 -0.1999
 9101TIP3    H148718   2.064   0.737   1.110  1.4751  0.5972 -1.4854
 9101TIP3    H248719   1.955   0.833   1.067  1.3755  0.5785 -1.2762
 9102TIP3   OH248720   6.471   0.818  11.267  0.1286  0.1800  1.0991
 9102TIP3    H148721   6.399   0.757  11.252 -1.1174  1.4835  1.5822
 9102TIP3    H248722   6.549   0.763  11.267 -0.6412 -1.0698 -1.2575
 9103TIP3   OH248723   4.007   0.835   2.764  0.1393  0.0111  0.2027
 9103TIP3    H148724   4.086   0.830   2.711  0.9637  0.0810  1.3950
 9103TIP3    H248725   3.937   0.805   2.705  1.5058 -3.5146  0.0913
 9104TIP3   OH248726   5.613   6.134   4.989 -0.0682  0.1291 -0.6688
 9104TIP3    H148727   5.562   6.121   5.069  0.7164  0.2069 -0.1494
 9104TIP3    H248728   5.587   6.061   4.932  0.4475 -0.7651  0.2148
 9105TIP3   OH248729   0.753   4.168  13.782  0.2599 -0.3725 -0.0702
 9105TIP3    H148730   0.752   4.262  13.761  0.8325  0.1571  2.0256
 9105TIP3    H248731   0.667   4.152  13.822  1.0668 -0.1385  1.8266
 9106TIP3   OH248732   5.368   0.173   2.907 -0.5357  0.5824 -0.4189
 9106TIP3    H148733   5.286   0.205   2.942 -1.2778 -1.5968 -0.0250
 9106TIP3    H248734   5.425   0.162   2.983 -0.5923  0.1408 -0.4377
 9107TIP3   OH248735   5.094   0.611  15.966 -0.4418 -0.5384 -0.3330
 9107TIP3    H148736   5.048   0.645  16.043  1.0901 -1.6279  1.1372
 9107TIP3    H248737   5.158   0.679  15.945 -1.3486  0.0919 -1.1508
 9108TIP3   OH248738   5.866   3.647  11.092 -0.3105 -0.3270 -0.3523
 9108TIP3    H148739   5.796   3.703  11.128 -1.6421 -1.7062 -0.7166
 9108TIP3    H248740   5.846   3.641  10.999  1.1489  0.4085 -0.7461
 9109TIP3   OH248741   5.382   0.461   4.417  0.0583 -0.4506 -0.0211
 9109TIP3    H148742   5.464   0.445   4.369 -0.4468 -0.6218 -0.8549
 9109TIP3    H248743   5.384   0.398   4.489  1.1587  0.2799  0.6226
 9110TIP3   OH248744   3.288   0.637  15.765 -0.2711  0.4500  0.3837
 9110TIP3    H148745   3.360   0.576  15.747 -1.2831 -0.5089 -0.5898
 9110TIP3    H248746   3.314   0.718  15.720  0.0120 -0.0208 -0.3250
 9111TIP3   OH248747   4.484   0.672  12.247 -0.0804  0.3285  0.2268
 9111TIP3    H148748   4.469   0.672  12.342 -0.0802  1.3051  0.2367
 9111TIP3    H248749   4.578   0.656  12.238  0.1419  1.4086  0.4513
 9112TIP3   OH248750   5.772   4.829   2.420  0.2901 -0.4169  0.3647
 9112TIP3    H148751   5.735   4.788   2.499 -1.1012  1.0042  0.5169
 9112TIP3    H248752   5.733   4.781   2.347  0.4321 -0.7998  0.5396
 9113TIP3   OH248753   2.662   1.037  12.736  0.0798  0.0650 -0.3755
 9113TIP3    H148754   2.647   1.046  12.642 -1.9480  1.1293 -0.0032
 9113TIP3    H248755   2.609   0.961  12.761  0.3024  0.0239 -0.0246
 9114TIP3   OH248756   4.342   2.945  11.363  0.2099 -0.0926  0.1256
 9114TIP3    H148757   4.416   2.896  11.400  0.7605  0.0081 -0.8289
 9114TIP3    H248758   4.374   3.035  11.356  0.4332 -0.2690 -1.4083
 9115TIP3   OH248759   4.419   1.652   5.891  0.3276  0.2096  0.2740
 9115TIP3    H148760   4.348   1.640   5.828  0.3499  0.1295  0.2633
 9115TIP3    H248761   4.403   1.584   5.957  1.2222 -0.7558 -0.4753
 9116TIP3   OH248762   3.575   2.529  16.507 -0.4391 -0.2171 -0.4171
 9116TIP3    H148763   3.516   2.480  16.564  0.4348  1.3121  1.9664
 9116TIP3    H248764   3.640   2.567  16.566  0.6094  1.4288 -2.4664
 9117TIP3   OH248765   3.103   2.805   3.159  0.5378  0.0635 -0.5328
 9117TIP3    H148766   3.140   2.859   3.228 -1.5369 -0.1178  0.7805
 9117TIP3    H248767   3.075   2.725   3.203 -0.1937 -0.3538 -1.7090
 9118TIP3   OH248768   1.802   0.334  12.541  0.1489 -0.1653  0.1315
 9118TIP3    H148769   1.761   0.295  12.618 -0.4571 -0.2868 -0.2467
 9118TIP3    H248770   1.816   0.260  12.482 -0.9032  0.1492 -0.5439
 9119TIP3   OH248771   3.737   3.282  15.707 -0.2368 -0.1183 -0.0187
 9119TIP3    H148772   3.761   3.365  15.748  0.5092 -0.3153 -0.0403
 9119TIP3    H248773   3.721   3.222  15.780 -0.5421 -0.0272 -0.0069
 9120TIP3   OH248774   1.123   4.872  14.487 -0.2462  0.0813 -0.1177
 9120TIP3    H148775   1.214   4.850  14.506 -0.0031  0.2728 -1.0117
 9120TIP3    H248776   1.074   4.845  14.565  0.6848  0.7097  0.7025
 9121TIP3   OH248777   4.869   5.224  13.927  0.0027 -0.4012 -0.0963
 9121TIP3    H148778   4.917   5.306  13.916 -0.7794 -0.1045 -1.7548
 9121TIP3    H248779   4.812   5.239  14.002 -0.0231  0.5367 -0.2856
 9122TIP3   OH248780   5.116   6.056  13.740 -0.1692  0.0862  0.7214
 9122TIP3    H148781   5.137   6.131  13.796  1.6209  0.8553 -0.8779
 9122TIP3    H248782   5.177   5.988  13.769  1.5932  0.8580 -0.9321
 9123TIP3   OH248783   5.809   0.625   1.976  0.3565  0.3602  0.5267
 9123TIP3    H148784   5.843   0.639   1.888 -1.6980 -1.0887 -0.5877
 9123TIP3    H248785   5.746   0.696   1.989  0.6112  0.5366  0.8299
 9124TIP3   OH248786   5.978   3.839   4.885 -0.0604  0.2457 -0.2681
 9124TIP3    H148787   5.940   3.918   4.846  1.0725 -0.4309 -2.9915
 9124TIP3    H248788   6.071   3.844   4.863  0.2048 -1.3797  0.3681
 9125TIP3   OH248789   0.087   0.918  13.866  0.5178  0.1338  0.1854
 9125TIP3    H148790   0.042   0.997  13.833 -0.5037 -1.3285 -2.1706
 9125TIP3    H248791   0.178   0.929  13.839  0.1281 -0.0276 -1.2469
 9126TIP3   OH248792   0.673   4.747  15.927 -0.2416  0.5263  0.1136
 9126TIP3    H148793   0.685   4.753  15.832  0.9465 -1.2424  0.1043
 9126TIP3    H248794   0.599   4.686  15.938 -0.7637  1.1872  0.3328
 9127TIP3   OH248795   6.508   0.061  12.985  0.2421  0.1689  0.0441
 9127TIP3    H148796   6.508   0.136  12.926  2.6018  0.2853  0.0789
 9127TIP3    H248797   6.506  -0.015  12.927 -1.1492  0.2394 -0.0240
 9128TIP3   OH248798   2.536   0.123  12.652  0.3689  0.3931  0.3706
 9128TIP3    H148799   2.460   0.153  12.702  0.1336 -0.9458  0.8334
 9128TIP3    H248800   2.501   0.103  12.565  0.0856 -0.7115  0.7333
 9129TIP3   OH248801   1.300   5.958  12.791  0.6417  0.4119 -0.3204
 9129TIP3    H148802   1.297   6.021  12.863 -0.4111 -0.0364  0.0539
 9129TIP3    H248803   1.270   5.876  12.831 -1.9987  0.6015 -1.6922
 9130TIP3   OH248804   3.488   3.845  12.563 -0.1289  0.1030 -0.3469
 9130TIP3    H148805   3.501   3.753  12.586 -0.2947  0.5669  1.7937
 9130TIP3    H248806   3.393   3.857  12.563 -0.1207  0.1937 -1.0147
 9131TIP3   OH248807   1.518   1.013  13.597  0.6737 -0.3684 -0.2112
 9131TIP3    H148808   1.562   1.071  13.534  1.4646  0.6893  1.2530
 9131TIP3    H248809   1.546   0.925  13.571 -0.1480 -0.1237 -2.1659
 9132TIP3   OH248810   3.945   3.077   0.804 -0.4161 -0.5181 -0.1784
 9132TIP3    H148811   4.009   3.140   0.771 -0.7960  0.5323  1.0239
 9132TIP3    H248812   3.868   3.090   0.748 -0.5720  0.2697  0.2009
 9133TIP3   OH248813   2.095   4.314   1.435 -0.2088  0.4536 -0.0320
 9133TIP3    H148814   2.096   4.226   1.471  0.8159  0.6822  0.5340
 9133TIP3    H248815   2.032   4.361   1.490 -1.3363 -0.0989 -0.8137
 9134TIP3   OH248816   3.164   1.011  15.214  0.3569 -0.0678  0.4777
 9134TIP3    H148817   3.104   0.980  15.283  1.7547 -1.7420  1.0055
 9134TIP3    H248818   3.237   1.050  15.262  1.3261 -1.2141 -0.0310
 9135TIP3   OH248819   5.815   3.247  15.721  0.3136 -0.1105  0.5518
 9135TIP3    H148820   5.826   3.163  15.675  0.6988 -0.7918  1.8325
 9135TIP3    H248821   5.727   3.276  15.697  0.7390 -0.1056 -1.1243
 9136TIP3   OH248822   4.753   1.214  15.945  0.3179  0.3090 -0.0729
 9136TIP3    H148823   4.662   1.183  15.940  0.7386 -1.0220  0.1668
 9136TIP3    H248824   4.774   1.211  16.038  1.0679 -0.8594 -0.2506
 9137TIP3   OH248825   6.142   5.248   1.960 -0.0582 -0.2398 -0.2391
 9137TIP3    H148826   6.064   5.304   1.958  0.0685 -0.0733 -0.9430
 9137TIP3    H248827   6.165   5.242   2.052 -0.0669  0.8883 -0.1523
 9138TIP3   OH248828   6.542   4.581   1.818 -0.5757  0.1656  0.4226
 9138TIP3    H148829   6.586   4.534   1.889  0.4779  1.5617  0.7453
 9138TIP3    H248830   6.578   4.542   1.738 -0.4426 -0.2296  0.6714
 9139TIP3   OH248831   4.868   5.987   6.200  0.5089 -0.1788  0.2579
 9139TIP3    H148832   4.856   6.080   6.218  0.4791  0.2611 -1.7680
 9139TIP3    H248833   4.956   5.981   6.163 -0.0890 -0.6571 -1.1686
 9140TIP3   OH248834   6.303   1.302   0.399  0.0193 -0.0791  0.6054
 9140TIP3    H148835   6.215   1.308   0.361  0.2164 -0.7854  0.0150
 9140TIP3    H248836   6.328   1.211   0.387  1.3005  0.3662 -0.3024
 9141TIP3   OH248837   0.315   6.721   5.406  0.1346 -0.6475 -0.0316
 9141TIP3    H148838   0.356   6.729   5.492  0.4379  0.9341 -0.2923
 9141TIP3    H248839   0.252   6.650   5.416 -0.3818  0.0061  1.7308
 9142TIP3   OH248840   1.300   4.822  14.866 -0.4518  0.0263 -0.0668
 9142TIP3    H148841   1.335   4.853  14.950 -1.0797  2.3336 -0.5936
 9142TIP3    H248842   1.211   4.793  14.886 -1.1072  1.8557 -0.0953
 9143TIP3   OH248843   6.387   5.124  10.946 -0.1634  0.0971  0.8255
 9143TIP3    H148844   6.393   5.140  10.852  1.0301  2.2795  1.2112
 9143TIP3    H248845   6.407   5.031  10.956  0.5125  0.0116 -0.9923
 9144TIP3   OH248846   0.592   1.264   3.654  0.1991  0.2067  0.0574
 9144TIP3    H148847   0.524   1.230   3.713 -0.2025  1.4509  0.3322
 9144TIP3    H248848   0.655   1.306   3.713  1.3297 -1.0730 -0.1767
 9145TIP3   OH248849   6.074   3.670  14.907  0.2507 -0.4978  0.2958
 9145TIP3    H148850   6.140   3.648  14.841 -0.9864 -1.9671 -0.5074
 9145TIP3    H248851   6.051   3.761  14.889  0.3364 -0.7068 -0.9411
 9146TIP3   OH248852   1.151   3.321   6.294  0.4709 -0.3060  0.6309
 9146TIP3    H148853   1.152   3.417   6.298 -0.1979 -0.2231 -0.8097
 9146TIP3    H248854   1.074   3.296   6.345 -1.3938  0.1481 -1.7727
 9147TIP3   OH248855   6.348   5.445  13.329 -0.7874  0.0977  0.1367
 9147TIP3    H148856   6.263   5.481  13.353 -0.4984  1.6654 -1.0194
 9147TIP3    H248857   6.409   5.518  13.340  0.0785 -0.4420 -0.9005
 9148TIP3   OH248858   5.355   3.622   6.406 -0.2177 -0.5373 -0.2102
 9148TIP3    H148859   5.378   3.715   6.412 -0.1274 -0.4772 -1.2806
 9148TIP3    H248860   5.264   3.618   6.436 -0.1632 -0.1310  0.0176
 9149TIP3   OH248861   2.116   2.407  15.772 -0.5210 -0.0336 -0.6623
 9149TIP3    H148862   2.127   2.339  15.706 -1.4327 -0.9857  0.1276
 9149TIP3    H248863   2.072   2.478  15.726  0.1881 -0.0927 -1.4328
 9150TIP3   OH248864   0.397   5.398   0.530  0.4044  0.1420 -0.3432
 9150TIP3    H148865   0.373   5.483   0.568 -1.8369 -0.8720  0.7459
 9150TIP3    H248866   0.356   5.398   0.444  1.4522  0.6244 -0.8475
 9151TIP3   OH248867   1.270   6.541   2.892  0.0700  0.3422 -0.5902
 9151TIP3    H148868   1.180   6.545   2.923  0.3949 -1.4069  0.7644
 9151TIP3    H248869   1.264   6.552   2.797 -1.8748 -2.0619 -0.8591
 9152TIP3   OH248870   0.703   3.328   4.159  0.3640  0.2879  0.2512
 9152TIP3    H148871   0.660   3.318   4.244 -0.7245  1.5476 -0.1193
 9152TIP3    H248872   0.765   3.256   4.155 -0.8999 -0.9128  1.3133
 9153TIP3   OH248873   5.477   5.706   4.953 -0.0293  0.2678 -0.4511
 9153TIP3    H148874   5.502   5.615   4.971  1.8800  0.8106 -0.1576
 9153TIP3    H248875   5.384   5.700   4.928 -0.6383 -1.4691  1.8358
 9154TIP3   OH248876   1.472   0.898  14.174  0.0019 -0.2123 -0.2449
 9154TIP3    H148877   1.516   0.840  14.111  1.7431 -0.1937  0.8801
 9154TIP3    H248878   1.446   0.839  14.245  0.6889  0.1762  0.3422
 9155TIP3   OH248879   4.085   5.412   0.640 -0.4586 -0.1589  0.5156
 9155TIP3    H148880   4.082   5.467   0.561  0.5037 -0.9105 -0.0669
 9155TIP3    H248881   4.163   5.442   0.687  0.2957 -1.2614 -0.0027
 9156TIP3   OH248882   2.826   2.840   4.147  0.0761  0.0113 -0.0432
 9156TIP3    H148883   2.836   2.838   4.242  0.0200  0.5739 -0.0238
 9156TIP3    H248884   2.783   2.924   4.129 -1.9071 -0.9897 -0.3609
 9157TIP3   OH248885   4.331   0.594   0.169 -0.2380  0.2276 -0.3126
 9157TIP3    H148886   4.300   0.552   0.089  0.8188 -0.5303 -0.3464
 9157TIP3    H248887   4.255   0.592   0.228 -0.8944  0.4108 -1.1421
 9158TIP3   OH248888   0.299   4.489  15.514 -0.5238  0.7969  0.3786
 9158TIP3    H148889   0.339   4.553  15.572  0.0892  0.7239  0.0548
 9158TIP3    H248890   0.210   4.521  15.499 -0.0774  1.8300 -0.1590
 9159TIP3   OH248891   6.617   1.893   1.433 -0.0828 -0.1997  1.1770
 9159TIP3    H148892   6.541   1.928   1.387  0.5052  0.1316  0.4460
 9159TIP3    H248893   6.585   1.874   1.522 -0.7869  0.7604  1.1369
 9160TIP3   OH248894   6.297   2.855   6.705  0.3384  0.1339 -0.2908
 9160TIP3    H148895   6.374   2.801   6.687 -0.8358 -1.4607 -0.7547
 9160TIP3    H248896   6.246   2.852   6.624 -0.3998  0.8619  0.1254
 9161TIP3   OH248897   5.840   5.313  17.154  0.0563  0.0407  0.5765
 9161TIP3    H148898   5.802   5.232  17.187 -2.2054  0.6575 -0.3132
 9161TIP3    H248899   5.855   5.366  17.232 -0.9475 -0.2256  0.9605
 9162TIP3   OH248900   4.175   4.572   5.845 -0.3965 -0.0752 -0.3820
 9162TIP3    H148901   4.138   4.599   5.930 -0.1362 -1.5145  0.2234
 9162TIP3    H248902   4.098   4.555   5.790 -0.5693  1.8570 -0.8088
 9163TIP3   OH248903   2.266   6.243   2.917 -0.1572 -0.7370  0.0680
 9163TIP3    H148904   2.342   6.202   2.875  1.6001  0.1685  2.1797
 9163TIP3    H248905   2.226   6.172   2.968  1.1292 -0.5645  1.3768
 9164TIP3   OH248906   0.341   1.044  11.502  0.4479  1.3267  0.3761
 9164TIP3    H148907   0.394   1.123  11.505  0.7989  1.0857  0.5798
 9164TIP3    H248908   0.262   1.070  11.455  1.5482  1.1986 -1.6338
 9165TIP3   OH248909   4.462   2.645   0.916 -0.4682 -0.0477 -0.0146
 9165TIP3    H148910   4.384   2.681   0.959  0.3098 -0.2109  1.5923
 9165TIP3    H248911   4.435   2.557   0.889 -0.9080 -0.0403  0.3785
 9166TIP3   OH248912   6.258   3.461  13.430  0.2867  0.6750 -0.7784
 9166TIP3    H148913   6.173   3.462  13.387 -0.2537  1.2489  0.2362
 9166TIP3    H248914   6.237   3.468  13.524  1.4478  0.8415 -0.5131
 9167TIP3   OH248915   5.682   0.053  15.287 -0.2214 -0.1556 -0.6283
 9167TIP3    H148916   5.732   0.064  15.205  2.4644 -1.5583  0.6733
 9167TIP3    H248917   5.688  -0.041  15.306 -1.0744  0.0891  1.0075
 9168TIP3   OH248918   4.385   4.126  11.777  0.0763  0.8727 -0.3908
 9168TIP3    H148919   4.314   4.188  11.759 -0.6421 -0.1865 -1.3885
 9168TIP3    H248920   4.444   4.135  11.703  0.6803  1.3130  0.1346
 9169TIP3   OH248921   6.480   5.073   3.344 -0.1513  0.2102  0.0017
 9169TIP3    H148922   6.466   5.127   3.422 -1.0183 -0.3603  0.2516
 9169TIP3    H248923   6.471   4.983   3.375 -2.8539  0.0048 -1.1607
 9170TIP3   OH248924   6.644   6.233  10.964  0.3354 -0.0254  0.3649
 9170TIP3    H148925   6.647   6.148  11.008 -1.8927 -0.1256  0.4359
 9170TIP3    H248926   6.616   6.212  10.874  1.8315  0.4695 -0.2436
 9171TIP3   OH248927   4.188   5.191   1.824 -0.2409 -0.0668 -0.3076
 9171TIP3    H148928   4.159   5.237   1.746 -1.0647 -2.6222 -1.6426
 9171TIP3    H248929   4.283   5.189   1.817 -0.3136 -0.3727 -1.3420
 9172TIP3   OH248930   6.104   3.651   3.943 -0.0405  0.3803  0.1363
 9172TIP3    H148931   6.046   3.704   3.997 -1.0447 -0.6681  0.1408
 9172TIP3    H248932   6.047   3.613   3.876  0.5170 -1.0834  0.4475
 9173TIP3   OH248933   5.015   6.623   6.410  0.4943 -0.1492 -0.6431
 9173TIP3    H148934   5.091   6.567   6.393  0.5727  0.3265 -1.9171
 9173TIP3    H248935   5.042   6.678   6.484  1.6259  0.4212 -1.4558
 9174TIP3   OH248936   0.772   3.640  15.279  0.3303 -0.0920 -0.0477
 9174TIP3    H148937   0.797   3.727  15.247 -0.9387 -0.0703 -1.1156
 9174TIP3    H248938   0.676   3.643  15.281  0.2989 -1.2094  0.6757
 9175TIP3   OH248939   6.090   1.369  10.686 -0.0174  0.0620  0.0327
 9175TIP3    H148940   6.170   1.367  10.738  0.5747 -0.1388 -0.8570
 9175TIP3    H248941   6.094   1.453  10.640 -1.3378  0.9872  1.4905
 9176TIP3   OH248942   1.016   0.387   3.683 -0.5158  0.2083  0.0417
 9176TIP3    H148943   1.054   0.426   3.605  1.1730 -0.6269  0.3822
 9176TIP3    H248944   1.008   0.459   3.745  0.4019  0.4586 -0.1122
 9177TIP3   OH248945   1.034   0.307   4.729  0.1841  0.1062  0.6184
 9177TIP3    H148946   0.992   0.250   4.793  0.5222 -1.1724 -0.2722
 9177TIP3    H248947   1.004   0.275   4.644  1.2955  0.5053  0.0519
 9178TIP3   OH248948   2.527   3.591   2.825  0.2473 -0.0279 -0.1885
 9178TIP3    H148949   2.548   3.557   2.737 -0.1033 -1.3610  0.2210
 9178TIP3    H248950   2.483   3.518   2.869  1.1512  0.3277  1.3851
 9179TIP3   OH248951   6.617   2.169  10.816  0.5866  0.0832 -0.2361
 9179TIP3    H148952   6.689   2.117  10.852  0.5446 -1.6491 -2.4098
 9179TIP3    H248953   6.582   2.115  10.745 -2.5952  1.0392  0.4342
 9180TIP3   OH248954   3.010   5.733  14.030 -0.8735 -0.4367 -0.3827
 9180TIP3    H148955   2.940   5.698  13.974 -0.8270 -1.2401  0.0537
 9180TIP3    H248956   3.085   5.742  13.971 -1.0452 -0.5515 -0.6228
 9181TIP3   OH248957   1.377   5.536   4.111 -0.5901 -0.2142  0.4424
 9181TIP3    H148958   1.446   5.498   4.056 -0.4507  1.0282 -0.2840
 9181TIP3    H248959   1.342   5.462   4.159 -0.0174 -1.1885 -0.5748
 9182TIP3   OH248960   3.849   3.837   0.692  0.3184 -0.1368 -0.4704
 9182TIP3    H148961   3.907   3.884   0.752  0.2599  0.9028 -1.1995
 9182TIP3    H248962   3.788   3.790   0.750  1.4864 -0.7528  0.2925
 9183TIP3   OH248963   3.947   5.513   3.729  0.1555 -0.1962 -0.3243
 9183TIP3    H148964   3.940   5.424   3.696  0.2283 -0.2142 -0.2920
 9183TIP3    H248965   3.943   5.504   3.824 -1.2184 -0.0383 -0.3506
 9184TIP3   OH248966   0.457   1.344   5.402  0.1600  0.5347  0.5563
 9184TIP3    H148967   0.539   1.388   5.381 -0.2308  1.2405  0.4732
 9184TIP3    H248968   0.464   1.321   5.494 -0.3498  2.4102  1.1044
 9185TIP3   OH248969   0.672   5.086   0.200  0.7111 -0.2604 -0.1813
 9185TIP3    H148970   0.589   5.084   0.152  1.2942  1.2521 -1.3583
 9185TIP3    H248971   0.685   4.996   0.230 -0.3869 -0.9603 -1.6748
 9186TIP3   OH248972   2.013   0.877  13.775 -0.2796 -0.5433 -0.2748
 9186TIP3    H148973   2.043   0.806  13.832  1.5848  0.6987  0.3817
 9186TIP3    H248974   1.918   0.879  13.787  0.0209 -0.2668  2.9290
 9187TIP3   OH248975   3.561   1.103  16.113 -0.6741  0.1017 -0.0370
 9187TIP3    H148976   3.523   1.056  16.188 -1.4456  0.4113 -0.2213
 9187TIP3    H248977   3.609   1.036  16.064 -1.0542 -0.3193  0.1581
 9188TIP3   OH248978   0.297   5.251   3.665  0.2855 -0.1189  0.0884
 9188TIP3    H148979   0.229   5.203   3.712  0.6605  0.4767  1.2880
 9188TIP3    H248980   0.347   5.183   3.619 -2.5316 -0.4065 -2.8900
 9189TIP3   OH248981   4.355   6.707   1.502 -0.3922 -0.1869  0.6021
 9189TIP3    H148982   4.261   6.713   1.486 -0.3564  1.2540  0.8128
 9189TIP3    H248983   4.383   6.797   1.519  1.1983 -0.4474 -0.4008
 9190TIP3   OH248984   6.512   0.664  10.995  0.1078 -0.8388  0.5367
 9190TIP3    H148985   6.577   0.681  11.063  0.1578  2.1301 -0.1170
 9190TIP3    H248986   6.562   0.663  10.914 -0.3986 -0.5926  0.2174
 9191TIP3   OH248987   0.101   1.238   1.451 -0.6854 -0.6796 -0.7607
 9191TIP3    H148988   0.097   1.282   1.537 -0.4891 -1.1338 -0.5158
 9191TIP3    H248989   0.179   1.184   1.456 -0.6507 -0.6773 -1.2491
 9192TIP3   OH248990   3.585   0.059   4.416 -0.7584  0.7215 -0.0734
 9192TIP3    H148991   3.550  -0.013   4.365 -1.3077  0.3726  0.7702
 9192TIP3    H248992   3.515   0.124   4.417 -0.7740  0.7013  0.2784
 9193TIP3   OH248993   2.285   0.032   5.433 -0.1890  0.0438 -0.2513
 9193TIP3    H148994   2.341   0.062   5.505  1.0285 -0.6482 -0.8590
 9193TIP3    H248995   2.198   0.026   5.471  0.6025 -1.4277  1.5302
 9194TIP3   OH248996   6.351   6.684   1.844  0.2160 -0.3291 -0.1821
 9194TIP3    H148997   6.376   6.762   1.893  1.1224 -0.5649 -0.2543
 9194TIP3    H248998   6.271   6.653   1.888  0.9966 -0.5243  1.1611
 9195TIP3   OH248999   1.402   5.196   2.598  0.2967 -0.2169 -0.0589
 9195TIP3    H149000   1.322   5.179   2.649  0.6948 -0.6237  0.4394
 9195TIP3    H249001   1.428   5.284   2.624  0.2034 -0.2174  0.0405
 9196TIP3   OH249002   1.997   1.629   4.065 -0.1949 -0.0642  0.8122
 9196TIP3    H149003   1.979   1.569   4.138 -1.3599  1.0237  1.4691
 9196TIP3    H249004   2.042   1.703   4.106  1.3621 -0.5177 -0.0169
 9197TIP3   OH249005   4.062   1.970   3.334  0.6700 -0.3638 -0.9697
 9197TIP3    H149006   4.004   2.025   3.282 -1.3181 -0.3634  1.0876
 9197TIP3    H249007   4.078   1.893   3.279 -2.2992 -0.9099 -1.2568
 9198TIP3   OH249008   0.605   0.959   1.606 -0.3455  0.3012  0.1545
 9198TIP3    H149009   0.562   0.880   1.575  0.0383 -0.2043  0.8680
 9198TIP3    H249010   0.573   1.029   1.548 -0.5703 -0.3951 -0.5763
 9199TIP3   OH249011   2.400   1.789  11.638 -0.2786 -0.4469  1.1640
 9199TIP3    H149012   2.486   1.827  11.622 -0.8505  0.6189  0.5723
 9199TIP3    H249013   2.402   1.764  11.730  0.7837 -0.7589  1.0659
 9200TIP3   OH249014   5.761   3.763   1.646  0.3909  0.2050 -0.4957
 9200TIP3    H149015   5.666   3.772   1.640  0.5350  1.3086 -1.4728
 9200TIP3    H249016   5.786   3.824   1.716  0.4710  0.5760 -0.8494
 9201TIP3   OH249017   5.069   0.977  16.287  0.0572  0.0640  0.0787
 9201TIP3    H149018   5.019   0.903  16.250 -0.9222  1.0610 -0.6492
 9201TIP3    H249019   5.157   0.941  16.302 -0.7704 -1.6734  1.1372
 9202TIP3   OH249020   3.976   0.411  15.087 -0.0360  0.0254  0.0716
 9202TIP3    H149021   3.913   0.365  15.143  0.5293  0.8496  1.4302
 9202TIP3    H249022   3.922   0.465  15.029 -0.6977 -2.0599 -1.3569
 9203TIP3   OH249023   2.282   0.032   5.860  0.0398  1.3490  0.0762
 9203TIP3    H149024   2.196   0.007   5.826 -0.7660  2.6984  1.0263
 9203TIP3    H249025   2.273   0.125   5.880  0.8392  0.9060  2.8381
 9204TIP3   OH249026   5.436   0.130   3.680 -0.2757 -0.2805  0.0993
 9204TIP3    H149027   5.383   0.076   3.622 -0.6217 -1.3354  1.3490
 9204TIP3    H249028   5.377   0.151   3.753  0.1702  0.9366  0.1337
 9205TIP3   OH249029   2.912   4.813  12.577 -0.5479  0.8239 -0.6527
 9205TIP3    H149030   2.819   4.834  12.582 -1.1258 -1.4131 -0.9563
 9205TIP3    H249031   2.928   4.793  12.485 -0.2867 -0.7934 -0.2930
 9206TIP3   OH249032   4.186   1.132   2.632 -0.3180  0.0648 -0.3801
 9206TIP3    H149033   4.231   1.166   2.710 -2.0561  0.4335  0.5209
 9206TIP3    H249034   4.141   1.208   2.595 -1.3975 -0.5482 -0.3745
 9207TIP3   OH249035   0.412   1.177  15.649 -0.2654 -0.0891  0.0012
 9207TIP3    H149036   0.377   1.087  15.649 -1.0295  0.1738 -1.5103
 9207TIP3    H249037   0.421   1.199  15.742  1.5038 -2.2970  0.4453
 9208TIP3   OH249038   3.545   5.351  12.502  0.3482 -0.0481 -0.1328
 9208TIP3    H149039   3.602   5.397  12.441  0.5211 -0.8132 -0.5557
 9208TIP3    H249040   3.531   5.265  12.463  2.0483 -1.3088  1.8236
 9209TIP3   OH249041   3.821   6.583   0.450 -0.2979 -0.3894  0.2071
 9209TIP3    H149042   3.914   6.587   0.470 -0.5672 -2.1312  2.2474
 9209TIP3    H249043   3.778   6.578   0.536 -2.2814  0.2781 -0.6766
 9210TIP3   OH249044   2.575   0.503   3.158 -0.2528  0.3491  0.6204
 9210TIP3    H149045   2.491   0.458   3.144  0.6401 -1.2290  0.1193
 9210TIP3    H249046   2.603   0.530   3.071  1.1845 -1.8617  0.3165
 9211TIP3   OH249047   3.196   2.084   3.001  0.1570  0.2468  0.6878
 9211TIP3    H149048   3.287   2.083   3.031  0.6621  0.3407 -0.7438
 9211TIP3    H249049   3.183   2.173   2.966 -0.2441  0.0073  0.2126
 9212TIP3   OH249050   4.584   2.421   1.648 -0.1099  1.1294 -0.1961
 9212TIP3    H149051   4.566   2.508   1.613 -1.8299  0.9893  0.2844
 9212TIP3    H249052   4.500   2.390   1.681  0.6767 -0.3241  0.5301
 9213TIP3   OH249053   3.205   1.565  12.479 -0.0605 -0.0503 -0.4046
 9213TIP3    H149054   3.204   1.475  12.445  2.8523 -1.0990  1.8472
 9213TIP3    H249055   3.298   1.587  12.486 -0.6767  2.6277  0.4381
 9214TIP3   OH249056   5.085   2.076   5.808  0.2576 -0.0102  0.1476
 9214TIP3    H149057   5.179   2.069   5.797  0.5351  0.8458  1.7313
 9214TIP3    H249058   5.063   2.164   5.776 -0.2674 -0.7416 -1.6318
 9215TIP3   OH249059   3.956   5.290   4.192  0.6056  0.5891 -0.4435
 9215TIP3    H149060   3.938   5.197   4.180  0.7090  0.6003 -0.7007
 9215TIP3    H249061   3.877   5.334   4.159  0.6225  0.5972 -0.4725
 9216TIP3   OH249062   1.616   3.031   1.978  0.3995  0.1699 -0.7768
 9216TIP3    H149063   1.602   3.107   2.035  1.3905 -0.2157  0.0066
 9216TIP3    H249064   1.703   3.045   1.940  1.1036 -1.1153  0.2768
 9217TIP3   OH249065   4.281   5.756  14.921  0.5740 -0.8022 -0.2038
 9217TIP3    H149066   4.314   5.673  14.886  0.8709 -1.5217  1.6248
 9217TIP3    H249067   4.235   5.731  15.001 -0.4587  0.6904 -0.2864
 9218TIP3   OH249068   0.904   2.746   1.140 -0.2479 -0.5304  0.1573
 9218TIP3    H149069   0.825   2.695   1.157 -0.3185  0.1837  2.3420
 9218TIP3    H249070   0.976   2.684   1.156 -0.3585 -0.4768  0.9111
 9219TIP3   OH249071   5.757   4.277  15.474  0.7052  0.0080 -0.3678
 9219TIP3    H149072   5.828   4.310  15.419  1.0090  3.8736  1.9482
 9219TIP3    H249073   5.798   4.264  15.560 -0.9524  0.5391  0.5565
 9220TIP3   OH249074   5.365   1.900   5.523 -0.0615  0.1704 -1.0435
 9220TIP3    H149075   5.452   1.863   5.540 -0.5581 -0.5067  0.1277
 9220TIP3    H249076   5.317   1.830   5.478  0.4738  1.1069 -3.1766
 9221TIP3   OH249077   1.584   4.751  16.507 -0.0749 -0.2251  0.6282
 9221TIP3    H149078   1.605   4.669  16.462 -1.3051 -0.3163  0.1745
 9221TIP3    H249079   1.584   4.727  16.600 -1.4174 -1.0316  0.4609
 9222TIP3   OH249080   0.414   0.005  14.789  0.4064  0.0810 -0.4614
 9222TIP3    H149081   0.489  -0.048  14.813  1.4289  1.9433  0.6484
 9222TIP3    H249082   0.449   0.071  14.729 -0.5307  0.4385 -0.6406
 9223TIP3   OH249083   5.997   3.243   0.772 -0.2774 -0.0899  0.1571
 9223TIP3    H149084   5.970   3.265   0.861  1.5980 -0.3129  0.8158
 9223TIP3    H249085   6.051   3.164   0.782  0.1122 -0.0090 -1.1560
 9224TIP3   OH249086   3.848   1.360   1.309  0.2262  0.5374  0.4992
 9224TIP3    H149087   3.819   1.346   1.399 -5.4271 -1.1091 -1.1478
 9224TIP3    H249088   3.816   1.447   1.287  2.3262  1.2798  0.2075
 9225TIP3   OH249089   3.238   1.469   5.527  0.8671 -0.6844  0.4847
 9225TIP3    H149090   3.255   1.473   5.432  1.6616  1.1061  0.6519
 9225TIP3    H249091   3.322   1.442   5.565  0.9764  0.0332  0.7643
 9226TIP3   OH249092   2.959   1.077   1.095 -0.4512  0.4855 -0.3404
 9226TIP3    H149093   2.935   1.134   1.169  0.2878 -2.5946  2.5283
 9226TIP3    H249094   2.888   1.013   1.091  0.2598 -0.2573 -1.3793
 9227TIP3   OH249095   5.120   6.192  17.023 -0.2069 -0.1541 -0.3238
 9227TIP3    H149096   5.140   6.130  16.953 -1.9760 -0.8219 -0.2702
 9227TIP3    H249097   5.187   6.260  17.014  1.3507 -1.6845 -0.8337
 9228TIP3   OH249098   3.924   3.759  11.587 -0.1525  0.3913  0.0688
 9228TIP3    H149099   3.964   3.721  11.509 -0.6400  0.3333 -0.1528
 9228TIP3    H249100   3.982   3.831  11.611  0.0890  0.3023 -0.2470
 9229TIP3   OH249101   4.357   4.361   5.571  0.1511  0.0742  0.0785
 9229TIP3    H149102   4.354   4.442   5.623  0.0548  0.2500 -0.2009
 9229TIP3    H249103   4.372   4.390   5.482 -2.0541 -0.0566 -0.3964
 9230TIP3   OH249104   4.633   4.445  17.224  0.1617 -0.2860 -0.2723
 9230TIP3    H149105   4.692   4.475  17.292  1.5836  1.7951 -2.2787
 9230TIP3    H249106   4.548   4.484  17.246  1.2236  2.6624 -1.0466
 9231TIP3   OH249107   0.365   3.511   6.020 -0.1297  0.3970 -0.2796
 9231TIP3    H149108   0.305   3.585   6.007 -0.2678  0.7520  2.0128
 9231TIP3    H249109   0.308   3.434   6.022 -0.4585  0.6544  1.1237
 9232TIP3   OH249110   5.773   5.932   5.577  0.4143 -0.7284  0.3353
 9232TIP3    H149111   5.868   5.925   5.574  0.3807 -0.9030 -0.6238
 9232TIP3    H249112   5.756   6.026   5.571  0.5018 -0.7832 -1.3160
 9233TIP3   OH249113   1.983   2.973  14.539  0.1485  0.0767 -0.1563
 9233TIP3    H149114   1.993   2.985  14.634 -3.2793  0.8686  0.2355
 9233TIP3    H249115   1.930   3.047  14.511  0.1765 -0.7254 -2.5310
 9234TIP3   OH249116   3.595   1.346   0.286  0.1335  0.1713 -0.2183
 9234TIP3    H149117   3.636   1.305   0.362  0.1883  0.8356  0.1232
 9234TIP3    H249118   3.516   1.388   0.321 -2.3342 -3.1350 -1.2417
 9235TIP3   OH249119   3.132   5.868   6.790 -0.5984  0.5418  0.5470
 9235TIP3    H149120   3.143   5.963   6.790 -0.5579  0.5460 -0.1167
 9235TIP3    H249121   3.219   5.834   6.810 -0.6065  0.6434  0.7600
 9236TIP3   OH249122   6.518   2.275   5.444  0.1936 -0.0244 -0.1179
 9236TIP3    H149123   6.492   2.361   5.409 -0.2766  0.0401  0.3674
 9236TIP3    H249124   6.596   2.251   5.395 -0.7144 -0.1606 -1.5472
 9237TIP3   OH249125   2.942   0.141  11.036  0.2161 -0.1448  0.4374
 9237TIP3    H149126   2.913   0.051  11.027 -1.0469  0.2458  0.4974
 9237TIP3    H249127   3.029   0.142  10.995 -0.1502 -1.1700 -0.3998
 9238TIP3   OH249128   0.343   6.206  13.274 -0.2668  0.3739  0.1208
 9238TIP3    H149129   0.321   6.183  13.184 -0.7975 -0.3483  0.4260
 9238TIP3    H249130   0.438   6.203  13.277 -0.2944 -2.8047  0.3840
 9239TIP3   OH249131   6.670   3.600   6.027  0.1677  0.3050  0.0199
 9239TIP3    H149132   6.690   3.632   6.115 -0.8151 -1.0292  0.7669
 9239TIP3    H249133   6.748   3.554   5.999  0.1323 -0.1201  0.6106
 9240TIP3   OH249134   1.897   2.977  15.077 -0.1872 -0.3561 -0.0618
 9240TIP3    H149135   1.837   3.002  15.147 -2.1596 -0.5851 -1.6093
 9240TIP3    H249136   1.899   2.882  15.079  0.5001 -0.3458  0.2501
 9241TIP3   OH249137   2.807   6.704   2.749 -0.2881 -0.3297 -0.5753
 9241TIP3    H149138   2.805   6.745   2.662 -0.5053  2.3511  0.5889
 9241TIP3    H249139   2.890   6.656   2.750  1.0806  1.8268 -1.3965
 9242TIP3   OH249140   1.952   2.233  11.247  0.0706 -0.0408  0.1846
 9242TIP3    H149141   1.865   2.274  11.249  0.3854  0.6463  0.0237
 9242TIP3    H249142   1.985   2.251  11.159  0.5981  0.1751  0.4211
 9243TIP3   OH249143   5.621   5.591  14.184  0.1870  0.4357  0.2785
 9243TIP3    H149144   5.657   5.520  14.130 -0.3666 -0.3648  0.9513
 9243TIP3    H249145   5.570   5.644  14.122  0.1990 -0.0282 -0.1385
 9244TIP3   OH249146   3.827   0.818  16.705 -0.6992  0.4266 -0.2907
 9244TIP3    H149147   3.869   0.774  16.779  0.8985  0.9032 -0.8922
 9244TIP3    H249148   3.835   0.756  16.633  1.0188  1.4128 -0.9865
 9245TIP3   OH249149   0.314   2.775   5.706  0.2974  0.8654  0.2006
 9245TIP3    H149150   0.343   2.835   5.638  0.8250 -0.4535 -0.7484
 9245TIP3    H249151   0.239   2.820   5.746  1.2360  2.5630  0.1423
 9246TIP3   OH249152   0.481   0.927   1.898 -0.2337 -0.5500  0.1592
 9246TIP3    H149153   0.484   0.846   1.848 -0.1485 -0.2360 -0.3615
 9246TIP3    H249154   0.388   0.951   1.899 -0.3053 -0.8371  0.6222
 9247TIP3   OH249155   4.853   2.971  16.182  0.1147 -0.3833 -0.2274
 9247TIP3    H149156   4.861   2.960  16.277 -3.0303 -0.7789  0.0969
 9247TIP3    H249157   4.839   3.065  16.170 -2.8197 -0.6736  0.1557
 9248TIP3   OH249158   3.488   1.560  15.857 -0.4802  0.1187  0.4534
 9248TIP3    H149159   3.532   1.602  15.931 -0.1833  0.8075 -0.1041
 9248TIP3    H249160   3.557   1.509  15.814 -0.7139 -0.4963  0.8069
 9249TIP3   OH249161   6.586   0.027  13.248 -0.3856 -0.1303  0.3184
 9249TIP3    H149162   6.535   0.043  13.168 -0.2479 -1.3655 -0.0450
 9249TIP3    H249163   6.563   0.099  13.306  0.2244  1.3532 -1.1677
 9250TIP3   OH249164   3.099   2.464  14.049  0.4089 -0.4885 -0.1343
 9250TIP3    H149165   3.064   2.549  14.077  0.5139  0.0374 -1.4965
 9250TIP3    H249166   3.089   2.407  14.125 -1.1671  0.3001  0.2896
 9251TIP3   OH249167   1.008   5.449   2.333  0.2356 -0.0031 -0.5088
 9251TIP3    H149168   1.059   5.402   2.267  1.0932  0.7789 -0.4216
 9251TIP3    H249169   0.917   5.440   2.304  0.3011 -2.0762 -0.2501
 9252TIP3   OH249170   6.299   3.864   3.884  0.8850  0.0770  0.0093
 9252TIP3    H149171   6.295   3.771   3.903  1.0371  0.2734  1.0734
 9252TIP3    H249172   6.266   3.872   3.794 -1.2826 -0.7585  0.6607
 9253TIP3   OH249173   5.510   4.878  11.999  0.0748 -0.0845  0.7617
 9253TIP3    H149174   5.479   4.968  12.001  0.2992 -0.0104  1.4337
 9253TIP3    H249175   5.593   4.881  12.047  1.6368 -0.0941 -1.7806
 9254TIP3   OH249176   1.588   1.505   0.353  0.0934  0.5813  0.0786
 9254TIP3    H149177   1.584   1.453   0.433 -0.3808  0.6267  0.0854
 9254TIP3    H249178   1.672   1.482   0.314  0.0218  0.0375  0.2364
 9255TIP3   OH249179   2.567   4.706  17.235 -0.1182  0.6348  0.0847
 9255TIP3    H149180   2.513   4.756  17.174  0.4120  0.8964 -0.1739
 9255TIP3    H249181   2.508   4.686  17.308 -1.9098 -2.8349 -2.0399
 9256TIP3   OH249182   4.944   1.109   1.024 -0.0588  0.3309  0.9024
 9256TIP3    H149183   4.951   1.175   0.955 -2.7234  1.1711  1.3047
 9256TIP3    H249184   4.963   1.026   0.980  1.4804  1.1268 -0.0514
 9257TIP3   OH249185   4.084   3.853   6.443  0.0292 -0.1886 -0.1403
 9257TIP3    H149186   3.992   3.879   6.439  0.6960  2.5797  0.1508
 9257TIP3    H249187   4.109   3.868   6.535  1.2297  1.1191 -0.6420
 9258TIP3   OH249188   6.612   6.010   3.500  0.0073 -0.2428 -0.0975
 9258TIP3    H149189   6.596   5.987   3.408 -0.0425 -0.2212 -0.0939
 9258TIP3    H249190   6.540   6.067   3.524 -0.3374 -0.7724  0.1482
 9259TIP3   OH249191   3.319   2.273  16.947  0.2290 -0.6237  0.3163
 9259TIP3    H149192   3.389   2.214  16.977 -0.0639 -0.5678  1.1152
 9259TIP3    H249193   3.305   2.333  17.020  0.3665  0.3054 -0.4040
 9260TIP3   OH249194   3.342   1.337   2.202  0.2576 -0.4054  0.5385
 9260TIP3    H149195   3.289   1.274   2.152  0.8009  0.0626 -0.6433
 9260TIP3    H249196   3.425   1.292   2.216  0.5163 -0.1042  0.0072
 9261TIP3   OH249197   1.313   6.068  15.752  0.0198 -0.4091  0.2397
 9261TIP3    H149198   1.266   6.147  15.726 -0.2469 -0.6895 -0.1379
 9261TIP3    H249199   1.254   6.023  15.813  0.0005 -0.5240  0.1357
 9262TIP3   OH249200   1.100   5.483   4.527  0.7309  0.5880  0.3518
 9262TIP3    H149201   1.027   5.427   4.554 -3.4058  3.5217 -3.2206
 9262TIP3    H249202   1.140   5.437   4.453  1.2346 -0.1363  1.0595
 9263TIP3   OH249203   3.016   4.807   1.192 -0.2148 -0.1051 -0.1908
 9263TIP3    H149204   3.019   4.897   1.161 -0.2403 -0.1803 -0.4140
 9263TIP3    H249205   2.965   4.811   1.273 -1.5717 -0.1362 -0.9926
 9264TIP3   OH249206   2.207   0.161   3.062  0.3073  0.1205 -0.0937
 9264TIP3    H149207   2.214   0.110   2.981  1.1505  1.5232 -0.9570
 9264TIP3    H249208   2.166   0.102   3.125  1.5892 -1.7247 -0.9181
 9265TIP3   OH249209   3.829   4.474  16.454 -0.0498 -0.3797  0.0812
 9265TIP3    H149210   3.734   4.479  16.455 -0.0877 -0.9721  1.1879
 9265TIP3    H249211   3.850   4.393  16.501  0.9741 -0.7636 -0.9888
 9266TIP3   OH249212   5.488   3.416   0.959  0.3416  0.0350 -0.5784
 9266TIP3    H149213   5.465   3.501   0.996  2.6941  0.9504 -1.0318
 9266TIP3    H249214   5.474   3.354   1.031  1.1789  1.2211  0.6463
 9267TIP3   OH249215   3.786   3.454  15.945 -0.4177  0.1142  0.0538
 9267TIP3    H149216   3.820   3.503  16.020 -2.1385  0.1724  0.8528
 9267TIP3    H249217   3.847   3.381  15.933  0.4534  0.7019  0.8372
 9268TIP3   OH249218   0.334   4.623   4.594  0.0855  0.2964 -0.6222
 9268TIP3    H149219   0.290   4.674   4.526 -0.8132  1.3919  0.6997
 9268TIP3    H249220   0.263   4.575   4.637  0.6680 -0.5653 -0.5954
 9269TIP3   OH249221   2.579   3.644  14.577  0.2972 -0.2220 -0.2673
 9269TIP3    H149222   2.493   3.670  14.612  0.4662 -1.4910  1.1631
 9269TIP3    H249223   2.622   3.599  14.650  1.4270 -1.3080 -1.5688
 9270TIP3   OH249224   4.288   5.274   3.122  0.1123 -0.0663  0.0274
 9270TIP3    H149225   4.281   5.232   3.037 -0.4336  0.1379 -0.0347
 9270TIP3    H249226   4.378   5.306   3.125  0.5814 -1.3490  0.1423
 9271TIP3   OH249227   2.858   0.423   1.859 -0.5288  0.2161  0.2911
 9271TIP3    H149228   2.882   0.374   1.938 -1.5992  0.9711  1.1091
 9271TIP3    H249229   2.798   0.490   1.890  1.5306  2.6522 -0.6605
 9272TIP3   OH249230   6.744   6.209   3.807  0.0594  0.1032 -0.1958
 9272TIP3    H149231   6.723   6.116   3.800 -0.4689  0.3035 -1.6442
 9272TIP3    H249232   6.840   6.211   3.812  0.2373 -0.4639 -2.3036
 9273TIP3   OH249233   4.881   3.121  14.583 -0.5390 -0.3130  0.1554
 9273TIP3    H149234   4.963   3.140  14.628 -0.4325 -2.7498  1.1329
 9273TIP3    H249235   4.820   3.096  14.652 -1.0556 -1.8994 -0.8086
 9274TIP3   OH249236   2.566   0.546   5.191  0.0985  0.3190  0.0071
 9274TIP3    H149237   2.635   0.515   5.251 -0.3968 -0.7350  0.0562
 9274TIP3    H249238   2.500   0.583   5.249 -0.3068 -0.5525  0.1165
 9275TIP3   OH249239   5.710   2.214   1.164 -0.6016 -0.2975  0.6339
 9275TIP3    H149240   5.714   2.253   1.076 -1.1617 -0.8844  0.3378
 9275TIP3    H249241   5.669   2.281   1.218  0.0150  0.1814  0.5133
 9276TIP3   OH249242   0.549   4.649   1.974  0.7085  0.9980  0.2734
 9276TIP3    H149243   0.560   4.554   1.976 -0.3607  0.8637  0.8517
 9276TIP3    H249244   0.454   4.661   1.965  0.6740  1.9989  1.7180
 9277TIP3   OH249245   2.096   4.177   5.082 -0.3625  0.5180  0.5100
 9277TIP3    H149246   2.024   4.136   5.130 -1.6065 -0.5245 -2.0657
 9277TIP3    H249247   2.116   4.115   5.011  1.3743  1.9679 -0.3461
 9278TIP3   OH249248   0.726   2.644   5.332  0.8000 -0.4345  0.3852
 9278TIP3    H149249   0.714   2.600   5.417  1.5692  1.4470  1.5192
 9278TIP3    H249250   0.781   2.584   5.282  0.4059 -1.5465  1.2280
 9279TIP3   OH249251   1.815   2.393  12.423 -0.3004 -0.1156  0.5102
 9279TIP3    H149252   1.747   2.455  12.449 -1.0332 -1.2819  1.4585
 9279TIP3    H249253   1.878   2.395  12.496 -0.4142 -0.6033  0.6246
 9280TIP3   OH249254   4.314   6.683  17.234  0.0369 -0.3737  0.3775
 9280TIP3    H149255   4.382   6.697  17.168 -0.0101  0.0206  0.4113
 9280TIP3    H249256   4.257   6.759  17.227  0.6736  0.2526  1.6539
 9281TIP3   OH249257   4.303   0.598  11.731 -0.1600  0.1316  0.4338
 9281TIP3    H149258   4.234   0.541  11.696 -1.7217  1.3261  1.4451
 9281TIP3    H249259   4.356   0.540  11.786  0.8307 -1.2184 -1.7857
 9282TIP3   OH249260   0.039   1.764   5.477  0.2026  0.2062  0.0132
 9282TIP3    H149261   0.065   1.673   5.469 -1.3062 -0.2240 -0.4349
 9282TIP3    H249262   0.116   1.814   5.452  1.2954 -0.9149  1.0138
 9283TIP3   OH249263   6.658   1.244  11.601  0.1619 -0.1727  0.2165
 9283TIP3    H149264   6.593   1.177  11.581  1.1145 -0.6477 -1.4347
 9283TIP3    H249265   6.637   1.317  11.542 -0.6638  0.9260  1.7664
 9284TIP3   OH249266   4.346   0.449  10.968  0.0324  0.2257 -0.0685
 9284TIP3    H149267   4.407   0.387  11.008 -1.1127  0.1186  1.5856
 9284TIP3    H249268   4.271   0.450  11.027 -1.2167  0.9961 -1.6099
 9285TIP3   OH249269   2.852   1.431  14.516  0.2617 -0.5493 -0.6405
 9285TIP3    H149270   2.913   1.488  14.469  1.4497 -0.3381  1.0539
 9285TIP3    H249271   2.851   1.350  14.466  0.8045 -0.0354 -1.5099
 9286TIP3   OH249272   0.733   3.941  14.573  0.0691 -0.2257  0.0379
 9286TIP3    H149273   0.776   3.978  14.650 -0.8366  0.0832  0.4040
 9286TIP3    H249274   0.727   3.847  14.591  0.2890 -0.2201  0.1326
 9287TIP3   OH249275   3.440   3.419  15.144 -0.1717 -0.4304  0.5336
 9287TIP3    H149276   3.450   3.373  15.227  2.8671  1.7339  1.5126
 9287TIP3    H249277   3.447   3.512  15.166 -2.2831  0.4316 -1.8321
 9288TIP3   OH249278   5.785   5.429  10.901 -0.4131 -0.3221 -0.0349
 9288TIP3    H149279   5.857   5.462  10.847 -1.7225  0.5331 -1.3325
 9288TIP3    H249280   5.820   5.349  10.941  0.9301 -0.4468 -1.3693
 9289TIP3   OH249281   4.829   2.655   5.540 -0.0911 -0.4425  0.4540
 9289TIP3    H149282   4.922   2.648   5.519 -0.4786 -0.1343 -1.5547
 9289TIP3    H249283   4.825   2.723   5.608  1.2462 -1.4137  1.5571
 9290TIP3   OH249284   6.357   3.873  11.429  0.2491 -0.5368  0.4926
 9290TIP3    H149285   6.293   3.803  11.442  0.9557 -1.1141  0.9457
 9290TIP3    H249286   6.363   3.882  11.334  0.0203 -0.9754  0.4302
 9291TIP3   OH249287   1.318   2.021  16.022 -0.1877 -0.1896 -0.5205
 9291TIP3    H149288   1.312   2.024  16.117  0.1440  2.0371 -0.5120
 9291TIP3    H249289   1.412   2.013  16.004 -0.1178  0.8228 -0.6436
 9292TIP3   OH249290   2.623   3.988   4.791 -0.0333  0.0965  0.1503
 9292TIP3    H149291   2.685   3.940   4.846  0.2753  0.0174 -0.2639
 9292TIP3    H249292   2.591   3.924   4.729 -2.2231 -0.4426  1.7123
 9293TIP3   OH249293   3.035   1.646  11.529  0.0859  0.0978 -0.4046
 9293TIP3    H149294   3.058   1.566  11.482 -0.1040  0.6737 -1.5252
 9293TIP3    H249295   3.003   1.705  11.461  0.1198  1.0902  0.4126
 9294TIP3   OH249296   4.773   1.342  12.787 -0.0398  0.0549 -0.0669
 9294TIP3    H149297   4.861   1.371  12.763  1.2750 -1.5986  2.3070
 9294TIP3    H249298   4.715   1.407  12.748  2.2952  1.9943 -0.5668
 9295TIP3   OH249299   6.236   0.131   0.220 -0.2354  0.0475 -0.1705
 9295TIP3    H149300   6.289   0.089   0.288 -0.7287 -2.2420 -1.1134
 9295TIP3    H249301   6.273   0.218   0.212 -0.7502  0.8194  3.6598
 9296TIP3   OH249302   4.723   4.838   3.990  0.2093  0.2808  0.6951
 9296TIP3    H149303   4.765   4.921   3.967 -0.4214  0.6236  0.7607
 9296TIP3    H249304   4.699   4.799   3.906 -0.6823  0.7969  0.6917
 9297TIP3   OH249305   4.979   2.765  12.448 -0.4721 -0.2566 -0.1765
 9297TIP3    H149306   4.961   2.692  12.388 -0.4078 -1.2628  1.0009
 9297TIP3    H249307   4.892   2.789  12.482 -0.3945 -0.3617  0.0952
 9298TIP3   OH249308   0.473   5.820  12.654  0.0519  0.1614  0.2015
 9298TIP3    H149309   0.568   5.822  12.646  0.2684 -0.7471  2.0278
 9298TIP3    H249310   0.442   5.887  12.593  1.8717  0.7151 -0.1658
 9299TIP3   OH249311   0.793   6.208  13.104  0.1786  0.7611  0.2279
 9299TIP3    H149312   0.804   6.113  13.106 -0.7110  0.6157 -0.9863
 9299TIP3    H249313   0.882   6.242  13.117  0.3885 -0.1983  1.5556
 9300TIP3   OH249314   3.693   3.697   4.745  0.0634 -0.3331  0.5015
 9300TIP3    H149315   3.607   3.666   4.773 -1.1860  0.0693 -2.5244
 9300TIP3    H249316   3.707   3.777   4.796 -1.6797 -0.0612  0.6203
 9301TIP3   OH249317   0.115   1.993   2.201 -0.3146 -0.0930 -0.0687
 9301TIP3    H149318   0.109   2.028   2.112 -0.4986 -2.3777 -1.0416
 9301TIP3    H249319   0.039   1.936   2.210  1.7379 -3.1302 -0.0810
 9302TIP3   OH249320   6.392   0.863  11.738 -0.1895  0.8755 -0.2272
 9302TIP3    H149321   6.374   0.800  11.808 -1.8163  1.3455 -0.1712
 9302TIP3    H249322   6.416   0.809  11.662 -1.5214  0.1695 -0.1677
 9303TIP3   OH249323   4.255   2.332   2.813  0.3271 -0.5757  0.1434
 9303TIP3    H149324   4.187   2.400   2.805  0.8871 -0.0053  0.1422
 9303TIP3    H249325   4.210   2.250   2.793  0.4206  0.1395 -3.5305
 9304TIP3   OH249326   5.628   2.956  14.152  0.0084 -0.8532  0.0900
 9304TIP3    H149327   5.668   2.931  14.235  0.4328 -0.1614  0.1015
 9304TIP3    H249328   5.547   3.000  14.175  1.2601  1.5143  0.2953
 9305TIP3   OH249329   6.364   5.730   0.741  0.1979 -0.3079  0.4889
 9305TIP3    H149330   6.381   5.819   0.773  1.1309 -0.5576  0.7132
 9305TIP3    H249331   6.273   5.732   0.713  0.6416  1.2051 -1.0523
 9306TIP3   OH249332   3.785   3.988   2.951  0.1742  0.4402  0.3534
 9306TIP3    H149333   3.789   3.994   3.047 -1.3162  1.7398  0.3814
 9306TIP3    H249334   3.692   4.000   2.931  0.5860  1.0300 -1.3096
 9307TIP3   OH249335   2.363   5.099  15.904 -0.1436 -0.4271 -0.5371
 9307TIP3    H149336   2.433   5.082  15.966  0.7075  0.4272 -1.2432
 9307TIP3    H249337   2.386   5.182  15.864 -0.4438 -1.1552 -2.3089
 9308TIP3   OH249338   4.560   2.571  16.359  0.3074 -0.7423 -1.1928
 9308TIP3    H149339   4.477   2.618  16.363 -0.4757 -2.0974 -0.8582
 9308TIP3    H249340   4.589   2.567  16.450  0.0738 -1.4019 -1.1461
 9309TIP3   OH249341   0.644   1.121   0.030 -0.1095  0.5444 -0.0864
 9309TIP3    H149342   0.659   1.215   0.021  1.5202  0.6399  2.5059
 9309TIP3    H249343   0.732   1.082   0.026 -0.3564 -0.4249  2.3800
 9310TIP3   OH249344   1.439   4.863  11.363 -0.5924 -0.0268 -0.4166
 9310TIP3    H149345   1.441   4.788  11.422  0.6501  0.5866  0.3614
 9310TIP3    H249346   1.530   4.877  11.338 -0.9640  0.4399 -1.5860
 9311TIP3   OH249347   1.447   4.513  15.342  0.6551 -0.4522 -0.1108
 9311TIP3    H149348   1.416   4.549  15.259  1.5486 -0.1084 -0.3059
 9311TIP3    H249349   1.372   4.464  15.377 -0.3156  0.8784 -0.2516
 9312TIP3   OH249350   4.714   0.980  16.231  0.1737  0.4447 -0.1500
 9312TIP3    H149351   4.668   0.916  16.285  0.5331  0.3682  0.0716
 9312TIP3    H249352   4.688   1.065  16.267 -1.7956  0.5330 -1.6322
 9313TIP3   OH249353   2.819   6.632  16.492 -0.2091  0.6016 -0.0804
 9313TIP3    H149354   2.889   6.635  16.558 -0.4970  0.7401  0.2203
 9313TIP3    H249355   2.748   6.683  16.530 -0.9648 -0.6096  0.1734
 9314TIP3   OH249356   6.481   5.436  15.459 -0.1557 -0.3575  0.0732
 9314TIP3    H149357   6.513   5.525  15.474 -1.2593  0.0855 -0.0682
 9314TIP3    H249358   6.400   5.448  15.409  1.0757 -1.5822 -2.3603
 9315TIP3   OH249359   1.145   0.045   0.839 -0.5811  0.0321 -0.0716
 9315TIP3    H149360   1.085  -0.009   0.889 -0.2010 -2.2519 -1.8975
 9315TIP3    H249361   1.096   0.068   0.760  0.1359  0.1525 -0.4938
 9316TIP3   OH249362   3.203   5.747   5.609 -0.1109 -0.0097 -0.3046
 9316TIP3    H149363   3.254   5.739   5.690  1.3745  0.6340 -1.1234
 9316TIP3    H249364   3.262   5.714   5.541 -1.7504 -1.6477 -1.0232
 9317TIP3   OH249365   4.349   4.618   4.334  0.0628  0.0816 -0.1063
 9317TIP3    H149366   4.293   4.558   4.285 -1.8066  1.1793  0.6053
 9317TIP3    H249367   4.344   4.588   4.424  0.2812  0.4363  0.0252
 9318TIP3   OH249368   3.928   1.747   1.899 -0.3007 -0.6736 -0.4942
 9318TIP3    H149369   3.853   1.732   1.957  0.2945 -2.6158 -0.1525
 9318TIP3    H249370   3.897   1.722   1.812 -0.1004 -1.4425 -0.3584
 9319TIP3   OH249371   3.377   0.215   4.433 -0.1097  0.2025  0.0184
 9319TIP3    H149372   3.305   0.203   4.371  1.7227  0.0464 -2.2339
 9319TIP3    H249373   3.389   0.309   4.439 -0.0335  0.2096 -0.2183
 9320TIP3   OH249374   2.078   0.344   2.861  0.1565  0.1550  0.3478
 9320TIP3    H149375   2.121   0.273   2.909 -0.3568  0.7417  1.7260
 9320TIP3    H249376   1.985   0.322   2.863  0.2145 -0.4398 -1.4944
 9321TIP3   OH249377   5.081   6.579  13.397  0.1312  1.0052 -0.1691
 9321TIP3    H149378   5.133   6.528  13.459 -1.1602  0.4067  0.4475
 9321TIP3    H249379   5.018   6.517  13.361  0.8010  1.3431 -2.0770
 9322TIP3   OH249380   3.829   6.474   6.601  0.2370  0.0346  0.0536
 9322TIP3    H149381   3.800   6.383   6.598  0.4142 -0.0566  0.9557
 9322TIP3    H249382   3.923   6.470   6.582  0.0450  0.1472 -0.9895
 9323TIP3   OH249383   1.069   0.779   0.940  0.5180  0.8459 -0.0815
 9323TIP3    H149384   0.987   0.806   0.980  0.3986  1.0673 -0.4638
 9323TIP3    H249385   1.066   0.817   0.852  0.1460 -0.7930 -0.8043
 9324TIP3   OH249386   4.252   6.610  10.821  1.0976  0.6650  0.2975
 9324TIP3    H149387   4.220   6.529  10.781  2.0991 -0.0569  0.8962
 9324TIP3    H249388   4.254   6.592  10.915  3.5586  0.4805  0.2892
 9325TIP3   OH249389   1.653   0.118   4.332 -0.0330  0.6099  0.2460
 9325TIP3    H149390   1.609   0.186   4.382  1.2747  2.4203 -0.9692
 9325TIP3    H249391   1.588   0.088   4.268 -0.3747  1.2709  0.2857
 9326TIP3   OH249392   4.808   4.718   1.936  0.7322 -0.0328 -0.1903
 9326TIP3    H149393   4.861   4.688   2.010 -0.3596 -2.3942 -0.2618
 9326TIP3    H249394   4.765   4.639   1.904 -1.2807  1.4519 -1.3955
 9327TIP3   OH249395   6.093   2.112   0.550 -0.0340 -0.1001  0.1315
 9327TIP3    H149396   6.141   2.188   0.583 -0.1543 -0.4791  1.2313
 9327TIP3    H249397   6.157   2.065   0.496 -0.1126  1.0282 -0.9975
 9328TIP3   OH249398   1.065   0.311  16.731 -0.2091 -0.4294  0.5327
 9328TIP3    H149399   1.133   0.316  16.798  0.2148  1.4840  0.0166
 9328TIP3    H249400   1.106   0.347  16.652 -1.5926  0.1124  0.0257
 9329TIP3   OH249401   4.206   1.694  13.077 -0.1233  0.0295  0.2838
 9329TIP3    H149402   4.219   1.606  13.112  2.8638 -0.3426 -1.4467
 9329TIP3    H249403   4.255   1.751  13.137 -0.2290  0.2290  0.1822
 9330TIP3   OH249404   5.768   4.533  11.700 -0.2538 -0.2537  0.5256
 9330TIP3    H149405   5.739   4.572  11.617  0.9326 -0.1208  0.1500
 9330TIP3    H249406   5.862   4.522  11.689 -0.3843 -2.2438  1.0283
 9331TIP3   OH249407   6.429   4.956   4.584 -0.0895 -0.1458 -0.1490
 9331TIP3    H149408   6.350   4.939   4.636 -0.6313 -1.1222 -1.2579
 9331TIP3    H249409   6.499   4.911   4.632 -0.4405 -0.4008  0.1318
 9332TIP3   OH249410   0.833   3.395   1.889  0.0339 -0.0450  0.4419
 9332TIP3    H149411   0.820   3.351   1.974  0.5063 -2.8857 -0.8531
 9332TIP3    H249412   0.811   3.328   1.824 -1.1452  2.2972 -1.7485
 9333TIP3   OH249413   3.881   6.615  13.831  0.0300  0.5551 -0.1177
 9333TIP3    H149414   3.897   6.707  13.811  0.7590  0.4161 -0.1901
 9333TIP3    H249415   3.847   6.616  13.921  0.8701  0.8383  0.2131
 9334TIP3   OH249416   6.474   1.502   5.922  0.0784 -0.3540 -0.1700
 9334TIP3    H149417   6.529   1.480   5.847  0.1802 -0.8559  0.0425
 9334TIP3    H249418   6.518   1.461   5.996 -0.1254 -0.0256  0.1300
 9335TIP3   OH249419   6.046   2.889   2.634  0.2130 -0.3892 -0.4182
 9335TIP3    H149420   6.051   2.938   2.716 -0.8258 -0.5119 -0.2682
 9335TIP3    H249421   6.113   2.821   2.643 -0.5050 -0.9717  0.7328
 9336TIP3   OH249422   2.668   2.855  12.274  0.4230 -0.2916 -0.3833
 9336TIP3    H149423   2.575   2.833  12.278 -0.0679  1.6837  0.1179
 9336TIP3    H249424   2.682   2.913  12.348  2.0465 -0.5020 -0.5066
 9337TIP3   OH249425   1.341   2.149  13.803 -0.0949  0.3311  0.4638
 9337TIP3    H149426   1.264   2.148  13.746  0.4041  0.4208 -0.2252
 9337TIP3    H249427   1.416   2.150  13.743  0.4442  0.4366  1.1204
 9338TIP3   OH249428   5.371   5.302  13.470  0.6869  0.1476  0.5076
 9338TIP3    H149429   5.281   5.330  13.454 -0.1359 -1.5129  1.9354
 9338TIP3    H249430   5.415   5.381  13.503 -0.0095  1.1647 -0.8706
 9339TIP3   OH249431   2.857   4.652  15.348  0.0688 -0.4930 -0.5819
 9339TIP3    H149432   2.891   4.636  15.260 -0.3389 -0.4235 -0.7531
 9339TIP3    H249433   2.815   4.737  15.343 -1.2212 -1.1142 -0.7071
 9340TIP3   OH249434   4.859   3.114   4.502  0.1547  0.0097  0.3005
 9340TIP3    H149435   4.802   3.044   4.534 -0.2073  0.6919  1.1642
 9340TIP3    H249436   4.823   3.194   4.539  0.5791  0.6664 -0.6617
 9341TIP3   OH249437   1.173   3.513   4.209  0.0025  0.4292 -0.2169
 9341TIP3    H149438   1.148   3.596   4.169 -0.5579  0.6053  0.4904
 9341TIP3    H249439   1.253   3.487   4.162  1.0631  2.1200  0.5494
 9342TIP3   OH249440   3.666   6.146   1.779 -0.1392 -0.1187 -0.2157
 9342TIP3    H149441   3.644   6.119   1.690 -0.2035  0.4434 -0.3744
 9342TIP3    H249442   3.587   6.189   1.812 -0.8119 -2.0246  0.8269
 9343TIP3   OH249443   0.942   3.286   5.306 -0.4406  0.7606  0.1966
 9343TIP3    H149444   0.858   3.273   5.351 -1.2485  1.3548 -1.0998
 9343TIP3    H249445   0.986   3.353   5.359 -1.2340  1.2120  0.3075
 9344TIP3   OH249446   1.849   1.316  13.736  0.7624  0.3389  0.6442
 9344TIP3    H149447   1.899   1.251  13.785 -0.4429 -2.1687 -1.1924
 9344TIP3    H249448   1.764   1.275  13.722  0.3158  1.8338 -1.5735
 9345TIP3   OH249449   1.956   4.797  15.242  0.6501 -0.6420 -0.4375
 9345TIP3    H149450   1.888   4.761  15.184  0.4393  2.3751 -2.2537
 9345TIP3    H249451   1.908   4.824  15.320 -0.5042  2.0176 -1.9449
 9346TIP3   OH249452   3.700   0.374   5.621  0.0808 -0.2546  0.0176
 9346TIP3    H149453   3.622   0.323   5.599 -0.7218  0.2370  1.5382
 9346TIP3    H249454   3.720   0.424   5.542  0.4803 -2.3555 -1.2860
 9347TIP3   OH249455   4.732   1.248   0.187 -0.4874  0.5912 -0.6232
 9347TIP3    H149456   4.726   1.279   0.277  1.3689  1.2285 -0.6621
 9347TIP3    H249457   4.822   1.215   0.180 -0.2829  1.4262 -2.4889
 9348TIP3   OH249458   2.532   0.850   2.492  0.2154  0.2572 -0.3798
 9348TIP3    H149459   2.462   0.822   2.433  1.0905 -0.9357 -0.9050
 9348TIP3    H249460   2.584   0.771   2.506  0.6037  0.7564  1.2118
 9349TIP3   OH249461   6.653   2.021  15.470 -0.4950 -0.1897  0.0798
 9349TIP3    H149462   6.622   2.078  15.540 -1.3004 -0.5705  0.0490
 9349TIP3    H249463   6.735   2.061  15.441 -0.2883  0.1250  1.0447
 9350TIP3   OH249464   6.178   2.650  13.177  0.2057  0.5362 -0.5731
 9350TIP3    H149465   6.179   2.560  13.146 -3.2569  0.4999 -0.9695
 9350TIP3    H249466   6.182   2.703  13.097  1.5825  0.7652 -0.3779
 9351TIP3   OH249467   1.386   0.127  14.552  0.1700 -0.1746  0.5225
 9351TIP3    H149468   1.473   0.139  14.590  0.8930 -0.2419 -1.0525
 9351TIP3    H249469   1.328   0.120  14.628  1.4096  0.7249  1.6002
 9352TIP3   OH249470   3.791   5.666  14.130 -0.3158 -0.1320 -0.6542
 9352TIP3    H149471   3.802   5.627  14.217 -3.4100 -2.6261 -1.1727
 9352TIP3    H249472   3.756   5.754  14.147  2.1791  0.7069  0.5465
 9353TIP3   OH249473   6.178   4.610  13.580  0.1629  0.1598  0.0480
 9353TIP3    H149474   6.133   4.619  13.496  1.7628 -0.5849 -0.9330
 9353TIP3    H249475   6.221   4.695  13.592  0.0387  0.2222  0.0599
 9354TIP3   OH249476   1.495   0.120   4.625  0.2416 -0.0176  0.7580
 9354TIP3    H149477   1.430   0.190   4.623  0.8365  0.5198  0.1770
 9354TIP3    H249478   1.574   0.160   4.660  0.0010 -0.9191  2.4606
 9355TIP3   OH249479   2.717   3.499  11.712  0.1799  0.0537  0.6746
 9355TIP3    H149480   2.724   3.484  11.617 -0.0910 -1.9978  0.9223
 9355TIP3    H249481   2.638   3.452  11.737  0.6271 -0.0085  2.0249
 9356TIP3   OH249482   2.255   2.232   2.752  0.2836 -0.2151 -0.8223
 9356TIP3    H149483   2.213   2.317   2.766  0.0206 -0.4791  0.0555
 9356TIP3    H249484   2.183   2.169   2.755  0.8230 -0.8510  2.2556
 9357TIP3   OH249485   0.535   2.742   4.446  0.4215  0.4930  0.0361
 9357TIP3    H149486   0.516   2.649   4.457 -2.2477  0.6975 -1.8841
 9357TIP3    H249487   0.616   2.756   4.495  1.2553 -2.9418 -0.1075
 9358TIP3   OH249488   3.096   4.245  15.156 -0.3842 -0.2144 -0.0048
 9358TIP3    H149489   3.163   4.310  15.180  1.5889 -1.9552 -0.5229
 9358TIP3    H249490   3.022   4.267  15.212  0.9435  1.2263  1.3264
 9359TIP3   OH249491   1.406   3.441   2.503 -0.2000 -0.6574  0.5627
 9359TIP3    H149492   1.433   3.466   2.415  0.0885  1.1523  1.1351
 9359TIP3    H249493   1.319   3.403   2.492 -0.6579  0.6081 -0.3934
 9360TIP3   OH249494   5.195   6.710   3.013 -0.1186  0.3385  0.5329
 9360TIP3    H149495   5.283   6.733   2.982 -0.7067  0.5525 -1.1024
 9360TIP3    H249496   5.141   6.785   2.988 -1.3784 -1.1345 -1.5511
 9361TIP3   OH249497   3.417   3.482   6.029  0.2762  0.0735  0.0822
 9361TIP3    H149498   3.475   3.558   6.025  1.4304 -0.7874 -0.2189
 9361TIP3    H249499   3.459   3.424   6.093  0.0911 -0.8356 -0.6037
 9362TIP3   OH249500   5.280   1.066  15.092  0.0866 -0.0476  0.2467
 9362TIP3    H149501   5.246   1.028  15.173 -1.8935 -0.7981 -0.8784
 9362TIP3    H249502   5.352   1.009  15.067  0.2277 -0.2462  1.0690
 9363TIP3   OH249503   2.908   4.321   6.158 -0.4189  0.3839  0.1666
 9363TIP3    H149504   2.856   4.246   6.129  1.2762 -0.6769 -0.3191
 9363TIP3    H249505   2.978   4.282   6.211 -0.2514  1.7761  1.0140
 9364TIP3   OH249506   2.351   6.695  12.966  0.5270 -0.5354  0.0603
 9364TIP3    H149507   2.321   6.764  13.025 -0.0521 -0.2656 -0.5225
 9364TIP3    H249508   2.271   6.646  12.944  1.1520 -2.3253  1.6102
 9365TIP3   OH249509   3.595   5.379  14.742  0.2033  0.4392 -0.0459
 9365TIP3    H149510   3.615   5.414  14.829 -0.5313 -0.2076  0.4042
 9365TIP3    H249511   3.651   5.302  14.733 -0.8027 -0.3776  0.5027
 9366TIP3   OH249512   3.656   6.459   0.260  0.2525 -0.7202 -0.3168
 9366TIP3    H149513   3.721   6.518   0.223  0.0766  0.7559  1.5407
 9366TIP3    H249514   3.672   6.462   0.355 -1.5736 -1.4509  0.0603
 9367TIP3   OH249515   2.077   3.579   1.419 -0.3055  0.2868  0.5145
 9367TIP3    H149516   2.060   3.539   1.334 -0.3416  2.0319 -0.3356
 9367TIP3    H249517   2.171   3.597   1.418 -0.5553  1.6524  0.2112
 9368TIP3   OH249518   0.772   5.677   4.094 -0.0180  0.1927 -0.1421
 9368TIP3    H149519   0.739   5.691   4.182  0.0177  0.3262 -0.1486
 9368TIP3    H249520   0.695   5.652   4.043 -0.4422  2.1232 -0.5227
 9369TIP3   OH249521   2.571   1.092  14.883 -0.1012  0.4633  0.6502
 9369TIP3    H149522   2.606   1.176  14.910  0.8179 -0.5761  2.9058
 9369TIP3    H249523   2.640   1.029  14.903 -1.0957 -0.9460 -0.1617
 9370TIP3   OH249524   4.249   3.972   5.497 -0.8478  0.1220  0.1457
 9370TIP3    H149525   4.184   3.904   5.517 -0.7686  0.5490  2.0511
 9370TIP3    H249526   4.329   3.941   5.539 -0.5154  0.8442  0.0610
 9371TIP3   OH249527   2.527   0.087  10.642 -0.0166 -0.6620 -0.0756
 9371TIP3    H149528   2.471   0.066  10.568  0.7040  0.1238 -0.8558
 9371TIP3    H249529   2.613   0.106  10.604  0.4442 -0.5306  0.9785
 9372TIP3   OH249530   1.033   1.206  13.510  0.0780  0.2400 -0.1295
 9372TIP3    H149531   1.029   1.213  13.414 -0.3320  0.4408 -0.1011
 9372TIP3    H249532   1.123   1.227  13.532  0.3814 -0.5946 -0.5356
 9373TIP3   OH249533   1.841   6.362  12.053  0.0154  0.1637  0.1241
 9373TIP3    H149534   1.881   6.374  12.139  1.4919 -0.1005 -0.5079
 9373TIP3    H249535   1.784   6.285  12.064 -0.2103  0.4378  0.9840
 9374TIP3   OH249536   0.025   6.552  16.762 -0.5858  0.2747  0.3290
 9374TIP3    H149537   0.048   6.466  16.730  0.0901  1.0738 -1.4450
 9374TIP3    H249538  -0.027   6.535  16.841  1.5764 -1.6902  1.4448
 9375TIP3   OH249539   0.356   4.983  16.816  0.0981 -0.6572  0.1100
 9375TIP3    H149540   0.364   5.000  16.722 -0.0325  0.3957  0.2778
 9375TIP3    H249541   0.443   4.956  16.843  0.7647  1.3964  0.1293
 9376TIP3   OH249542   1.188   1.915  11.814 -0.2900 -0.3148  0.3463
 9376TIP3    H149543   1.118   1.928  11.749 -0.2955 -1.0114  0.1968
 9376TIP3    H249544   1.216   1.824  11.800  0.2654 -0.2142  0.7804
 9377TIP3   OH249545   2.529   4.921  14.825  0.1717 -0.2215 -0.3082
 9377TIP3    H149546   2.449   4.895  14.778  1.0645 -2.0182 -0.9013
 9377TIP3    H249547   2.597   4.920  14.758  0.7088  1.4246  0.1705
 9378TIP3   OH249548   4.730   3.681   5.432 -0.2178 -0.3384  0.1759
 9378TIP3    H149549   4.693   3.770   5.431 -0.8592 -0.5833  0.8455
 9378TIP3    H249550   4.654   3.624   5.421  0.2023 -0.8035 -0.3221
 9379TIP3   OH249551   2.178   2.315   0.652  0.6288  0.9471 -0.0668
 9379TIP3    H149552   2.140   2.320   0.740 -0.3740  1.5621 -0.5202
 9379TIP3    H249553   2.170   2.403   0.617  0.2365  0.5236 -1.0926
 9380TIP3   OH249554   4.527   4.116   3.778  0.2374  0.2420 -0.0152
 9380TIP3    H149555   4.495   4.146   3.864  0.5338  2.6622 -0.6873
 9380TIP3    H249556   4.602   4.061   3.799 -0.6645 -0.5742  1.3199
 9381TIP3   OH249557   2.557   4.987   4.450 -0.2521  0.3605  0.0328
 9381TIP3    H149558   2.480   4.945   4.488  1.0143 -1.6719  0.4636
 9381TIP3    H249559   2.601   4.918   4.401 -0.6964  2.3616 -3.5549
 9382TIP3   OH249560   0.930   1.576  13.285 -0.2871 -0.6134  0.3339
 9382TIP3    H149561   0.986   1.574  13.207 -0.4436  2.1804  0.0333
 9382TIP3    H249562   0.841   1.576  13.249 -0.4149 -1.3871  0.6371
 9383TIP3   OH249563   5.036   1.303   4.644 -0.2580 -0.5241  0.5449
 9383TIP3    H149564   5.045   1.212   4.671  0.7584 -0.7983 -0.6393
 9383TIP3    H249565   5.042   1.300   4.548 -0.6248  0.7448  0.4644
 9384TIP3   OH249566   2.684   0.523   6.693 -0.1481  0.4532  0.1606
 9384TIP3    H149567   2.732   0.495   6.614 -0.2821  2.7340 -0.7941
 9384TIP3    H249568   2.685   0.446   6.750 -0.5354 -1.4885 -2.2887
 9385TIP3   OH249569   6.686   3.141  11.388  0.0124  0.2716 -0.0671
 9385TIP3    H149570   6.756   3.076  11.377  0.0913  0.2642  0.4496
 9385TIP3    H249571   6.725   3.223  11.356  0.0647  0.1546 -0.3035
 9386TIP3   OH249572   0.674   3.047  11.180  0.0179 -0.2116 -0.5350
 9386TIP3    H149573   0.732   3.117  11.152 -1.5480  1.1520 -0.4758
 9386TIP3    H249574   0.645   3.006  11.098  2.5280 -2.2346 -0.5362
 9387TIP3   OH249575   2.937   3.449   0.402  1.4221  0.3216 -0.1675
 9387TIP3    H149576   2.861   3.484   0.449  1.1755  0.3989 -0.6158
 9387TIP3    H249577   2.904   3.373   0.356  0.7628  2.1474 -2.9918
 9388TIP3   OH249578   2.390   5.808   2.489 -0.4019  0.3554 -0.1064
 9388TIP3    H149579   2.461   5.870   2.509 -1.4021  0.6618  2.9842
 9388TIP3    H249580   2.429   5.722   2.504  1.0135 -0.0149 -4.4812
 9389TIP3   OH249581   1.837   3.267   3.068  0.0587  0.3136 -0.4582
 9389TIP3    H149582   1.746   3.260   3.097  0.2067  0.3751  0.0231
 9389TIP3    H249583   1.843   3.355   3.030  0.0841  0.5543  0.0988
 9390TIP3   OH249584   4.560   0.715  15.622 -0.1388 -0.2461 -0.1605
 9390TIP3    H149585   4.639   0.700  15.674 -0.1949 -0.5929 -0.1749
 9390TIP3    H249586   4.573   0.802  15.583  1.4456 -1.3509 -2.2896
 9391TIP3   OH249587   6.399   5.239   4.621 -0.8848  0.0117  0.6757
 9391TIP3    H149588   6.368   5.288   4.545 -0.2658  2.0470  1.6826
 9391TIP3    H249589   6.411   5.150   4.588 -0.2677  0.9029 -1.7150
 9392TIP3   OH249590   4.172   1.666  11.605 -0.0574 -0.1258 -0.6232
 9392TIP3    H149591   4.170   1.722  11.528  1.1683 -0.4155 -0.8916
 9392TIP3    H249592   4.127   1.586  11.577 -1.5685  0.6057 -0.3232
 9393TIP3   OH249593   0.304   6.351  12.131  0.9108 -0.2299 -0.2365
 9393TIP3    H149594   0.314   6.373  12.038  1.0892 -1.1902 -0.4650
 9393TIP3    H249595   0.210   6.341  12.143  0.9002 -0.3108 -0.3753
 9394TIP3   OH249596   4.253   4.320  11.959  0.1359 -0.2673 -0.5300
 9394TIP3    H149597   4.206   4.268  12.023 -0.3555  0.0367 -0.6346
 9394TIP3    H249598   4.344   4.317  11.987  0.1674 -1.4758 -0.7442
 9395TIP3   OH249599   0.302   2.021  10.894  0.5376  0.1838  0.6102
 9395TIP3    H149600   0.217   1.981  10.876  0.5558 -0.3736  1.7325
 9395TIP3    H249601   0.355   2.001  10.816 -1.0787  2.7469 -1.3251
 9396TIP3   OH249602   2.328   2.526  12.786  0.1521 -0.7370 -0.2456
 9396TIP3    H149603   2.360   2.613  12.813  1.4601 -1.2091 -0.1779
 9396TIP3    H249604   2.407   2.472  12.785 -0.2042 -1.3234 -2.7765
 9397TIP3   OH249605   3.282   2.467   0.467  0.0525  0.3252  0.2343
 9397TIP3    H149606   3.225   2.406   0.513 -1.1966 -0.0386 -1.6928
 9397TIP3    H249607   3.223   2.528   0.424  1.0229 -0.3261 -2.2038
 9398TIP3   OH249608   2.747   2.812   0.480  0.1150  0.3158  0.5646
 9398TIP3    H149609   2.724   2.804   0.573 -0.5186  0.2960  0.4063
 9398TIP3    H249610   2.681   2.760   0.434  0.0272  0.8832  0.0474
 9399TIP3   OH249611   2.112   5.311   3.263 -0.4056  0.1604  0.0184
 9399TIP3    H149612   2.191   5.282   3.217  0.0405  1.7006 -0.2609
 9399TIP3    H249613   2.049   5.330   3.194  0.1892  2.2587 -0.0329
 9400TIP3   OH249614   1.288   3.420  15.515 -0.2616  0.2010 -0.3807
 9400TIP3    H149615   1.251   3.332  15.524  1.2702 -0.2373  3.5548
 9400TIP3    H249616   1.380   3.410  15.540  0.1728  2.7848 -0.6535
 9401TIP3   OH249617   6.479   1.362   3.758 -0.0354 -0.2816  0.1538
 9401TIP3    H149618   6.425   1.411   3.696  0.7436  0.6865  0.2235
 9401TIP3    H249619   6.442   1.384   3.844  0.4127  0.3211  0.1962
 9402TIP3   OH249620   4.792   6.350   0.642  0.4844  0.2843  0.3190
 9402TIP3    H149621   4.724   6.314   0.699  0.4475  0.6275  0.4890
 9402TIP3    H249622   4.824   6.274   0.593  0.3380  0.0345  0.6083
 9403TIP3   OH249623   4.355   5.321  13.973  0.4823  0.5827 -0.3532
 9403TIP3    H149624   4.284   5.378  14.004  1.1376  0.3735  1.7292
 9403TIP3    H249625   4.329   5.234  14.002  0.7053  0.2028 -1.2711
 9404TIP3   OH249626   1.264   5.667  10.622 -0.3676 -0.2074 -0.6406
 9404TIP3    H149627   1.304   5.596  10.673 -3.1644  0.6505  3.2646
 9404TIP3    H249628   1.323   5.741  10.636  0.5143 -0.7387 -1.3930
 9405TIP3   OH249629   6.254   4.660   1.729  0.1459 -0.4233  0.5355
 9405TIP3    H149630   6.347   4.648   1.744  0.6195  0.1009 -1.5915
 9405TIP3    H249631   6.237   4.751   1.754  0.6650  0.0907 -0.8834
 9406TIP3   OH249632   5.100   2.615   0.110 -0.2182 -0.3449 -0.2472
 9406TIP3    H149633   5.184   2.612   0.064 -0.7182  2.2371 -1.4961
 9406TIP3    H249634   5.047   2.547   0.067 -0.4899  1.6058 -3.3466
 9407TIP3   OH249635   1.289   3.376   1.774  0.9083 -0.5055 -0.4421
 9407TIP3    H149636   1.241   3.327   1.708  3.0832 -0.6992 -1.9944
 9407TIP3    H249637   1.290   3.466   1.741 -1.7792  0.4288  1.6448
 9408TIP3   OH249638   0.343   6.740   1.721  0.4532  0.7301  0.7526
 9408TIP3    H149639   0.248   6.729   1.732  0.1592  0.5434 -1.4089
 9408TIP3    H249640   0.381   6.660   1.757 -0.6970 -1.8450 -3.0516
 9409TIP3   OH249641   1.763   1.724   0.077  0.1339  0.5870 -0.6292
 9409TIP3    H149642   1.745   1.732   0.171  0.8062 -0.3977 -0.4087
 9409TIP3    H249643   1.693   1.667   0.044  1.7905 -1.9337 -0.0587
 9410TIP3   OH249644   6.135   5.836   4.426  0.1873 -0.2479 -0.4911
 9410TIP3    H149645   6.210   5.885   4.392 -2.2554  2.9458 -1.8223
 9410TIP3    H249646   6.078   5.823   4.351 -0.5871 -2.8184  0.4310
 9411TIP3   OH249647   5.964   0.073  12.044  0.2560  0.7738 -0.3354
 9411TIP3    H149648   5.961   0.005  11.978  0.7791 -0.4900  0.8817
 9411TIP3    H249649   6.025   0.139  12.009  0.4368  0.1810 -1.1431
 9412TIP3   OH249650   1.568   5.580  12.064  0.3223 -0.6116 -0.3116
 9412TIP3    H149651   1.588   5.535  11.983 -1.0261 -0.4032 -0.7845
 9412TIP3    H249652   1.472   5.575  12.072  0.3928 -0.3352  1.0862
 9413TIP3   OH249653   2.924   2.627   1.974  0.3243  0.0622  0.2233
 9413TIP3    H149654   2.993   2.583   1.923  0.2579  0.7888 -0.5008
 9413TIP3    H249655   2.967   2.650   2.056  1.1517  1.1048 -0.4840
 9414TIP3   OH249656   1.878   4.576  17.101  0.3052  0.0302 -0.2526
 9414TIP3    H149657   1.866   4.481  17.104  0.4290 -0.0070 -0.9723
 9414TIP3    H249658   1.927   4.592  17.021 -0.1672  0.7494 -0.4020
 9415TIP3   OH249659   2.846   4.608   5.582  0.0004  0.5427 -0.1098
 9415TIP3    H149660   2.899   4.663   5.640 -1.0118  0.7871  0.6225
 9415TIP3    H249661   2.760   4.649   5.583 -0.0915  0.4318 -1.6595
 9416TIP3   OH249662   4.633   4.395  16.719  1.0688 -0.5432  0.0799
 9416TIP3    H149663   4.553   4.445  16.706  1.3516 -0.1089 -0.0098
 9416TIP3    H249664   4.634   4.331  16.647 -0.0457 -1.6935  1.0395
 9417TIP3   OH249665   1.670   3.340   0.546  0.1078  0.4989 -0.2990
 9417TIP3    H149666   1.742   3.308   0.601  0.3664  0.4678 -0.6582
 9417TIP3    H249667   1.712   3.396   0.481 -0.3752  1.8409  0.5141
 9418TIP3   OH249668   1.390   2.578   1.981  0.6528  0.0569  0.0925
 9418TIP3    H149669   1.476   2.616   1.965  1.6813 -2.2122 -0.1273
 9418TIP3    H249670   1.378   2.583   2.076  0.8379  0.7097  0.0868
 9419TIP3   OH249671   5.430   2.669  15.381  0.2639  0.0052 -0.3936
 9419TIP3    H149672   5.436   2.599  15.446 -0.3578 -0.4628 -0.8323
 9419TIP3    H249673   5.421   2.749  15.432  1.1332 -0.2144  0.1145
 9420TIP3   OH249674   3.963   6.529  14.604 -0.5999 -0.3533 -0.0250
 9420TIP3    H149675   4.043   6.549  14.652 -0.6343  1.0147 -0.4953
 9420TIP3    H249676   3.988   6.461  14.542  0.0262 -0.4148  0.2897
 9421TIP3   OH249677   4.193   0.665  16.697 -0.1286 -0.0331  0.8192
 9421TIP3    H149678   4.125   0.634  16.638  0.1243  1.0919 -0.0913
 9421TIP3    H249679   4.256   0.593  16.701 -0.6474 -0.5119  0.5342
 9422TIP3   OH249680   0.110   3.273   4.442  0.1202 -0.1632 -0.7613
 9422TIP3    H149681   0.172   3.263   4.369 -0.9463  0.5485 -1.8122
 9422TIP3    H249682   0.034   3.316   4.402 -0.2953  0.7128  0.9017
 9423TIP3   OH249683   3.091   3.931   6.201  0.5934  0.0567 -0.3721
 9423TIP3    H149684   3.095   3.970   6.289  0.3659  0.1750 -0.4145
 9423TIP3    H249685   3.138   3.848   6.210 -1.4803 -1.0954  0.4665
 9424TIP3   OH249686   6.141   5.423  15.672  0.9307 -0.2057 -0.2395
 9424TIP3    H149687   6.081   5.462  15.736  1.3538 -0.7667  0.5159
 9424TIP3    H249688   6.093   5.425  15.590  0.6282  1.1411 -0.0552
 9425TIP3   OH249689   4.565   1.521   4.548 -0.6911  0.6937 -0.0331
 9425TIP3    H149690   4.609   1.494   4.467 -1.6242  0.0741 -0.3585
 9425TIP3    H249691   4.604   1.467   4.616  0.6296  1.7396  0.0825
 9426TIP3   OH249692   1.607   1.067   1.795  0.1501  0.2932  0.1437
 9426TIP3    H149693   1.607   0.977   1.830  1.7728  0.5134  0.7901
 9426TIP3    H249694   1.603   1.055   1.700  1.8394 -0.5442  0.1440
 9427TIP3   OH249695   6.376   0.906  14.533  0.2496 -0.3270 -0.1356
 9427TIP3    H149696   6.307   0.867  14.479  0.1546 -1.2782  0.6398
 9427TIP3    H249697   6.446   0.840  14.535  0.2328 -0.3403  0.9213
 9428TIP3   OH249698   5.497   4.615   0.411 -0.0102  0.1524 -0.1906
 9428TIP3    H149699   5.520   4.642   0.322  0.4530 -3.0941 -1.1975
 9428TIP3    H249700   5.412   4.573   0.402 -0.3508  0.5464  1.0708
 9429TIP3   OH249701   0.995   6.262   0.237 -0.1617 -0.2359  0.2607
 9429TIP3    H149702   1.078   6.285   0.196 -0.5673  0.4198 -0.2103
 9429TIP3    H249703   0.985   6.168   0.220 -0.0287 -0.1009 -0.6288
 9430TIP3   OH249704   0.929   1.402  15.732  0.0917  0.3502  0.4827
 9430TIP3    H149705   0.997   1.379  15.668 -0.4888 -2.7044  0.8264
 9430TIP3    H249706   0.868   1.457  15.684  0.9142  0.1210 -0.8733
 9431TIP3   OH249707   3.397   5.317  16.051  0.6216 -0.4633  0.3967
 9431TIP3    H149708   3.448   5.328  15.970  0.3809  1.4494  0.4714
 9431TIP3    H249709   3.463   5.294  16.117  1.2370  0.6657  0.2091
 9432TIP3   OH249710   1.707   0.343   5.549 -0.3744  0.6838  0.3272
 9432TIP3    H149711   1.628   0.387   5.580 -0.9089  0.0011 -0.0638
 9432TIP3    H249712   1.676   0.268   5.499  0.5089 -0.9531  2.0822
 9433TIP3   OH249713   3.940   0.345   5.237  0.1768 -0.2462  0.1557
 9433TIP3    H149714   3.961   0.402   5.163 -0.9461 -1.8873 -1.5292
 9433TIP3    H249715   3.905   0.404   5.304  2.3297  1.4389 -0.1002
 9434TIP3   OH249716   0.841   4.294   0.747  0.2981  0.0890  0.5159
 9434TIP3    H149717   0.889   4.212   0.757 -1.6946 -1.4502 -1.6566
 9434TIP3    H249718   0.821   4.321   0.837 -1.5806 -3.4565  1.3639
 9435TIP3   OH249719   3.239   5.468   3.881  0.5413  0.9177 -0.3308
 9435TIP3    H149720   3.152   5.435   3.860  0.3638  0.7699  0.5992
 9435TIP3    H249721   3.299   5.405   3.841  0.2181  0.6604 -0.4166
 9436TIP3   OH249722   6.656   4.752   2.429  0.1048 -0.4124  0.3544
 9436TIP3    H149723   6.693   4.673   2.467  1.2147 -0.0493  0.0805
 9436TIP3    H249724   6.644   4.811   2.504 -0.3510 -0.6820  0.5022
 9437TIP3   OH249725   4.429   6.696   3.684  0.0783 -0.0389 -0.5010
 9437TIP3    H149726   4.466   6.780   3.657 -1.1307  0.8027  0.3454
 9437TIP3    H249727   4.501   6.650   3.726  0.6667  0.7217 -0.6550
 9438TIP3   OH249728   2.180   0.600   3.966 -0.4032 -0.2075  0.0969
 9438TIP3    H149729   2.182   0.554   3.883 -0.6555  1.0519 -0.6430
 9438TIP3    H249730   2.219   0.539   4.029 -1.7263 -1.8194 -0.5946
 9439TIP3   OH249731   1.875   1.044   5.339 -0.5995  0.0186  0.3039
 9439TIP3    H149732   1.961   1.075   5.309 -0.9422  0.0279 -0.7368
 9439TIP3    H249733   1.886   0.949   5.347 -0.2518  0.1142  1.0416
 9440TIP3   OH249734   6.324   6.620   4.686 -0.0334  0.2540  0.2330
 9440TIP3    H149735   6.318   6.709   4.721 -0.2791 -0.0018  0.8386
 9440TIP3    H249736   6.400   6.624   4.628  1.0650  0.4097  1.6186
 9441TIP3   OH249737   1.179   1.166   6.484 -0.6264 -0.4005 -0.0234
 9441TIP3    H149738   1.139   1.143   6.568 -2.0648 -1.3175 -0.9213
 9441TIP3    H249739   1.163   1.090   6.429 -0.2659  0.4429 -1.3218
 9442TIP3   OH249740   6.698   1.945  14.131 -0.7010 -0.8240 -0.1870
 9442TIP3    H149741   6.652   2.029  14.126  1.8182  0.7147  0.4303
 9442TIP3    H249742   6.672   1.909  14.216 -0.9506 -0.1137  0.0477
 9443TIP3   OH249743   3.346   2.936  15.473  0.6255  0.1117  0.0516
 9443TIP3    H149744   3.262   2.957  15.513  0.9402 -0.1804  0.8912
 9443TIP3    H249745   3.411   2.972  15.533  1.1119 -0.1092 -0.3331
 9444TIP3   OH249746   3.477   1.375   5.636 -0.2281  0.3384 -0.4518
 9444TIP3    H149747   3.472   1.288   5.595  0.2689  0.0111  0.1666
 9444TIP3    H249748   3.558   1.413   5.602  0.4363 -0.1244  0.5698
 9445TIP3   OH249749   5.354   6.752  15.631  0.3160 -0.0944  0.3932
 9445TIP3    H149750   5.442   6.729  15.662  0.4478  1.1144  0.9974
 9445TIP3    H249751   5.356   6.848  15.627 -0.4313 -0.1223 -1.2261
 9446TIP3   OH249752   4.286   5.524   2.193  0.5792  0.2782  0.4034
 9446TIP3    H149753   4.248   5.443   2.225 -0.8766  0.7580 -0.0141
 9446TIP3    H249754   4.258   5.591   2.255  0.5495  0.6892 -0.0428
 9447TIP3   OH249755   2.666   0.417   2.391 -0.3363  0.4345 -0.1611
 9447TIP3    H149756   2.597   0.398   2.327 -0.0403  0.9941 -0.6628
 9447TIP3    H249757   2.727   0.473   2.343  1.0616 -0.9618 -0.0759
 9448TIP3   OH249758   4.121   4.128  11.355 -0.6075  0.7143 -0.2939
 9448TIP3    H149759   4.200   4.078  11.335 -1.4156 -1.3019  1.2786
 9448TIP3    H249760   4.152   4.219  11.364  1.2996  0.1614 -0.9375
 9449TIP3   OH249761   6.430   0.909   3.057 -0.0442  1.0967  0.2059
 9449TIP3    H149762   6.479   0.951   3.127  1.5190 -3.4949  2.3118
 9449TIP3    H249763   6.355   0.869   3.101  0.1271 -0.6126 -0.9635
 9450TIP3   OH249764   2.406   6.215   6.051  0.0977  0.0319 -0.6515
 9450TIP3    H149765   2.323   6.226   6.006 -0.8944 -0.0609  1.0596
 9450TIP3    H249766   2.385   6.228   6.144  1.9993  0.0414 -0.1761
 9451TIP3   OH249767   0.376   1.544  11.384  0.0717  0.0379  0.0988
 9451TIP3    H149768   0.309   1.492  11.429  0.5377  0.0335  0.8152
 9451TIP3    H249769   0.359   1.530  11.291 -2.2578  1.7268  0.1652
 9452TIP3   OH249770   1.207   3.723  12.448 -0.1530 -0.0828  0.5786
 9452TIP3    H149771   1.265   3.799  12.442 -0.2570  0.1043  1.7114
 9452TIP3    H249772   1.265   3.649  12.465 -0.1805  0.0071  1.0891
 9453TIP3   OH249773   1.412   3.923   2.750  0.6046  0.5111 -0.6171
 9453TIP3    H149774   1.391   3.850   2.692  0.4185  0.3680 -0.3718
 9453TIP3    H249775   1.398   3.888   2.838  1.9151  0.3994 -0.4317
 9454TIP3   OH249776   1.026   3.423   0.608 -0.3876 -0.0050 -0.0253
 9454TIP3    H149777   1.016   3.509   0.568  0.3768  0.2561  0.3387
 9454TIP3    H249778   1.058   3.440   0.696 -0.8136 -0.6380  0.2672
 9455TIP3   OH249779   6.723   6.202  15.869 -0.0690  0.1620  0.0946
 9455TIP3    H149780   6.725   6.125  15.811  1.0201  1.1896 -1.3136
 9455TIP3    H249781   6.815   6.226  15.879 -0.4040  1.3825  0.3837
 9456TIP3   OH249782   3.679   3.826   3.404 -0.6197 -0.2224 -0.7015
 9456TIP3    H149783   3.611   3.893   3.412  0.8569  1.3860 -1.2215
 9456TIP3    H249784   3.638   3.747   3.440 -2.1573  1.1120  0.6615
 9457TIP3   OH249785   6.442   4.528   4.339 -0.4540  0.2867  0.6580
 9457TIP3    H149786   6.512   4.582   4.376 -0.7198  0.3573  1.0585
 9457TIP3    H249787   6.444   4.547   4.245 -0.1254  0.5055  0.7076
 9458TIP3   OH249788   1.328   4.864   6.424 -0.4002  0.3360 -0.2522
 9458TIP3    H149789   1.242   4.888   6.388 -1.3636 -0.3522  1.4404
 9458TIP3    H249790   1.312   4.780   6.467  1.3873 -0.2804 -0.7404
 9459TIP3   OH249791   1.528   3.612  10.910 -0.0128  0.3221  0.1583
 9459TIP3    H149792   1.462   3.677  10.935  0.7893  0.4317  2.1443
 9459TIP3    H249793   1.550   3.633  10.819 -2.9473  0.0512 -0.7202
 9460TIP3   OH249794   1.570   2.776   4.110 -0.2149  0.1647  0.0789
 9460TIP3    H149795   1.573   2.846   4.045  0.6841  0.1725  0.1041
 9460TIP3    H249796   1.663   2.754   4.125 -0.2962  1.1387  2.4073
 9461TIP3   OH249797   0.932   2.951   5.518  0.0092 -0.3814 -0.3929
 9461TIP3    H149798   0.840   2.926   5.518  0.1548 -0.9731 -1.2771
 9461TIP3    H249799   0.978   2.874   5.486  0.8183 -0.0846  0.0102
 9462TIP3   OH249800   2.666   2.848  14.534  0.0285 -0.1685  0.0137
 9462TIP3    H149801   2.610   2.779  14.498 -0.9540  1.1285 -1.0811
 9462TIP3    H249802   2.614   2.886  14.604 -0.4689  0.9616 -0.9263
 9463TIP3   OH249803   6.338   4.095   1.752 -0.0649  0.3817 -0.3107
 9463TIP3    H149804   6.263   4.109   1.809  0.2654 -0.2096  0.2713
 9463TIP3    H249805   6.358   4.183   1.718  0.2136  0.8807  1.0791
 9464TIP3   OH249806   0.224   3.075  14.865 -1.0081  0.2318 -0.0956
 9464TIP3    H149807   0.284   3.062  14.791  0.3488 -3.1988  1.3991
 9464TIP3    H249808   0.272   3.130  14.926 -0.5917 -0.0843 -0.1400
 9465TIP3   OH249809   4.143   4.782  14.121 -0.2478  0.0497  0.1309
 9465TIP3    H149810   4.224   4.757  14.076  0.1191  1.9473 -0.3687
 9465TIP3    H249811   4.073   4.755  14.063  0.0056 -1.5231  0.5179
 9466TIP3   OH249812   0.513   3.101   0.442 -0.0496  0.1614  0.0385
 9466TIP3    H149813   0.529   3.011   0.414 -1.4275 -0.5540  1.4453
 9466TIP3    H249814   0.436   3.129   0.391  0.0283  0.3451  0.0196
 9467TIP3   OH249815   1.782   2.924  11.319 -0.6301  0.0318 -0.1548
 9467TIP3    H149816   1.696   2.946  11.353 -0.7733 -1.2513  0.3660
 9467TIP3    H249817   1.777   2.831  11.299  0.7704 -0.1681  0.3193
 9468TIP3   OH249818   3.011   4.293  11.557 -0.0989  0.3143 -0.1136
 9468TIP3    H149819   2.935   4.235  11.551 -0.0852  0.3592 -0.8947
 9468TIP3    H249820   3.057   4.265  11.636  0.4343 -1.4123 -0.9758
 9469TIP3   OH249821   3.281   5.797  15.032  0.9430  0.3885  0.0417
 9469TIP3    H149822   3.302   5.776  14.941  1.5350 -0.0037  0.2648
 9469TIP3    H249823   3.363   5.783  15.080  0.3340 -0.5995  0.8346
 9470TIP3   OH249824   4.693   4.880   5.639 -0.1215  0.0631  1.1872
 9470TIP3    H149825   4.684   4.801   5.586 -0.2910  0.9513 -0.1571
 9470TIP3    H249826   4.786   4.904   5.632 -0.6971  1.9876 -1.5095
 9471TIP3   OH249827   4.695   4.730  11.344  0.3543  0.5676  0.1188
 9471TIP3    H149828   4.753   4.729  11.269  0.6529  0.0281  0.3513
 9471TIP3    H249829   4.748   4.764  11.416  1.0767 -1.9057  0.8516
 9472TIP3   OH249830   1.346   1.589   4.671  0.0066 -0.1631 -0.9598
 9472TIP3    H149831   1.300   1.536   4.605 -1.2672  0.6355 -0.7268
 9472TIP3    H249832   1.376   1.525   4.736  0.2490 -0.8216 -1.7048
 9473TIP3   OH249833   5.383   2.325  12.429  0.2135 -0.5550 -0.1666
 9473TIP3    H149834   5.474   2.300  12.410  0.4634 -1.3287  1.7990
 9473TIP3    H249835   5.331   2.266  12.375  0.8862 -1.6004  0.2750
 9474TIP3   OH249836   1.876   3.889   0.293 -0.3199  0.6527  0.3131
 9474TIP3    H149837   1.888   3.984   0.294 -0.0049  0.6143  1.2778
 9474TIP3    H249838   1.895   3.862   0.383 -1.3432 -0.2097  0.2880
 9475TIP3   OH249839   2.023   2.358  15.421  0.1688 -0.3678  0.4467
 9475TIP3    H149840   2.051   2.298  15.352  0.5005  0.9987 -0.6446
 9475TIP3    H249841   1.929   2.340  15.432 -0.0096 -0.2630 -0.7443
 9476TIP3   OH249842   6.614   0.925   1.888 -0.0499 -0.6833  0.1878
 9476TIP3    H149843   6.685   0.926   1.953 -0.3114 -1.4605  0.4958
 9476TIP3    H249844   6.629   0.845   1.838  0.3305  0.0500 -0.9414
 9477TIP3   OH249845   3.573   2.854   1.573  0.0694  0.4651 -0.1096
 9477TIP3    H149846   3.614   2.770   1.552 -0.3645 -0.6552  2.9824
 9477TIP3    H249847   3.636   2.898   1.630 -1.1754  0.5958  1.2249
 9478TIP3   OH249848   3.106   4.890   6.344 -0.3904  0.5303 -0.1836
 9478TIP3    H149849   3.128   4.969   6.295 -1.2645  0.0822 -1.3144
 9478TIP3    H249850   3.058   4.922   6.421  0.8833  1.2193  0.3575
 9479TIP3   OH249851   6.660   5.353   1.142  0.2694 -0.0625 -0.1464
 9479TIP3    H149852   6.649   5.416   1.071 -0.4140  0.7726  0.6724
 9479TIP3    H249853   6.570   5.328   1.165  0.5319 -1.7986 -0.8277
 9480TIP3   OH249854   1.441   3.998  14.753 -0.3904 -0.4206  0.3160
 9480TIP3    H149855   1.434   3.996  14.658 -0.6584 -0.2044  0.3315
 9480TIP3    H249856   1.511   3.935  14.773 -1.9565 -2.3295  0.1472
 9481TIP3   OH249857   2.094   4.419   1.846 -0.0872 -0.1809 -1.0974
 9481TIP3    H149858   2.056   4.490   1.897 -0.2901  0.8783 -2.6587
 9481TIP3    H249859   2.020   4.361   1.827 -0.1586 -0.1647 -0.8742
 9482TIP3   OH249860   5.021   5.754   3.354 -0.8070 -0.3140 -0.4452
 9482TIP3    H149861   5.005   5.686   3.421 -0.3423 -1.9973 -1.9644
 9482TIP3    H249862   4.941   5.806   3.355 -1.4988 -1.3280  0.2782
 9483TIP3   OH249863   2.990   5.686   3.682 -0.1357 -0.4410  0.5419
 9483TIP3    H149864   3.015   5.616   3.743 -2.1268 -2.4938 -0.8368
 9483TIP3    H249865   3.007   5.648   3.595 -0.5949  1.0950 -0.2438
 9484TIP3   OH249866   1.538   0.065  12.967  0.3541 -0.1301  0.0508
 9484TIP3    H149867   1.497   0.004  13.028 -0.1911  0.1096 -0.0658
 9484TIP3    H249868   1.630   0.064  12.990  0.0487  0.4815  1.3317
 9485TIP3   OH249869   2.724   1.312   2.062 -0.3298  0.2829  0.5118
 9485TIP3    H149870   2.678   1.384   2.019  1.1012  1.6092  1.0834
 9485TIP3    H249871   2.814   1.318   2.030 -0.0838 -1.0346  0.8725
 9486TIP3   OH249872   4.505   3.712   5.808  0.5023 -0.2383  0.3980
 9486TIP3    H149873   4.444   3.713   5.881 -0.0937  0.0920 -0.0916
 9486TIP3    H249874   4.530   3.620   5.797 -0.5117 -0.4868  0.1135
 9487TIP3   OH249875   4.823   2.890   2.304  0.1420 -0.3187 -0.2432
 9487TIP3    H149876   4.839   2.845   2.387 -0.2571  2.4706  1.4714
 9487TIP3    H249877   4.897   2.949   2.294 -1.7321  2.3458  0.3771
 9488TIP3   OH249878   3.924   6.116  13.478  0.1252  0.0993 -0.1755
 9488TIP3    H149879   3.949   6.024  13.477  0.4995  0.1988 -0.2037
 9488TIP3    H249880   3.876   6.127  13.561 -0.9604 -0.3795 -0.7181
 9489TIP3   OH249881   5.798   2.016   1.487  0.0240 -0.3356 -0.0042
 9489TIP3    H149882   5.760   2.104   1.482 -0.7356 -0.5740  1.2578
 9489TIP3    H249883   5.723   1.959   1.506  0.8330 -0.9505  1.4795
 9490TIP3   OH249884   4.447   6.056  17.283 -0.1288  0.6150 -0.4746
 9490TIP3    H149885   4.362   6.099  17.279  0.1987  1.2197 -1.4956
 9490TIP3    H249886   4.439   5.981  17.224 -0.4974 -0.3907  0.8126
 9491TIP3   OH249887   3.645   4.701   5.641  0.0143  0.0992  0.0867
 9491TIP3    H149888   3.686   4.634   5.696 -0.0697  0.3313  0.4324
 9491TIP3    H249889   3.587   4.749   5.700  1.3497  1.5981  0.2666
 9492TIP3   OH249890   5.291   0.283  12.848  0.2039 -0.8371 -0.3409
 9492TIP3    H149891   5.231   0.251  12.914  1.2638 -1.7511  0.2081
 9492TIP3    H249892   5.373   0.237  12.865  0.9350  0.0312 -1.3514
 9493TIP3   OH249893   0.309   2.250  16.716  0.0259 -0.5913  0.3843
 9493TIP3    H149894   0.307   2.173  16.773 -1.0438 -0.9707 -0.1286
 9493TIP3    H249895   0.402   2.268  16.704  0.3181  0.4349  3.4245
 9494TIP3   OH249896   2.949   6.116   3.818 -0.1625  0.1414 -0.3025
 9494TIP3    H149897   2.955   6.163   3.902  0.6299 -1.2116  0.4427
 9494TIP3    H249898   2.940   6.024   3.843 -0.1193 -0.2662 -1.7191
 9495TIP3   OH249899   4.574   4.674   0.975  0.5011  0.4590 -0.1545
 9495TIP3    H149900   4.584   4.581   0.994 -1.7443  0.0573 -0.6698
 9495TIP3    H249901   4.577   4.680   0.880  0.2699  0.8587 -0.1410
 9496TIP3   OH249902   6.459   0.597   0.195  0.1177 -0.6245 -0.4147
 9496TIP3    H149903   6.513   0.581   0.118 -0.7272 -1.0144 -0.9466
 9496TIP3    H249904   6.515   0.646   0.255  0.9222 -0.6885 -1.1059
 9497TIP3   OH249905   5.290   5.753  15.507 -0.1827 -0.4050  0.3388
 9497TIP3    H149906   5.218   5.732  15.566 -0.4428 -0.4264  0.0161
 9497TIP3    H249907   5.364   5.774  15.565  0.1709 -2.4528  0.7003
 9498TIP3   OH249908   4.847   5.914   1.852 -0.1886 -0.4185  0.3705
 9498TIP3    H149909   4.830   5.824   1.824  0.9613 -0.9766  1.4356
 9498TIP3    H249910   4.813   5.918   1.941  0.3954  0.0086  0.5734
 9499TIP3   OH249911   3.076   5.923   3.085  0.4066  0.2742 -0.2026
 9499TIP3    H149912   3.066   5.892   3.175 -2.4202  1.1777 -0.1333
 9499TIP3    H249913   3.016   5.870   3.034  0.4296  1.1703 -1.2009
 9500TIP3   OH249914   5.727   1.462   1.865  0.7198  0.1511 -0.0386
 9500TIP3    H149915   5.760   1.549   1.841  0.0968  0.9041  1.7063
 9500TIP3    H249916   5.781   1.436   1.940  0.2876 -0.5610  0.0353
 9501TIP3   OH249917   4.206   5.621  13.855  0.0521 -0.2183 -0.3716
 9501TIP3    H149918   4.121   5.662  13.869  0.2136 -0.0476  0.1540
 9501TIP3    H249919   4.223   5.632  13.762 -0.9956 -1.2361 -0.6986
 9502TIP3   OH249920   1.549   5.616   1.038  0.4282 -0.0900 -0.4898
 9502TIP3    H149921   1.516   5.566   0.964 -0.0251  0.5952 -0.7514
 9502TIP3    H249922   1.618   5.561   1.075  0.8656 -0.3037 -1.5982
 9503TIP3   OH249923   6.489   4.910   1.064  0.3770 -0.5451  0.3803
 9503TIP3    H149924   6.508   5.001   1.085  0.2877 -0.7248  1.3204
 9503TIP3    H249925   6.405   4.893   1.106 -0.6920 -0.4665 -1.6072
 9504TIP3   OH249926   2.919   3.474   5.683 -0.0844 -0.7142  0.1715
 9504TIP3    H149927   2.903   3.400   5.741  1.4902 -0.7445  0.6329
 9504TIP3    H249928   2.961   3.539   5.739  1.4630 -0.7434 -0.8706
 9505TIP3   OH249929   2.941   6.328   2.930  0.1634 -0.2764 -0.8702
 9505TIP3    H149930   2.910   6.322   3.021 -0.6035  2.7108 -0.8489
 9505TIP3    H249931   2.870   6.290   2.879 -1.3681  1.8344 -0.4417
 9506TIP3   OH249932   0.017   2.103   1.304 -0.2616  0.1178  0.0032
 9506TIP3    H149933   0.087   2.092   1.367 -0.8616 -1.1038  0.4974
 9506TIP3    H249934  -0.060   2.063   1.346 -1.2791  1.4541 -0.4904
 9507TIP3   OH249935   5.291   4.508   4.611 -0.0159  0.3563  0.3840
 9507TIP3    H149936   5.372   4.556   4.624 -1.0285  1.7006  2.3172
 9507TIP3    H249937   5.223   4.564   4.649 -1.8555 -0.7405 -1.0946
 9508TIP3   OH249938   1.801   6.732   2.628  0.6682 -0.5116  0.5784
 9508TIP3    H149939   1.797   6.637   2.614 -0.6484 -0.5939  1.3527
 9508TIP3    H249940   1.728   6.766   2.576  1.5308  0.1668 -0.2172
 9509TIP3   OH249941   0.776   3.945   5.865 -0.4912 -0.0686  0.6202
 9509TIP3    H149942   0.688   3.963   5.900 -0.5029  1.5735 -0.1578
 9509TIP3    H249943   0.797   3.858   5.898 -1.1575  0.7081  3.3620
 9510TIP3   OH249944   3.144   5.318  13.573  0.4110  0.1422  0.4137
 9510TIP3    H149945   3.209   5.248  13.573 -0.7782 -1.0027  0.1942
 9510TIP3    H249946   3.152   5.358  13.486  1.2381  0.4353  0.6135
 9511TIP3   OH249947   5.855   0.769  14.567 -0.3183 -0.0851  0.0255
 9511TIP3    H149948   5.840   0.677  14.585  0.7327 -0.1711  0.5739
 9511TIP3    H249949   5.799   0.789  14.492 -1.3004 -0.9075  0.5168
 9512TIP3   OH249950   0.624   0.338  13.591 -0.3810 -0.2769 -0.5669
 9512TIP3    H149951   0.597   0.420  13.632 -1.8230  0.7497 -3.3178
 9512TIP3    H249952   0.704   0.360  13.543  1.0270 -1.3478  1.1451
 9513TIP3   OH249953   4.059   5.366  13.664  0.2527 -0.0961 -0.0668
 9513TIP3    H149954   4.039   5.311  13.588 -0.7201 -1.7227  1.2995
 9513TIP3    H249955   3.975   5.405  13.688  0.7799  1.3869 -0.5125
 9514TIP3   OH249956   3.641   6.225  16.194 -0.0208 -0.3102  0.0655
 9514TIP3    H149957   3.664   6.294  16.132 -1.6060  0.1963 -0.0236
 9514TIP3    H249958   3.620   6.149  16.139  0.4185 -0.4447  0.0842
 9515TIP3   OH249959   5.485   1.513  16.497 -0.0355 -0.0216  0.4227
 9515TIP3    H149960   5.397   1.552  16.502 -0.1502 -0.3640  1.3474
 9515TIP3    H249961   5.483   1.460  16.417 -0.6577  0.0120  0.4082
 9516TIP3   OH249962   3.068   0.155  12.731 -0.1893  0.3037 -0.1018
 9516TIP3    H149963   3.114   0.123  12.809  0.6553  0.0034 -0.6958
 9516TIP3    H249964   2.991   0.099  12.724  1.1290 -1.5232 -0.9687
 9517TIP3   OH249965   1.392   5.726  15.751 -0.5223  0.1329 -0.0148
 9517TIP3    H149966   1.371   5.806  15.801 -1.1703  0.3045 -0.5329
 9517TIP3    H249967   1.309   5.703  15.708 -1.3381 -2.7319  2.7096
 9518TIP3   OH249968   2.248   1.774   0.039 -0.4447 -0.1546  0.2378
 9518TIP3    H149969   2.231   1.697   0.093 -2.0713  0.2658  0.3548
 9518TIP3    H249970   2.216   1.751  -0.048  1.3537 -0.4944 -0.3844
 9519TIP3   OH249971   2.790   5.461  13.463  0.1853  0.8998  0.2031
 9519TIP3    H149972   2.723   5.523  13.491 -0.1144 -0.0615  1.7615
 9519TIP3    H249973   2.834   5.436  13.545  0.8194 -0.3187 -0.4906
 9520TIP3   OH249974   4.513   1.015   3.368  0.5921 -0.0556 -0.4327
 9520TIP3    H149975   4.454   1.059   3.306  0.0621  1.0095  0.7914
 9520TIP3    H249976   4.589   1.072   3.373  0.5100  0.0124  0.1074
 9521TIP3   OH249977   3.137   3.365   5.540  0.4545 -0.6002 -0.2470
 9521TIP3    H149978   3.204   3.378   5.607 -0.2672  1.1636  0.1631
 9521TIP3    H249979   3.054   3.364   5.588  0.0437 -0.9766 -0.9429
 9522TIP3   OH249980   6.704   2.110  11.912  0.1907  0.3675  0.2360
 9522TIP3    H149981   6.723   2.033  11.858  1.1646  0.8948 -0.1951
 9522TIP3    H249982   6.624   2.147  11.874  0.5484  0.4076 -0.4868
 9523TIP3   OH249983   5.760   4.919  12.045  0.1977 -0.4846  0.4384
 9523TIP3    H149984   5.787   4.858  12.114  0.5389  0.5206  1.2196
 9523TIP3    H249985   5.836   4.976  12.032 -0.0575 -0.3223 -0.3925
 9524TIP3   OH249986   6.545   3.062   0.755 -0.4800  0.1703  0.1794
 9524TIP3    H149987   6.586   3.076   0.670 -0.4124  0.2299  0.2221
 9524TIP3    H249988   6.491   2.984   0.742 -2.5861  1.6699 -0.6967
 9525TIP3   OH249989   0.794   4.700  15.284 -0.0453 -0.0089  0.5521
 9525TIP3    H149990   0.728   4.678  15.218 -0.1284 -1.1259  0.9873
 9525TIP3    H249991   0.792   4.796  15.288 -2.3588 -0.0114  1.2499
 9526TIP3   OH249992   2.946   5.502  16.599  0.0959  0.0820  0.0071
 9526TIP3    H149993   2.853   5.487  16.618  0.3712 -1.3070  0.3934
 9526TIP3    H249994   2.972   5.572  16.658 -0.2109 -0.9636  1.4308
 9527TIP3   OH249995   4.563   0.706   0.277  0.5059 -0.7548  0.4729
 9527TIP3    H149996   4.627   0.685   0.210  0.6537  1.1649 -0.0468
 9527TIP3    H249997   4.480   0.676   0.240  0.8504 -1.5680  0.3397
 9528TIP3   OH249998   5.534   5.010  15.452 -0.3498 -0.1635 -0.7622
 9528TIP3    H149999   5.439   5.017  15.448 -0.4097 -0.4395 -0.0153
 9528TIP3    H250000   5.553   4.922  15.419 -0.4077 -0.3709 -0.2404
 9529TIP3   OH250001   4.037   2.631   0.979  0.1294 -0.4413  0.2611
 9529TIP3    H150002   4.064   2.586   0.899  0.5636  0.3790 -0.0600
 9529TIP3    H250003   3.942   2.644   0.968  0.0481 -1.0289  0.2389
 9530TIP3   OH250004   5.978   2.042  16.672  0.1667  0.0726  0.0795
 9530TIP3    H150005   6.040   2.091  16.726  1.0976  0.1112 -0.9797
 9530TIP3    H250006   6.005   1.951  16.680 -0.2539 -0.0245  0.3925
 9531TIP3   OH250007   1.960   4.774   4.044 -0.1713 -0.1434  0.1218
 9531TIP3    H150008   1.866   4.794   4.046  0.0947  1.0973  1.7648
 9531TIP3    H250009   2.003   4.859   4.036  0.8327 -0.6809 -0.3535
 9532TIP3   OH250010   6.408   2.982  13.306 -0.5241 -0.4319  0.1202
 9532TIP3    H150011   6.413   2.993  13.211 -0.3775 -1.8365 -0.0559
 9532TIP3    H250012   6.329   3.030  13.332 -0.2581  0.4217 -0.6331
 9533TIP3   OH250013   0.786   4.025   6.602 -0.2244  0.3733 -0.7745
 9533TIP3    H150014   0.786   3.930   6.591  0.1103  0.2900 -0.0681
 9533TIP3    H250015   0.842   4.057   6.531  0.1432  0.0016 -0.6533
 9534TIP3   OH250016   6.243   0.261  12.328  0.3624 -0.1174  0.1980
 9534TIP3    H150017   6.199   0.178  12.346  1.7179 -0.7179  0.9550
 9534TIP3    H250018   6.304   0.241  12.257  0.0828  0.4572 -0.2099
 9535TIP3   OH250019   0.249   2.361   1.146  0.6908 -0.6105  0.2476
 9535TIP3    H150020   0.167   2.312   1.143 -1.6134  2.8149  1.2150
 9535TIP3    H250021   0.275   2.359   1.238  0.0451  0.6321  0.4850
 9536TIP3   OH250022   5.036   1.769  14.171  0.1554 -0.5571 -0.5094
 9536TIP3    H150023   5.063   1.684  14.207  0.4430 -0.1671  0.2340
 9536TIP3    H250024   4.986   1.809  14.242 -3.1119 -1.5564 -2.0931
 9537TIP3   OH250025   5.220   0.860   2.959  0.1708 -0.1283 -0.4879
 9537TIP3    H150026   5.309   0.832   2.979  0.2778  0.7074  0.2948
 9537TIP3    H250027   5.228   0.954   2.941 -0.5045 -0.1129 -0.7314
 9538TIP3   OH250028   4.883   2.438  15.834 -0.5248 -0.3598 -0.0293
 9538TIP3    H150029   4.795   2.443  15.796 -0.9830  0.5704  1.1222
 9538TIP3    H250030   4.876   2.484  15.917  0.9673 -0.6139  0.2555
 9539TIP3   OH250031   0.944   4.464  15.101 -0.1990  0.0989  0.3841
 9539TIP3    H150032   0.914   4.386  15.147  1.5824  0.6163  2.6275
 9539TIP3    H250033   0.952   4.530  15.170 -2.2314  2.5227 -1.5176
 9540TIP3   OH250034   0.712   3.521  14.920 -0.1441 -0.3777  0.0285
 9540TIP3    H150035   0.793   3.482  14.888 -0.0233 -1.4579  1.5662
 9540TIP3    H250036   0.644   3.459  14.894 -0.3674  0.0417 -0.3993
 9541TIP3   OH250037   1.593   3.631   4.115 -0.1064 -0.3654  0.3982
 9541TIP3    H150038   1.619   3.608   4.026 -0.8637  0.3705 -0.0222
 9541TIP3    H250039   1.583   3.726   4.114 -0.7604 -0.4125  1.0898
 9542TIP3   OH250040   5.754   2.911  14.392 -0.0139  0.1752 -0.7586
 9542TIP3    H150041   5.736   2.877  14.480  1.0587  2.6648  0.5309
 9542TIP3    H250042   5.849   2.905  14.383 -0.1381 -0.3835 -1.9479
 9543TIP3   OH250043   0.199   3.362  14.279  0.2298 -0.0585 -0.3317
 9543TIP3    H150044   0.127   3.412  14.241  0.7996  0.5519 -0.6283
 9543TIP3    H250045   0.192   3.378  14.373  1.5389  2.1684 -0.5632
 9544TIP3   OH250046   5.694   4.275  10.961 -0.5762 -0.5389  0.7549
 9544TIP3    H150047   5.620   4.267  10.900  0.4152 -1.4061 -0.3880
 9544TIP3    H250048   5.748   4.345  10.923  0.9545 -2.2620 -0.4340
 9545TIP3   OH250049   0.569   4.718  13.160  0.5809  0.2860  0.0875
 9545TIP3    H150050   0.501   4.677  13.214 -0.0471  2.0789  0.7515
 9545TIP3    H250051   0.602   4.789  13.214 -0.8510  2.8938 -2.1974
 9546TIP3   OH250052   5.044   0.872  11.816 -0.4760 -0.1862  0.0274
 9546TIP3    H150053   5.012   0.961  11.798 -0.6772 -0.3170 -0.2649
 9546TIP3    H250054   4.989   0.816  11.761 -2.2825 -0.7716  2.2886
 9547TIP3   OH250055   4.599   1.144  17.312  0.0766 -0.1806  0.5090
 9547TIP3    H150056   4.659   1.177  17.380  0.2663 -0.1508  0.3288
 9547TIP3    H250057   4.653   1.085  17.259 -0.7501 -2.4926  2.0701
 9548TIP3   OH250058   0.305   4.302  11.980  0.0559  0.3841 -0.2867
 9548TIP3    H150059   0.351   4.376  11.940 -1.3719  0.4074 -1.9863
 9548TIP3    H250060   0.224   4.339  12.013  0.2946 -0.0477  0.8433
 9549TIP3   OH250061   3.144   0.583   5.355  0.3966  0.1068  0.5395
 9549TIP3    H150062   3.140   0.638   5.434  1.2717  2.4531 -0.9162
 9549TIP3    H250063   3.108   0.639   5.286 -0.4330 -1.9123 -0.7307
 9550TIP3   OH250064   5.751   1.125  16.786  0.0578  0.0703  0.0820
 9550TIP3    H150065   5.684   1.142  16.720 -0.4260 -0.4109  0.4480
 9550TIP3    H250066   5.808   1.059  16.745  0.3121  0.4719 -0.2236
 9551TIP3   OH250067   1.432   5.827  16.412  0.0338  0.4749  0.1079
 9551TIP3    H150068   1.340   5.817  16.437 -0.1860  1.7128 -0.1587
 9551TIP3    H250069   1.455   5.744  16.371 -0.9112  0.0865  0.3480
 9552TIP3   OH250070   5.034   1.870  13.928 -0.0120 -0.1938 -0.2570
 9552TIP3    H150071   5.042   1.840  14.019  0.4835  1.5641  0.3083
 9552TIP3    H250072   5.032   1.965  13.934 -0.4891 -0.0539 -2.0709
 9553TIP3   OH250073   2.492   1.357  16.501  0.0715  0.0228  0.3028
 9553TIP3    H150074   2.450   1.371  16.586 -0.4330  1.9160 -0.2031
 9553TIP3    H250075   2.572   1.410  16.506  0.4747 -0.5443 -0.0946
 9554TIP3   OH250076   6.583   1.160  13.169 -0.5432 -0.4293 -0.3569
 9554TIP3    H150077   6.556   1.238  13.121  0.2979 -0.4513 -0.8882
 9554TIP3    H250078   6.555   1.086  13.114 -0.6087 -0.4793 -0.2565
 9555TIP3   OH250079   3.119   1.469   2.585  0.6636  0.2444  0.0686
 9555TIP3    H150080   3.066   1.457   2.664  0.1947 -1.7547 -0.4944
 9555TIP3    H250081   3.086   1.551   2.547 -1.1224 -0.2573  0.4418
 9556TIP3   OH250082   1.014   0.722  10.867 -0.4300  0.1678 -0.3597
 9556TIP3    H150083   0.954   0.708  10.941  2.0587  0.4204  1.8693
 9556TIP3    H250084   0.976   0.795  10.819 -0.7168  2.0044  2.4230
 9557TIP3   OH250085   5.911   0.856  12.173  0.0593  0.3189 -0.2177
 9557TIP3    H150086   5.856   0.931  12.195 -2.1989 -0.4615 -2.7111
 9557TIP3    H250087   5.978   0.893  12.114  0.2553  0.7145  0.2436
 9558TIP3   OH250088   2.257   0.061   1.856  0.4349 -0.7476  0.0733
 9558TIP3    H150089   2.258   0.107   1.939 -0.1234  0.0263 -0.3301
 9558TIP3    H250090   2.250   0.130   1.790 -1.7222 -1.4088 -0.5018
 9559TIP3   OH250091   2.554   5.007   2.236  0.4741  0.4180 -0.0264
 9559TIP3    H150092   2.641   4.967   2.238  0.0726 -0.6434 -1.8020
 9559TIP3    H250093   2.502   4.955   2.297  0.9793  0.8192  0.7554
 9560TIP3   OH250094   1.647   2.563   4.587 -0.3839 -0.0987 -0.4165
 9560TIP3    H150095   1.568   2.588   4.635 -0.7612  0.5984 -1.3655
 9560TIP3    H250096   1.615   2.508   4.515 -0.1666  1.1420 -1.4967
 9561TIP3   OH250097   5.254   6.352  15.133  0.0065  0.0587  0.1293
 9561TIP3    H150098   5.250   6.365  15.227  1.7422 -0.5706  0.3325
 9561TIP3    H250099   5.318   6.282  15.121 -0.5081 -0.1829 -1.5001
 9562TIP3   OH250100   0.464   3.726  14.806 -0.3670  0.0070 -0.2829
 9562TIP3    H150101   0.507   3.644  14.832  0.4211  0.6831  0.5896
 9562TIP3    H250102   0.449   3.773  14.887 -3.0723 -0.2966 -0.5195
 9563TIP3   OH250103   6.080   2.336   1.726  0.1357 -0.0327 -0.1092
 9563TIP3    H150104   6.132   2.390   1.666  0.0726  0.3133  0.1452
 9563TIP3    H250105   6.009   2.394   1.755  1.4015  0.5516  2.0358
 9564TIP3   OH250106   0.821   2.830   6.582  0.4796 -0.0161  0.4575
 9564TIP3    H150107   0.745   2.835   6.524 -0.9099 -0.0233  2.1798
 9564TIP3    H250108   0.888   2.883   6.539 -0.8172  0.7715 -0.6737
 9565TIP3   OH250109   3.593   0.743   3.591  0.5477  0.0403  0.1386
 9565TIP3    H150110   3.636   0.683   3.652  0.6171 -0.1990 -0.1433
 9565TIP3    H250111   3.501   0.719   3.595  0.0724  1.9220  2.3198
 9566TIP3   OH250112   0.553   2.575   4.120 -0.3397 -0.3725 -0.1640
 9566TIP3    H150113   0.552   2.480   4.132  0.5615 -0.6335 -1.8223
 9566TIP3    H250114   0.484   2.591   4.055  0.9106 -0.1891 -1.4993
 9567TIP3   OH250115   5.848   3.565  14.781  0.4638 -0.2315  0.2661
 9567TIP3    H150116   5.906   3.636  14.754 -0.3667  1.2007  2.0997
 9567TIP3    H250117   5.853   3.564  14.876 -0.2059 -2.0937  0.3208
 9568TIP3   OH250118   2.941   2.292   1.547 -0.3342 -0.1111 -0.1737
 9568TIP3    H150119   3.021   2.317   1.593 -1.3196 -1.5824  2.6090
 9568TIP3    H250120   2.875   2.353   1.580 -0.2408  2.0872 -3.5715
 9569TIP3   OH250121   1.078   3.739  15.145  0.6882  0.3170  0.2852
 9569TIP3    H150122   1.137   3.716  15.216  0.4155 -0.3761  0.2938
 9569TIP3    H250123   1.097   3.676  15.076 -0.9854 -0.8395  0.8016
 9570TIP3   OH250124   3.751   1.738  12.850  0.4769 -0.2120  0.0919
 9570TIP3    H150125   3.845   1.724  12.839  0.5032  0.1636 -0.1691
 9570TIP3    H250126   3.710   1.669  12.797  0.6011 -0.6846  0.6048
 9571TIP3   OH250127   0.301   4.834   4.412 -0.3241 -0.6989 -0.7002
 9571TIP3    H150128   0.279   4.835   4.319 -2.1527 -0.9609 -0.3078
 9571TIP3    H250129   0.394   4.809   4.415 -0.1449 -0.3092 -2.4526
 9572TIP3   OH250130   4.147   5.973  15.267 -0.3607  0.4886 -0.1354
 9572TIP3    H150131   4.123   5.999  15.178  0.8452 -0.0741 -0.6436
 9572TIP3    H250132   4.140   5.878  15.267 -0.7242  0.5140  0.4856
 9573TIP3   OH250133   6.107   3.165   6.005  0.1988 -0.0040  0.2665
 9573TIP3    H150134   6.054   3.127   6.075  1.9796  0.0348  1.7225
 9573TIP3    H250135   6.147   3.089   5.962  0.4241  0.0415  0.3951
 9574TIP3   OH250136   4.853   4.126   5.414  1.6443 -0.2775  0.1946
 9574TIP3    H150137   4.878   4.100   5.503 -2.0995 -0.7183  1.2760
 9574TIP3    H250138   4.879   4.218   5.408 -2.6577  1.5720  3.9624
 9575TIP3   OH250139   2.195   0.243  10.305 -0.7913  0.1636  0.8009
 9575TIP3    H150140   2.133   0.254  10.377 -1.0612  0.3813  0.5409
 9575TIP3    H250141   2.161   0.300  10.235 -1.1651 -0.9179  0.0853
 9576TIP3   OH250142   4.424   0.442  16.962 -0.0115 -0.3014 -0.0776
 9576TIP3    H150143   4.450   0.399  17.044  0.3258  1.8365  1.0240
 9576TIP3    H250144   4.329   0.433  16.960  0.1707 -3.2542 -1.2450
 9577TIP3   OH250145   2.645   3.482  14.349 -0.3846  0.3455  0.7529
 9577TIP3    H150146   2.635   3.540  14.425  1.7750  0.8118  0.7248
 9577TIP3    H250147   2.695   3.534  14.286 -1.8026 -0.1795 -0.8702
 9578TIP3   OH250148   3.284   6.364  14.179 -0.6341  0.5391 -0.8181
 9578TIP3    H150149   3.208   6.422  14.190 -3.1317 -2.4693 -1.0130
 9578TIP3    H250150   3.312   6.379  14.089  1.0350  3.7792  0.0760
 9579TIP3   OH250151   0.361   3.453   0.613 -0.2220 -0.4760 -0.6819
 9579TIP3    H150152   0.417   3.530   0.618 -1.3808  0.3864 -0.4779
 9579TIP3    H250153   0.392   3.396   0.683 -0.3766  0.5443  0.2558
 9580TIP3   OH250154   4.594   0.936  12.850 -0.4830  0.0879 -0.5056
 9580TIP3    H150155   4.550   1.001  12.795  2.5754  0.9303 -2.1721
 9580TIP3    H250156   4.666   0.984  12.890  1.3648 -2.0325 -1.1131
 9581TIP3   OH250157   4.329   1.685   3.351 -0.3043 -0.1549  0.3709
 9581TIP3    H150158   4.401   1.637   3.310 -1.3774 -0.0996 -1.7162
 9581TIP3    H250159   4.371   1.764   3.387  0.5969  0.3080 -1.5592
 9582TIP3   OH250160   0.711   0.750   3.962  0.0917 -0.2808  0.2654
 9582TIP3    H150161   0.700   0.838   3.928  1.0558 -0.2839 -0.1000
 9582TIP3    H250162   0.795   0.752   4.008  0.4801 -1.1801 -0.3661
 9583TIP3   OH250163   6.222   4.698   0.148  0.4064 -0.0390 -0.0417
 9583TIP3    H150164   6.210   4.612   0.188 -0.1840  0.2696  0.4551
 9583TIP3    H250165   6.293   4.738   0.199  1.9469 -0.9042 -1.4085
 9584TIP3   OH250166   3.356   0.694  11.410 -0.1140 -0.5892  0.6182
 9584TIP3    H150167   3.298   0.682  11.486 -1.0453 -2.9283 -0.3623
 9584TIP3    H250168   3.440   0.657  11.439  0.1305  0.3453  1.1415
 9585TIP3   OH250169   2.125   3.058  10.791 -0.2371 -0.2926  0.0771
 9585TIP3    H150170   2.120   2.969  10.826  0.4694 -0.3870 -0.0559
 9585TIP3    H250171   2.202   3.057  10.735 -1.0387  0.0127 -1.0461
 9586TIP3   OH250172   1.356   2.623   2.254  0.4835  0.1744  0.0226
 9586TIP3    H150173   1.438   2.585   2.287  0.5562  0.0179 -0.3332
 9586TIP3    H250174   1.331   2.687   2.320  0.6703 -0.0767  0.3432
 9587TIP3   OH250175   2.784   2.161   5.206 -0.2851 -0.0925 -0.2887
 9587TIP3    H150176   2.705   2.201   5.244 -0.6966 -0.1493 -1.0579
 9587TIP3    H250177   2.800   2.212   5.126  0.5031 -0.0397 -0.1044
 9588TIP3   OH250178   6.338   6.309  14.179 -0.0414  0.4594 -0.5544
 9588TIP3    H150179   6.247   6.328  14.154 -0.2976  0.1516  0.1122
 9588TIP3    H250180   6.383   6.393  14.169 -0.2879  0.5092 -1.3388
 9589TIP3   OH250181   5.968   5.879  13.913  0.6651 -0.1026 -0.7319
 9589TIP3    H150182   5.927   5.924  13.987 -1.6661 -0.9564 -1.4156
 9589TIP3    H250183   6.041   5.830  13.952  0.5194  0.7701  0.7072
 9590TIP3   OH250184   1.106   5.217  12.101  0.2029  0.2115  0.9039
 9590TIP3    H150185   1.134   5.126  12.111  1.6010  0.6262  0.9754
 9590TIP3    H250186   1.178   5.268  12.139 -1.1172  1.3147  2.0198
 9591TIP3   OH250187   0.558   6.135  16.115 -0.5260  0.5755  0.3633
 9591TIP3    H150188   0.507   6.091  16.184 -1.3155  0.4720 -0.2727
 9591TIP3    H250189   0.649   6.117  16.138 -0.7274  1.4876  2.0004
 9592TIP3   OH250190   3.067   4.607   3.098 -0.1636  0.4876  0.4517
 9592TIP3    H150191   2.972   4.603   3.081 -0.1817  1.6255  0.2261
 9592TIP3    H250192   3.074   4.655   3.181  0.1705 -0.7757  1.1812
 9593TIP3   OH250193   0.045   4.073  14.853 -0.2254  0.4966  0.0558
 9593TIP3    H150194   0.088   4.084  14.937 -2.9515  2.2262  1.3970
 9593TIP3    H250195  -0.018   4.002  14.867  1.6868 -1.6788 -1.7046
 9594TIP3   OH250196   1.325   3.209  13.518  0.6699  0.1666 -0.5383
 9594TIP3    H150197   1.364   3.238  13.435 -0.2277 -0.8978 -1.3646
 9594TIP3    H250198   1.365   3.124  13.535 -0.3841 -0.3809 -0.7643
 9595TIP3   OH250199   5.558   2.644   2.698  0.3662 -0.0253 -0.3127
 9595TIP3    H150200   5.623   2.631   2.629  1.1155 -2.1227  0.7083
 9595TIP3    H250201   5.493   2.576   2.683 -0.1095  0.2787  0.3223
 9596TIP3   OH250202   1.849   4.293   1.806  0.5961  0.1703  0.2681
 9596TIP3    H150203   1.803   4.221   1.764  0.9683 -0.0310  0.1987
 9596TIP3    H250204   1.839   4.276   1.900  1.8175 -0.7127  0.2485
 9597TIP3   OH250205   1.516   4.257   2.935  0.1296 -0.0288 -0.0370
 9597TIP3    H150206   1.604   4.287   2.910  0.8348 -1.3250  0.7972
 9597TIP3    H250207   1.477   4.331   2.980  1.2940  0.1367  0.7268
 9598TIP3   OH250208   2.323   6.274  12.501  0.1820 -0.5634 -0.4343
 9598TIP3    H150209   2.406   6.230  12.516 -0.0461 -1.1872 -0.9662
 9598TIP3    H250210   2.301   6.314  12.586 -0.3832 -2.7921  0.5339
 9599TIP3   OH250211   5.179   5.024  14.118  0.1854  0.3737 -0.3947
 9599TIP3    H150212   5.261   5.058  14.084  0.7531 -1.0081 -0.4866
 9599TIP3    H250213   5.128   5.102  14.141  1.2375  1.2631 -0.9742
 9600TIP3   OH250214   3.241   4.106  15.917  0.0993 -0.0001 -0.2018
 9600TIP3    H150215   3.227   4.011  15.908  2.8258 -0.4687 -0.1363
 9600TIP3    H250216   3.160   4.137  15.959 -1.3625 -2.0694 -1.2727
 9601TIP3   OH250217   0.166   6.356   2.982  0.3897  0.6077 -0.4996
 9601TIP3    H150218   0.204   6.282   3.030  0.1506  0.1131 -1.0561
 9601TIP3    H250219   0.221   6.364   2.904 -0.2467  0.3054 -0.9878
 9602TIP3   OH250220   4.578   5.303   4.792 -0.2131 -0.1337 -0.2684
 9602TIP3    H150221   4.566   5.326   4.700  1.2856 -1.2630 -0.7926
 9602TIP3    H250222   4.582   5.207   4.793  0.6022 -0.1153  0.8555
 9603TIP3   OH250223   4.750   5.248   0.524  0.2467 -0.0257 -0.1698
 9603TIP3    H150224   4.772   5.245   0.617 -0.6722 -1.9657  0.0163
 9603TIP3    H250225   4.669   5.198   0.516 -0.2008  0.8823 -1.8940
 9604TIP3   OH250226   2.463   6.498  11.493  0.0207 -1.3825  0.0815
 9604TIP3    H150227   2.546   6.545  11.485 -0.4554 -0.6776 -0.8316
 9604TIP3    H250228   2.488   6.406  11.490  0.9818 -1.2496  1.9996
 9605TIP3   OH250229   1.945   1.158   4.067 -0.6353  0.6326  0.0656
 9605TIP3    H150230   2.003   1.085   4.089 -1.2861  0.1247  0.1220
 9605TIP3    H250231   1.974   1.186   3.981  1.3809  2.0721  1.1182
 9606TIP3   OH250232   5.136   3.632   1.985  0.0795 -0.0364  0.0113
 9606TIP3    H150233   5.090   3.549   2.000 -0.2110  0.4539  2.0113
 9606TIP3    H250234   5.071   3.699   2.004  0.4750  0.6919 -1.0843
 9607TIP3   OH250235   1.831   4.688   1.080  0.1946 -0.0081 -0.0090
 9607TIP3    H150236   1.874   4.768   1.109  1.8800 -0.5298 -0.9148
 9607TIP3    H250237   1.745   4.689   1.123  1.3344  0.7745  2.3982
 9608TIP3   OH250238   4.423   5.178   6.128  0.4737 -0.6002 -0.0278
 9608TIP3    H150239   4.390   5.103   6.079 -0.4053  0.2840 -0.8294
 9608TIP3    H250240   4.344   5.228   6.152  1.1160  1.1001 -1.2332
 9609TIP3   OH250241   0.928   6.522   1.858 -0.4535 -0.3274  0.1365
 9609TIP3    H150242   0.905   6.440   1.900  0.4828 -0.6004  0.1339
 9609TIP3    H250243   0.928   6.586   1.929 -0.4856 -0.4635  0.2595
 9610TIP3   OH250244   1.625   5.633  12.909 -0.2451 -0.4839 -0.2951
 9610TIP3    H150245   1.568   5.710  12.912 -2.7207 -2.2149 -0.3475
 9610TIP3    H250246   1.674   5.636  12.992  0.5778  1.7017 -0.8030
 9611TIP3   OH250247   6.479   5.180  10.674  0.0239  0.1166 -0.0807
 9611TIP3    H150248   6.512   5.090  10.672 -0.9122 -0.3509  2.1542
 9611TIP3    H250249   6.550   5.231  10.714 -0.4923 -0.2153  1.3351
 9612TIP3   OH250250   0.437   5.641  15.123  0.1961 -0.2163 -0.7973
 9612TIP3    H150251   0.372   5.699  15.161  1.4659  0.6366  0.1587
 9612TIP3    H250252   0.413   5.635  15.030 -1.2525  0.0188 -0.4516
 9613TIP3   OH250253   5.533   6.553  12.968  0.3836 -0.1086  0.0617
 9613TIP3    H150254   5.461   6.605  13.003  0.6065 -0.8408  1.7296
 9613TIP3    H250255   5.581   6.522  13.046  0.8151 -1.9840 -0.8747
 9614TIP3   OH250256   0.881   6.053   1.791  0.8508  0.0597 -0.0172
 9614TIP3    H150257   0.918   5.967   1.811  1.8931 -0.2626 -2.9135
 9614TIP3    H250258   0.787   6.040   1.799  0.9729 -1.4150 -0.5217
 9615TIP3   OH250259   2.086   2.287   0.908 -0.6641  0.2802  0.5008
 9615TIP3    H150260   2.079   2.194   0.932  1.3709 -0.1131 -0.2961
 9615TIP3    H250261   2.149   2.323   0.971  1.2921  0.2588 -1.3496
 9616TIP3   OH250262   5.575   5.757  12.086 -0.2920  0.3922  0.6019
 9616TIP3    H150263   5.661   5.774  12.122  0.4069 -0.7857 -0.4150
 9616TIP3    H250264   5.572   5.806  12.004 -0.2669 -0.2077  0.2360
 9617TIP3   OH250265   5.687   3.614  11.571 -0.3577 -0.4754 -0.2040
 9617TIP3    H150266   5.710   3.610  11.478  2.8888  0.4078  0.4380
 9617TIP3    H250267   5.689   3.707  11.592  0.4487 -0.7483  1.0469
 9618TIP3   OH250268   6.660   0.010   2.975  0.3925  0.3545  0.1557
 9618TIP3    H150269   6.728  -0.020   3.035 -0.7540  0.0561  1.3422
 9618TIP3    H250270   6.599  -0.063   2.968  0.9654  0.0139 -2.1579
 9619TIP3   OH250271   5.840   1.228  12.850  0.6607 -0.0324  0.1846
 9619TIP3    H150272   5.857   1.307  12.901  2.2985 -0.2404  0.0040
 9619TIP3    H250273   5.913   1.170  12.871  0.2767 -0.9097 -0.8405
 9620TIP3   OH250274   1.768   4.519  11.919  0.3452 -0.0215  0.1867
 9620TIP3    H150275   1.683   4.516  11.876 -0.0498 -0.7507  1.0081
 9620TIP3    H250276   1.749   4.538  12.010  0.8687 -2.1668  0.8070
 9621TIP3   OH250277   6.568   0.860  15.284  0.4181  0.7520  0.4798
 9621TIP3    H150278   6.531   0.848  15.196  0.6247 -0.0092  0.4861
 9621TIP3    H250279   6.628   0.786  15.294 -1.9011 -1.0024  2.4492
 9622TIP3   OH250280   5.200   6.023   3.541 -0.2771 -0.2152 -0.4800
 9622TIP3    H150281   5.236   6.047   3.455  0.6776  1.8138  0.4235
 9622TIP3    H250282   5.253   5.949   3.570  0.5129  0.1693 -0.9189
 9623TIP3   OH250283   3.119   3.956   1.521  0.0425 -0.0935 -0.3472
 9623TIP3    H150284   3.185   3.954   1.452  1.0533  2.5381  0.4455
 9623TIP3    H250285   3.168   3.971   1.601 -1.4443  1.4698  0.3338
 9624TIP3   OH250286   4.904   0.484  12.418  0.4076  0.4134 -0.3341
 9624TIP3    H150287   4.930   0.560  12.365 -0.1713  0.1106 -1.0569
 9624TIP3    H250288   4.849   0.432  12.361 -0.8596  0.4526  0.7970
 9625TIP3   OH250289   1.962   4.587   3.128  0.2753 -0.4334 -0.1817
 9625TIP3    H150290   1.871   4.613   3.140  0.4056 -0.2959  0.5040
 9625TIP3    H250291   1.960   4.491   3.133 -0.3316 -0.7288 -3.5138
 9626TIP3   OH250292   5.172   3.839  12.673  0.1466  0.1909 -0.1939
 9626TIP3    H150293   5.113   3.778  12.629 -1.0318  1.4355 -0.4011
 9626TIP3    H250294   5.211   3.788  12.744 -0.8235 -0.7856 -0.3394
 9627TIP3   OH250295   1.855   0.045   4.740 -0.0624  0.2239  0.2536
 9627TIP3    H150296   1.797  -0.023   4.705  0.8484 -0.3692 -0.1430
 9627TIP3    H250297   1.843   0.040   4.835  1.1145 -1.5444  0.3451
 9628TIP3   OH250298   6.083   6.369  14.108 -0.8128 -0.2459  0.2573
 9628TIP3    H150299   6.012   6.305  14.114 -1.8037  0.9449  2.5202
 9628TIP3    H250300   6.039   6.454  14.113  0.7076  0.5347  0.9637
 9629TIP3   OH250301   4.317   0.556  11.310  0.5145 -0.1758 -0.3805
 9629TIP3    H150302   4.260   0.506  11.369 -1.1742  2.5364  0.4825
 9629TIP3    H250303   4.405   0.523  11.328 -0.4534 -2.6289  0.2532
 9630TIP3   OH250304   4.481   2.166   0.554 -0.1310  0.3040 -0.1860
 9630TIP3    H150305   4.473   2.233   0.486  0.4143  0.7108  0.1486
 9630TIP3    H250306   4.462   2.084   0.508  0.4517  0.5474 -0.8943
 9631TIP3   OH250307   4.485   5.401  14.410  0.2310 -0.4026 -0.1942
 9631TIP3    H150308   4.434   5.343  14.467 -0.2610 -0.3408 -0.5596
 9631TIP3    H250309   4.522   5.343  14.344  0.8783 -0.4869  0.2329
 9632TIP3   OH250310   3.467   0.249  16.907 -0.2873 -0.1519 -0.0699
 9632TIP3    H150311   3.405   0.178  16.925  0.5497 -0.7255  0.6788
 9632TIP3    H250312   3.473   0.297  16.990  2.2423 -1.7190  0.7834
 9633TIP3   OH250313   2.052   4.397   4.675  0.0877 -0.2212 -0.1079
 9633TIP3    H150314   1.993   4.426   4.745  0.2109 -0.6011  0.1555
 9633TIP3    H250315   2.000   4.403   4.596  0.9870  3.7524 -0.6062
 9634TIP3   OH250316   4.124   1.252  16.365 -0.0888 -0.1877 -0.1395
 9634TIP3    H150317   4.116   1.248  16.269  1.7181 -2.1194 -0.2800
 9634TIP3    H250318   4.089   1.338  16.388 -0.3556  0.4354 -2.5529
 9635TIP3   OH250319   0.498   1.352   5.060  0.5548 -0.0409  0.6194
 9635TIP3    H150320   0.498   1.373   4.967  0.2198  0.3694  0.7086
 9635TIP3    H250321   0.586   1.377   5.089 -0.3482  3.0463  1.0883
 9636TIP3   OH250322   1.706   2.268   2.601 -0.0148 -0.7582 -0.1088
 9636TIP3    H150323   1.650   2.310   2.536  0.9989 -0.1982 -0.6592
 9636TIP3    H250324   1.711   2.176   2.573  0.3253 -0.5449 -0.7786
 9637TIP3   OH250325   3.734   3.684  15.261  0.0264 -0.1194 -0.4156
 9637TIP3    H150326   3.773   3.690  15.174  1.3883 -1.9780 -0.0041
 9637TIP3    H250327   3.809   3.673  15.320 -0.8225  1.5790  1.0792
 9638TIP3   OH250328   4.768   1.488   4.344  0.4108  0.2121 -0.4086
 9638TIP3    H150329   4.810   1.554   4.288  1.4906  0.0614  0.1990
 9638TIP3    H250330   4.834   1.420   4.354  0.4004  0.4214  1.3745
 9639TIP3   OH250331   5.064   5.912   0.923 -0.0443 -0.0209  0.0579
 9639TIP3    H150332   5.128   5.982   0.928 -0.8855  0.7644 -0.0153
 9639TIP3    H250333   5.108   5.836   0.962  1.1470  0.3211 -0.5766
 9640TIP3   OH250334   1.143   0.741  14.889 -0.4718 -0.3384  0.2606
 9640TIP3    H150335   1.150   0.692  14.971 -2.3815  0.3317  0.8841
 9640TIP3    H250336   1.081   0.691  14.836 -0.4013  0.0165 -0.1692
 9641TIP3   OH250337   2.526   1.096   3.813  0.5656  0.3535  0.1320
 9641TIP3    H150338   2.540   1.039   3.890  0.4888 -1.9346 -1.4456
 9641TIP3    H250339   2.464   1.162   3.844  1.6970  0.4404  2.4529
 9642TIP3   OH250340   2.187   1.479   1.064  0.0391 -0.4440 -0.1499
 9642TIP3    H150341   2.202   1.399   1.114 -0.2958 -0.5860 -0.2723
 9642TIP3    H250342   2.093   1.480   1.047  0.0913 -0.2009 -0.4463
 9643TIP3   OH250343   5.647   2.094   4.927  0.1770 -0.5162  0.1175
 9643TIP3    H150344   5.658   2.020   4.987 -2.6507 -1.1646 -0.0364
 9643TIP3    H250345   5.653   2.171   4.984  2.2007 -0.8339  0.4228
 9644TIP3   OH250346   1.712   2.781  15.909  0.6898  0.1088  0.3427
 9644TIP3    H150347   1.789   2.736  15.943  0.2522 -0.3375  0.7643
 9644TIP3    H250348   1.641   2.752  15.966 -0.0008 -0.3953 -0.7541
 9645TIP3   OH250349   0.519   5.674  14.370  0.0197  0.5124 -0.1087
 9645TIP3    H150350   0.430   5.660  14.403  0.0625 -1.6767 -0.7852
 9645TIP3    H250351   0.506   5.703  14.280 -0.0274 -0.7238 -0.5157
 9646TIP3   OH250352   6.168   6.696   3.883  0.0520 -0.3687 -0.1964
 9646TIP3    H150353   6.197   6.619   3.834  3.9474  1.8154 -1.7576
 9646TIP3    H250354   6.088   6.724   3.839  0.1560 -1.8736 -1.4279
 9647TIP3   OH250355   6.028   5.819  11.500 -0.0753  0.2250  0.4238
 9647TIP3    H150356   6.064   5.823  11.589 -0.4221 -2.0574  0.7319
 9647TIP3    H250357   6.100   5.783  11.447  0.0213  1.2692 -0.1831
 9648TIP3   OH250358   0.610   6.508  13.777 -0.3312 -0.0177 -0.1928
 9648TIP3    H150359   0.521   6.495  13.808 -0.5813  1.3799 -0.2537
 9648TIP3    H250360   0.637   6.592  13.815  1.1654 -0.6669  0.2736
 9649TIP3   OH250361   1.901   2.291   2.899  0.4306 -0.0649  0.2925
 9649TIP3    H150362   1.820   2.341   2.888  1.3150  1.3686  0.0526
 9649TIP3    H250363   1.879   2.202   2.871 -0.4010  0.8753 -2.2955
 9650TIP3   OH250364   3.280   2.471  17.113  0.1476  0.1824  0.0648
 9650TIP3    H150365   3.196   2.496  17.151 -0.4253 -1.2772 -0.1602
 9650TIP3    H250366   3.293   2.532  17.041  0.6398  2.1779  1.7311
 9651TIP3   OH250367   1.651   0.158   3.835  0.1251 -0.6338 -0.0214
 9651TIP3    H150368   1.608   0.080   3.867 -0.8946  0.1919  0.6958
 9651TIP3    H250369   1.580   0.218   3.812  0.8286  0.9213  1.5556
 9652TIP3   OH250370   3.157   1.518  16.728  0.4914  0.3250 -0.1151
 9652TIP3    H150371   3.122   1.469  16.653  0.0028  0.7198 -0.1499
 9652TIP3    H250372   3.122   1.606  16.718  1.8678  0.8700 -0.3888
 9653TIP3   OH250373   2.185   2.518   4.205  0.2006  0.2236 -0.5754
 9653TIP3    H150374   2.151   2.454   4.142  2.0280 -0.5733 -0.8153
 9653TIP3    H250375   2.279   2.521   4.188  0.5487  0.9796  1.2445
 9654TIP3   OH250376   6.765   0.880   5.113  0.2281 -0.5568  0.3458
 9654TIP3    H150377   6.829   0.833   5.165 -0.0667  0.9087  2.1205
 9654TIP3    H250378   6.795   0.971   5.113 -1.5317  0.0708  0.7767
 9655TIP3   OH250379   4.513   6.344  14.512  0.0182 -0.7674  0.2766
 9655TIP3    H150380   4.536   6.312  14.599 -0.6412  0.6893  1.0171
 9655TIP3    H250381   4.428   6.303  14.493 -0.3588 -0.2448  0.8023
 9656TIP3   OH250382   5.663   6.309  15.325 -0.2278  0.3302  0.0200
 9656TIP3    H150383   5.607   6.231  15.325  0.8483 -0.4571  0.0987
 9656TIP3    H250384   5.654   6.344  15.236 -0.9853  0.3200  0.0880
 9657TIP3   OH250385   0.854   6.001   4.903 -0.2463 -0.2299 -0.4411
 9657TIP3    H150386   0.926   6.022   4.963  0.6191 -1.1107 -1.1278
 9657TIP3    H250387   0.860   6.067   4.835  0.2857 -0.6193 -0.7854
 9658TIP3   OH250388   0.892   1.475   4.518  0.3104 -0.4922  0.5355
 9658TIP3    H150389   0.938   1.557   4.500 -0.4575 -0.5315 -2.0682
 9658TIP3    H250390   0.901   1.463   4.612  5.1937 -0.2866  0.3649
 9659TIP3   OH250391   3.570   4.922   1.189  1.0872  0.3835 -0.3660
 9659TIP3    H150392   3.615   5.000   1.155 -0.8084  2.7998  2.2137
 9659TIP3    H250393   3.478   4.937   1.169  0.4859 -0.3564  1.6125
 9660TIP3   OH250394   5.139   0.312  15.955  0.1334 -0.1998  0.5747
 9660TIP3    H150395   5.170   0.399  15.978 -0.2387  0.0500  0.1417
 9660TIP3    H250396   5.062   0.327  15.901 -0.3270 -0.8053  1.0506
 9661TIP3   OH250397   6.358   4.199   2.269  0.1641 -0.1148 -0.3178
 9661TIP3    H150398   6.419   4.239   2.332  0.3698 -0.3265 -0.3812
 9661TIP3    H250399   6.318   4.127   2.317 -0.5652  0.4614 -0.0490
 9662TIP3   OH250400   4.351   4.838  13.605  0.5595  0.3149 -0.6472
 9662TIP3    H150401   4.345   4.754  13.650 -0.0035  0.3181 -0.7115
 9662TIP3    H250402   4.346   4.817  13.512 -3.3670  0.6495 -0.6574
 9663TIP3   OH250403   2.122   2.842   6.193  0.0427  0.0269 -0.4545
 9663TIP3    H150404   2.043   2.890   6.167 -0.2954 -0.0250  0.4066
 9663TIP3    H250405   2.180   2.909   6.228  0.4766  0.0929 -1.2853
 9664TIP3   OH250406   1.877   5.393  15.475 -0.1174  0.7345 -0.7937
 9664TIP3    H150407   1.924   5.346  15.406 -0.8848 -0.7432 -0.3423
 9664TIP3    H250408   1.944   5.412  15.541  0.1965  0.2842 -0.9810
 9665TIP3   OH250409   3.014   0.157  15.366 -0.7178 -0.6379 -0.4581
 9665TIP3    H150410   2.960   0.111  15.430 -0.5622  1.2535  1.1158
 9665TIP3    H250411   3.103   0.151  15.400 -0.3005 -1.3391 -1.5945
 9666TIP3   OH250412   1.938   5.089   0.019 -0.6804  0.1291  0.5176
 9666TIP3    H150413   1.948   4.998  -0.008  1.2059 -0.0077  1.4878
 9666TIP3    H250414   1.851   5.114  -0.012 -1.2260 -1.9777  0.1870
 9667TIP3   OH250415   0.977   3.058   6.103 -1.0448 -0.4287 -0.5031
 9667TIP3    H150416   0.979   3.110   6.183 -1.4707  0.0921 -0.8234
 9667TIP3    H250417   0.995   2.969   6.131 -2.0774 -0.3991  0.2949
 9668TIP3   OH250418   5.744   5.977  15.460 -0.1294  0.7104  0.0488
 9668TIP3    H150419   5.801   5.916  15.507 -1.3756 -1.0352 -0.6159
 9668TIP3    H250420   5.751   6.059  15.510  2.6521  0.4870  0.1720
 9669TIP3   OH250421   5.600   5.991   4.083 -0.7682 -0.5668  0.7125
 9669TIP3    H150422   5.532   6.049   4.115  0.5230  0.9277  0.8905
 9669TIP3    H250423   5.557   5.937   4.017 -2.2973 -0.2850  1.4275
 9670TIP3   OH250424   3.519   5.338  13.505  0.4954  0.2568  0.2410
 9670TIP3    H150425   3.504   5.392  13.428 -0.8760 -1.2082 -0.5771
 9670TIP3    H250426   3.486   5.390  13.578 -1.9317  0.1498 -0.6639
 9671TIP3   OH250427   5.788   0.553   2.468  0.3497 -0.1669 -0.1142
 9671TIP3    H150428   5.770   0.466   2.434 -0.6344  0.2144 -0.6121
 9671TIP3    H250429   5.757   0.550   2.559  0.3435 -0.3403 -0.1215
 9672TIP3   OH250430   3.203   3.244   0.575 -0.1173 -0.3414 -1.0172
 9672TIP3    H150431   3.123   3.286   0.542 -0.3450  0.1780  0.1337
 9672TIP3    H250432   3.187   3.234   0.668  1.6977  1.0605 -0.4919
 9673TIP3   OH250433   4.438   6.051  15.963 -0.5706 -0.2007  0.1855
 9673TIP3    H150434   4.400   6.139  15.972 -1.5442 -0.6210  0.3628
 9673TIP3    H250435   4.496   6.042  16.038 -0.9601  0.0606  0.5236
 9674TIP3   OH250436   3.790   1.968  17.055  0.1123  0.1518  0.3960
 9674TIP3    H150437   3.871   1.981  17.006  0.7400  0.3272  1.4537
 9674TIP3    H250438   3.767   1.876  17.038  0.0161  0.3590 -0.6524
 9675TIP3   OH250439   1.884   2.264  15.883  0.3983  0.2740  0.4007
 9675TIP3    H150440   1.924   2.342  15.845  0.2274  0.3999  0.4818
 9675TIP3    H250441   1.954   2.223  15.934  0.3691  0.6045  0.7117
 9676TIP3   OH250442   4.938   0.584   5.124  0.2217 -0.9541 -0.2753
 9676TIP3    H150443   4.964   0.661   5.074  0.9895 -0.6231  0.5983
 9676TIP3    H250444   4.883   0.534   5.064  2.3017 -1.3450 -1.9729
 9677TIP3   OH250445   4.901   4.605  12.615 -0.3657 -0.1642 -0.1430
 9677TIP3    H150446   4.874   4.668  12.548  1.2337  1.6778  0.8267
 9677TIP3    H250447   4.997   4.612  12.616 -0.3405 -0.1645  2.2664
 9678TIP3   OH250448   3.478   4.463   3.633  0.4217  0.9168  0.5537
 9678TIP3    H150449   3.415   4.511   3.686 -0.6811 -0.7813  0.8474
 9678TIP3    H250450   3.485   4.377   3.676  1.7244  0.5207 -0.3888
 9679TIP3   OH250451   3.155   1.626  17.047 -0.0898  0.0682  0.5399
 9679TIP3    H150452   3.233   1.581  17.016 -1.4034 -0.8485 -1.6719
 9679TIP3    H250453   3.122   1.674  16.971 -1.6867  0.3909  1.3760
 9680TIP3   OH250454   6.049   3.023   4.709 -0.2620  0.4695  0.1174
 9680TIP3    H150455   6.077   3.043   4.620 -0.2935  0.7525  0.1678
 9680TIP3    H250456   5.960   2.989   4.699 -0.0164 -0.1521 -0.0158
 9681TIP3   OH250457   1.303   2.629  12.296  0.0132  0.1892 -0.3347
 9681TIP3    H150458   1.244   2.609  12.368  0.2799 -1.3590 -0.5110
 9681TIP3    H250459   1.290   2.723  12.279  0.6406  0.8449  2.3368
 9682TIP3   OH250460   4.518   4.599  13.831  0.6323  0.0575  0.3825
 9682TIP3    H150461   4.553   4.644  13.908 -3.0539  1.7134  1.3133
 9682TIP3    H250462   4.457   4.535  13.865  1.2050 -1.4054 -1.1723
 9683TIP3   OH250463   0.737   5.811  16.835  0.4002 -0.2767 -0.4227
 9683TIP3    H150464   0.701   5.888  16.878  1.7361  0.7891 -1.1103
 9683TIP3    H250465   0.775   5.758  16.905 -2.1563 -1.3087  0.2859
 9684TIP3   OH250466   2.887   6.752  10.697  0.3726 -0.6768 -0.2274
 9684TIP3    H150467   2.957   6.795  10.746  2.5470 -2.8613 -1.1944
 9684TIP3    H250468   2.886   6.662  10.731 -2.5831 -0.5764  0.2943
 9685TIP3   OH250469   3.845   6.113   0.491  0.2870 -0.3579 -0.3344
 9685TIP3    H150470   3.917   6.169   0.460 -0.1833 -0.4209 -1.5877
 9685TIP3    H250471   3.856   6.032   0.442 -0.6139 -0.3792 -0.5090
 9686TIP3   OH250472   2.434   4.926  15.517 -0.6283 -0.0761 -0.2244
 9686TIP3    H150473   2.406   4.879  15.596 -1.3826 -1.9612 -1.5536
 9686TIP3    H250474   2.353   4.952  15.474 -0.2225  0.6046 -0.6073
 9687TIP3   OH250475   5.105   6.696   1.670  0.4350 -0.0218  0.4466
 9687TIP3    H150476   5.094   6.732   1.582  0.5953 -0.9967  0.0151
 9687TIP3    H250477   5.064   6.761   1.728  1.0570  1.0218 -0.2573
 9688TIP3   OH250478   3.449   4.042  16.159  0.0413 -0.3711 -0.5837
 9688TIP3    H150479   3.370   4.064  16.109  0.0597 -0.3613 -0.6073
 9688TIP3    H250480   3.423   4.049  16.251  0.2202  0.3768 -0.5883
 9689TIP3   OH250481   4.559   4.827  11.092  0.4153 -0.8294  0.6735
 9689TIP3    H150482   4.560   4.801  11.185  0.3274 -1.2405  0.5618
 9689TIP3    H250483   4.627   4.894  11.085 -1.4668  1.3226  1.6261
 9690TIP3   OH250484   0.418   1.196   4.119 -0.0422  0.0694 -1.1186
 9690TIP3    H150485   0.377   1.212   4.034 -0.3923 -1.9824 -1.3739
 9690TIP3    H250486   0.512   1.208   4.103  0.3537 -3.8902 -2.8478
 9691TIP3   OH250487   2.139   1.986   5.203  0.2997  0.7585  0.1040
 9691TIP3    H150488   2.227   1.952   5.192  0.4177  0.0563  2.6379
 9691TIP3    H250489   2.150   2.081   5.211  0.5599  0.8940 -1.4746
 9692TIP3   OH250490   3.114   3.986  12.746  1.2073 -0.6715 -0.0053
 9692TIP3    H150491   3.019   3.983  12.736  0.9644 -1.8551  2.1797
 9692TIP3    H250492   3.141   3.894  12.743  2.1857 -0.4020  0.3024
 9693TIP3   OH250493   0.934   0.639  16.029  0.0351 -0.5891  0.2590
 9693TIP3    H150494   0.870   0.569  16.040 -0.5900 -0.1979 -0.8231
 9693TIP3    H250495   1.019   0.594  16.032 -0.2485 -1.1015  1.7475
 9694TIP3   OH250496   6.221   3.177  12.736  0.3525  0.8000  0.0339
 9694TIP3    H150497   6.272   3.117  12.681 -1.6272 -0.8550 -0.1137
 9694TIP3    H250498   6.166   3.225  12.675 -1.0072 -0.2029  0.4261
 9695TIP3   OH250499   0.873   4.651  11.737  0.1680  0.0581  0.2003
 9695TIP3    H150500   0.887   4.574  11.683 -2.8396 -0.6680  0.2520
 9695TIP3    H250501   0.825   4.712  11.679 -2.3005 -0.3711  1.6343
 9696TIP3   OH250502   1.761   5.270  13.717  0.2157 -0.1276  0.5646
 9696TIP3    H150503   1.682   5.250  13.668  1.0219 -0.0420 -0.8070
 9696TIP3    H250504   1.746   5.232  13.804 -1.2391 -0.2639  0.2751
 9697TIP3   OH250505   2.003   1.699  16.096  0.1756 -0.0607  0.0260
 9697TIP3    H150506   2.007   1.740  16.009  0.1992  1.6272  0.7793
 9697TIP3    H250507   2.087   1.656  16.107 -0.2753 -1.3383 -1.2522
 9698TIP3   OH250508   5.762   4.045  11.415  0.4443  0.1276  0.6505
 9698TIP3    H150509   5.706   3.995  11.356  0.7693  0.1451  0.3259
 9698TIP3    H250510   5.769   4.131  11.375 -0.3213  0.5279  1.3384
 9699TIP3   OH250511   1.184   5.134   5.961 -0.5098  0.1123  0.2158
 9699TIP3    H150512   1.176   5.080   5.882  1.2940 -0.2481  0.2350
 9699TIP3    H250513   1.139   5.085   6.029 -2.5125  0.6515 -0.6483
 9700TIP3   OH250514   6.142   0.580   1.453  0.2614  0.2591  0.4832
 9700TIP3    H150515   6.064   0.529   1.433 -0.0864  0.1621  1.9968
 9700TIP3    H250516   6.215   0.523   1.429 -0.1271 -0.0100 -0.0663
 9701TIP3   OH250517   5.821   2.410  15.534 -0.2091  0.3955  0.1016
 9701TIP3    H150518   5.773   2.333  15.566 -1.4041  0.0143 -2.3811
 9701TIP3    H250519   5.910   2.397  15.567 -0.2296 -2.3544 -0.6262
 9702TIP3   OH250520   6.569   6.124   2.386  0.3291  0.0898  0.2425
 9702TIP3    H150521   6.555   6.036   2.353  0.2869  0.3597 -0.4867
 9702TIP3    H250522   6.664   6.133   2.390  0.3367 -0.4866  1.7177
 9703TIP3   OH250523   2.462   4.026   1.870 -0.4176 -0.0450 -0.0151
 9703TIP3    H150524   2.420   4.093   1.817  1.3129 -0.4563 -2.0361
 9703TIP3    H250525   2.519   3.979   1.809  1.9025 -0.3818  2.2272
 9704TIP3   OH250526   3.815   6.761   5.943  0.3800  0.8089  0.7719
 9704TIP3    H150527   3.845   6.713   6.020  0.5594  0.8916  0.7537
 9704TIP3    H250528   3.894   6.780   5.893  0.1391 -0.3463 -0.0826
 9705TIP3   OH250529   2.377   2.298   4.694 -0.7456 -0.8416  0.1043
 9705TIP3    H150530   2.454   2.285   4.748 -0.9827 -0.4677  0.5355
 9705TIP3    H250531   2.404   2.272   4.606  0.8109  2.1226 -0.4239
 9706TIP3   OH250532   1.798   4.759  11.770 -0.0039  0.1239  0.2980
 9706TIP3    H150533   1.785   4.700  11.844  1.9573  0.2042  0.7538
 9706TIP3    H250534   1.755   4.840  11.797 -1.4852 -0.6145  0.2607
 9707TIP3   OH250535   5.541   1.229  16.616  0.8753 -0.4999 -0.1830
 9707TIP3    H150536   5.533   1.308  16.564  1.4653 -0.5184 -0.3105
 9707TIP3    H250537   5.477   1.240  16.687 -0.8463 -1.0332 -1.5677
 9708TIP3   OH250538   6.593   4.128   2.738 -0.0203 -0.1283  0.4229
 9708TIP3    H150539   6.624   4.090   2.819  1.1891 -1.1098 -0.4647
 9708TIP3    H250540   6.506   4.089   2.725  0.3041 -0.9249  0.6191
 9709TIP3   OH250541   2.259   1.459  15.774 -0.2767 -0.2517 -0.2062
 9709TIP3    H150542   2.274   1.550  15.798  0.7300 -0.2434 -0.7838
 9709TIP3    H250543   2.334   1.412  15.810  0.0422 -0.5911 -1.2584
 9710TIP3   OH250544   2.623   2.590  17.117  1.0695  0.0862 -0.1415
 9710TIP3    H150545   2.703   2.563  17.072 -0.2923 -1.5506 -1.7359
 9710TIP3    H250546   2.638   2.565  17.209  2.2976 -0.4220 -0.4609
 9711TIP3   OH250547   2.216   1.236   3.410  0.2800  0.3224  0.2882
 9711TIP3    H150548   2.168   1.266   3.333  2.2416  0.4977 -0.9388
 9711TIP3    H250549   2.254   1.316   3.447  0.5295  0.0713  0.5791
 9712TIP3   OH250550   2.547   6.065   2.544  0.7145 -0.1695 -0.0392
 9712TIP3    H150551   2.578   6.067   2.453 -1.5480  0.4593 -0.8772
 9712TIP3    H250552   2.535   6.158   2.566 -1.4886 -0.3619 -0.1812
 9713TIP3   OH250553   6.305   4.836  17.044  0.9090  0.1994 -0.6574
 9713TIP3    H150554   6.213   4.811  17.048  0.7368  0.7822 -0.8918
 9713TIP3    H250555   6.308   4.907  16.980  0.9174  2.8570  2.1140
 9714TIP3   OH250556   1.607   4.281  16.302 -0.3481 -0.0164  0.3896
 9714TIP3    H150557   1.602   4.376  16.309 -0.6343 -0.0380  0.5048
 9714TIP3    H250558   1.653   4.253  16.380  0.3350  0.0766  0.0278
 9715TIP3   OH250559   4.235   4.923   6.857  0.6826 -0.1823 -0.5904
 9715TIP3    H150560   4.195   4.890   6.776  0.0788 -0.6769 -0.1040
 9715TIP3    H250561   4.325   4.891   6.854  0.4279 -0.9106 -0.6739
 9716TIP3   OH250562   1.365   5.069   4.354  0.2140  0.3476 -0.5947
 9716TIP3    H150563   1.428   5.068   4.426 -0.7528 -0.6630  0.2741
 9716TIP3    H250564   1.280   5.051   4.396 -0.0975 -2.5785 -2.2085
 9717TIP3   OH250565   6.771   4.629   3.768 -0.0018  0.2248 -0.2351
 9717TIP3    H150566   6.849   4.682   3.748  0.9256 -0.2913  1.7995
 9717TIP3    H250567   6.761   4.635   3.863 -1.9671 -0.4285 -0.3461
 9718TIP3   OH250568   3.762   1.679  14.550 -0.1344  0.3611  0.4271
 9718TIP3    H150569   3.821   1.754  14.539  1.3718 -0.9320 -0.7006
 9718TIP3    H250570   3.790   1.639  14.632  0.8412 -0.4600 -0.2867
 9719TIP3   OH250571   3.890   5.462  16.621  0.6537  0.3405  0.5070
 9719TIP3    H150572   3.816   5.428  16.571 -0.4777  0.0926  2.2715
 9719TIP3    H250573   3.928   5.529  16.565 -0.9240  0.4935 -0.4373
 9720TIP3   OH250574   3.541   3.088   0.914  0.0870  0.4329  0.2153
 9720TIP3    H150575   3.533   3.127   0.827  0.2244 -0.2030 -0.0895
 9720TIP3    H250576   3.482   3.013   0.913  0.1157  0.3999  0.6570
 9721TIP3   OH250577   6.057   3.244  13.792 -0.2259 -0.2271 -0.0368
 9721TIP3    H150578   6.110   3.324  13.792  0.7176 -0.7714 -2.4209
 9721TIP3    H250579   5.982   3.265  13.848 -0.1344  2.4116 -0.7586
 9722TIP3   OH250580   1.158   4.975   3.392  0.1261  0.2683 -0.3825
 9722TIP3    H150581   1.131   5.050   3.338 -1.5192  0.2412  0.3197
 9722TIP3    H250582   1.199   5.014   3.468 -1.8003  0.5831  0.5606
 9723TIP3   OH250583   5.348   3.437  17.252 -0.4972 -0.6166 -0.1959
 9723TIP3    H150584   5.416   3.369  17.259  0.1010  0.1363  3.0752
 9723TIP3    H250585   5.341   3.472  17.341 -0.5456  3.8334 -1.7143
 9724TIP3   OH250586   1.545   0.911  16.795 -0.2073  0.2209 -0.4769
 9724TIP3    H150587   1.518   0.986  16.849  0.7037  0.3392 -0.1771
 9724TIP3    H250588   1.464   0.884  16.751 -0.6639  1.0330 -0.1697
 9725TIP3   OH250589   0.209   3.541   1.200  0.0075 -0.1703  0.3599
 9725TIP3    H150590   0.158   3.606   1.152  0.5582  1.4001  1.8171
 9725TIP3    H250591   0.211   3.465   1.142 -2.3363  0.3860 -0.5488
 9726TIP3   OH250592   4.715   5.270   3.282  0.0831 -0.6274 -0.0997
 9726TIP3    H150593   4.670   5.223   3.352  0.4924  1.3286  1.5657
 9726TIP3    H250594   4.787   5.315   3.325  0.6603  0.2523 -1.8759
 9727TIP3   OH250595   1.662   5.906   3.161 -0.6822  0.1771 -0.2697
 9727TIP3    H150596   1.638   5.998   3.148  1.6636  0.7038 -1.5398
 9727TIP3    H250597   1.697   5.902   3.250  2.6942  1.4946 -1.3753
 9728TIP3   OH250598   1.581   4.317  13.817 -0.2829  0.1329  0.1090
 9728TIP3    H150599   1.531   4.286  13.893 -0.0613  2.2780  1.2178
 9728TIP3    H250600   1.590   4.411  13.831  0.5981  0.4467 -2.1318
 9729TIP3   OH250601   5.666   5.126   5.099  0.2520  0.1586 -0.1315
 9729TIP3    H150602   5.633   5.057   5.157 -0.5133  1.1752  0.6802
 9729TIP3    H250603   5.761   5.114   5.100  0.0478 -2.3478 -1.9268
 9730TIP3   OH250604   2.310   0.540  16.416 -0.1326  0.3078 -0.0896
 9730TIP3    H150605   2.396   0.571  16.389  0.0390 -0.2228 -0.1707
 9730TIP3    H250606   2.266   0.516  16.335 -0.0001 -0.3178  0.0174
 9731TIP3   OH250607   4.932   2.885  12.883 -0.1820  0.4837  0.1532
 9731TIP3    H150608   4.842   2.854  12.895  0.7428 -1.9261  1.4287
 9731TIP3    H250609   4.947   2.945  12.956 -0.1147 -0.7499  1.1825
 9732TIP3   OH250610   6.407   4.482  10.371  0.0004 -0.2916 -0.8409
 9732TIP3    H150611   6.379   4.391  10.371  0.1995 -0.3603  0.1946
 9732TIP3    H250612   6.502   4.479  10.382 -0.2463  0.0537  2.3241
 9733TIP3   OH250613   2.920   3.569   3.720  0.2498 -0.4476  0.2012
 9733TIP3    H150614   2.851   3.614   3.768  0.2614  1.1823 -1.1901
 9733TIP3    H250615   2.877   3.537   3.640  0.8711 -0.3181 -0.1938
 9734TIP3   OH250616   5.549   4.873  14.090  0.2744 -0.1607  0.2078
 9734TIP3    H150617   5.543   4.874  13.994  1.4986 -1.0631  0.0905
 9734TIP3    H250618   5.603   4.949  14.111 -1.8617  1.4039  0.4058
 9735TIP3   OH250619   6.744   4.931  11.915  0.0116 -1.0755  0.9701
 9735TIP3    H150620   6.769   5.023  11.922  1.0378 -1.2395 -0.1180
 9735TIP3    H250621   6.650   4.930  11.931 -0.2265  0.3262 -0.1233
 9736TIP3   OH250622   5.648   6.540  12.543  0.2060  0.1944 -0.3273
 9736TIP3    H150623   5.560   6.532  12.580  0.2582 -0.1094 -0.2629
 9736TIP3    H250624   5.707   6.529  12.618  0.2878  2.8610  0.0785
 9737TIP3   OH250625   5.351   2.781   0.241 -1.0931  0.1392  0.5448
 9737TIP3    H150626   5.291   2.715   0.207 -0.4295 -0.9051  1.3356
 9737TIP3    H250627   5.435   2.761   0.200 -1.3469  1.9120 -0.9657
 9738TIP3   OH250628   6.593   0.290   3.700 -0.0389 -0.2402  0.6430
 9738TIP3    H150629   6.615   0.378   3.732 -0.9148 -0.4190  1.7952
 9738TIP3    H250630   6.641   0.282   3.617  0.4867  1.1112  0.7907
 9739TIP3   OH250631   6.204   6.754   3.464 -0.1928  0.4108  0.2500
 9739TIP3    H150632   6.190   6.662   3.440 -1.6522  0.9207 -1.0436
 9739TIP3    H250633   6.286   6.754   3.513 -0.3109 -1.6193  0.5488
 9740TIP3   OH250634   2.325   1.773   1.074  0.4642 -0.8445 -0.2159
 9740TIP3    H150635   2.254   1.827   1.107 -0.5479 -1.3221 -1.5120
 9740TIP3    H250636   2.310   1.687   1.115 -1.1983 -1.6331 -2.2943
 9741TIP3   OH250637   3.824   3.994   3.613 -0.0611 -0.3734  0.3881
 9741TIP3    H150638   3.844   3.950   3.695  0.0401 -1.0557  0.0043
 9741TIP3    H250639   3.796   3.924   3.554  1.1594 -0.0954 -0.5736
 9742TIP3   OH250640   2.522   6.731  15.441  0.2471  0.5233  1.0473
 9742TIP3    H150641   2.451   6.674  15.412 -0.3622  1.6058  0.3437
 9742TIP3    H250642   2.592   6.716  15.377  0.3881 -0.0227  1.3293
 9743TIP3   OH250643   2.947   2.460   5.741 -0.3641 -0.1396 -0.1585
 9743TIP3    H150644   3.022   2.419   5.697  0.0114  1.1681 -0.7700
 9743TIP3    H250645   2.985   2.497   5.821 -0.6820 -0.8462  0.3331
 9744TIP3   OH250646   2.926   2.130   3.017 -0.1426 -0.0168  0.0348
 9744TIP3    H150647   2.950   2.184   2.942  0.9220  0.7387  0.8896
 9744TIP3    H250648   2.995   2.063   3.021 -1.3534 -1.3808 -0.9118
 9745TIP3   OH250649   4.165   0.053   4.263 -0.1605 -0.2565 -0.4854
 9745TIP3    H150650   4.246   0.063   4.314 -0.6834 -0.9163  0.5054
 9745TIP3    H250651   4.185   0.093   4.178  0.7061  0.9601  0.2608
 9746TIP3   OH250652   0.463   3.872   5.628 -0.2969  0.3813 -0.0745
 9746TIP3    H150653   0.532   3.862   5.694 -0.8134  0.8580  0.5523
 9746TIP3    H250654   0.382   3.852   5.675 -0.4866 -1.6828 -1.1618
 9747TIP3   OH250655   3.814   0.141  15.764  0.3781 -0.2954  0.0119
 9747TIP3    H150656   3.758   0.088  15.707 -0.1628  1.4958 -1.2091
 9747TIP3    H250657   3.902   0.129  15.729  0.3234 -0.7480  0.0311
 9748TIP3   OH250658   3.759   4.310  13.853 -0.0202  0.1386  0.1761
 9748TIP3    H150659   3.796   4.241  13.799 -0.3915 -0.3814  0.5799
 9748TIP3    H250660   3.724   4.374  13.791 -0.8816 -0.6860 -0.1913
 9749TIP3   OH250661   1.911   5.555  12.310  0.2008 -0.3010  0.1448
 9749TIP3    H150662   1.926   5.645  12.281  0.6622 -0.7536 -1.0899
 9749TIP3    H250663   1.998   5.516  12.315 -0.0889 -1.1149 -0.8521
 9750TIP3   OH250664   1.971   1.718   6.128 -0.2458 -0.5010 -0.3187
 9750TIP3    H150665   1.927   1.653   6.074  0.1610  1.4699 -3.2476
 9750TIP3    H250666   1.904   1.783   6.147  0.2221  0.0610 -0.5756
 9751TIP3   OH250667   6.633   2.865   3.746  0.4533  0.4819  0.0071
 9751TIP3    H150668   6.585   2.852   3.827  0.9546 -0.2812  0.1870
 9751TIP3    H250669   6.702   2.928   3.769  0.1918  0.7677  0.0088
 9752TIP3   OH250670   5.285   0.146  12.300 -0.7256  0.3897  0.1959
 9752TIP3    H150671   5.313   0.105  12.381  2.2514  2.4389  0.3505
 9752TIP3    H250672   5.326   0.232  12.300 -1.6835  1.0017 -2.8959
 9753TIP3   OH250673   2.634   6.390  14.024 -0.4979 -0.4665  0.5145
 9753TIP3    H150674   2.618   6.474  14.067 -0.3262  1.4489 -2.8296
 9753TIP3    H250675   2.729   6.377  14.030 -0.5594 -0.6093  1.2877
 9754TIP3   OH250676   3.602   2.432   4.973 -0.1985 -0.3037 -0.3117
 9754TIP3    H150677   3.543   2.370   5.015  1.5685 -2.9875 -1.4868
 9754TIP3    H250678   3.566   2.443   4.884 -0.3763  0.2400 -0.1810
 9755TIP3   OH250679   2.176   5.721   4.442  0.1378  0.0493  0.1650
 9755TIP3    H150680   2.133   5.780   4.380  0.2900 -1.3300 -1.3270
 9755TIP3    H250681   2.119   5.722   4.519 -0.5058  1.1870 -0.2927
 9756TIP3   OH250682   1.426   4.333   4.384 -0.2912  0.0997  0.2074
 9756TIP3    H150683   1.412   4.426   4.365 -0.3897 -0.4553 -2.9449
 9756TIP3    H250684   1.339   4.297   4.398 -0.5947 -0.0601 -1.8206
 9757TIP3   OH250685   0.841   1.205  12.318 -0.0107 -0.0445  0.1471
 9757TIP3    H150686   0.851   1.111  12.299 -1.4752  0.2411 -2.4028
 9757TIP3    H250687   0.746   1.220  12.317  0.2239  1.5985 -0.2079
 9758TIP3   OH250688   2.338   1.203   0.768  0.3418 -0.8354  0.1756
 9758TIP3    H150689   2.337   1.118   0.811  0.3036 -2.2116 -2.3955
 9758TIP3    H250690   2.424   1.239   0.788  0.7273 -1.8930  0.4913
 9759TIP3   OH250691   4.448   6.061   4.216  0.5161  0.7810  0.0128
 9759TIP3    H150692   4.467   6.050   4.123 -0.5380  0.6946 -0.2047
 9759TIP3    H250693   4.419   6.151   4.224  2.2878  1.3357  0.5783
 9760TIP3   OH250694   4.308   0.584   2.428 -0.2224  0.4877 -0.2436
 9760TIP3    H150695   4.344   0.658   2.477  0.1708  0.2892 -0.2281
 9760TIP3    H250696   4.381   0.522   2.421  0.6823  1.7039 -3.5604
 9761TIP3   OH250697   6.414   4.362   1.953 -0.1511  0.1395 -0.2234
 9761TIP3    H150698   6.496   4.340   1.997 -0.9006 -0.2714  1.0153
 9761TIP3    H250699   6.353   4.379   2.025 -1.3371 -0.2413 -1.1285
 9762TIP3   OH250700   5.468   5.162   5.645  0.1877  0.3538  0.3158
 9762TIP3    H150701   5.442   5.116   5.725  0.5711  0.0660  0.2798
 9762TIP3    H250702   5.387   5.201   5.612 -0.1891 -0.4965  0.2203
 9763TIP3   OH250703   4.989   6.477   4.390 -0.1781  0.0027 -0.7917
 9763TIP3    H150704   5.025   6.514   4.470 -2.0754 -0.4677  0.3482
 9763TIP3    H250705   5.019   6.386   4.389  1.4614  0.5230 -1.6790
 9764TIP3   OH250706   2.258   0.463   5.722 -0.3018  0.1163  0.1126
 9764TIP3    H150707   2.191   0.499   5.781  0.6395  0.9814  0.6845
 9764TIP3    H250708   2.313   0.409   5.779  0.3304  0.5680 -0.0571
 9765TIP3   OH250709   2.819   2.052  15.051  0.1537 -0.2282 -0.0968
 9765TIP3    H150710   2.813   2.100  15.134  1.1715  0.5194 -0.4283
 9765TIP3    H250711   2.728   2.036  15.026 -0.1778 -0.9704  1.4331
 9766TIP3   OH250712   2.615   3.569   0.808  0.0045  0.1060 -0.4390
 9766TIP3    H150713   2.596   3.646   0.755  1.0392  1.2461  0.7969
 9766TIP3    H250714   2.710   3.570   0.819  0.2890 -2.3827 -1.8967
 9767TIP3   OH250715   5.844   5.576   4.775  0.4572 -0.2621 -0.8919
 9767TIP3    H150716   5.756   5.552   4.745 -0.0005 -1.0338  0.9268
 9767TIP3    H250717   5.865   5.656   4.727 -2.9276  2.2905  1.4415
 9768TIP3   OH250718   1.472   2.319  12.498 -0.3181 -0.6323  0.4217
 9768TIP3    H150719   1.433   2.405  12.518  0.0917 -0.6377  1.2995
 9768TIP3    H250720   1.522   2.297  12.577  1.2837 -0.7184 -0.5858
 9769TIP3   OH250721   2.737   3.282   1.213 -0.0161  0.3680  0.0182
 9769TIP3    H150722   2.794   3.226   1.266  0.8760 -0.2753 -1.5524
 9769TIP3    H250723   2.657   3.291   1.265 -0.4709 -2.9296  0.0586
 9770TIP3   OH250724   2.073   0.192   0.056  0.0640  0.3279  0.4196
 9770TIP3    H150725   2.038   0.195   0.145  0.8527 -2.6929  0.9336
 9770TIP3    H250726   2.012   0.246   0.005 -1.7714  0.2128  2.3488
 9771TIP3   OH250727   4.059   4.277   4.998 -0.2242 -0.2591  0.2483
 9771TIP3    H150728   4.087   4.193   4.962 -2.1538 -0.6392 -0.4915
 9771TIP3    H250729   4.061   4.264   5.093  1.6807 -0.3402  0.2464
 9772TIP3   OH250730   4.442   3.014   2.030 -0.1233 -0.3601 -0.0485
 9772TIP3    H150731   4.534   2.986   2.031  0.0433  0.1893  0.7339
 9772TIP3    H250732   4.401   2.964   2.100  0.5921  2.5849  2.6750
 9773TIP3   OH250733   5.065   0.117  14.893 -0.0435 -0.1732  0.6507
 9773TIP3    H150734   5.110   0.123  14.809  0.1561  0.1854  0.7787
 9773TIP3    H250735   4.976   0.145  14.874 -0.2438 -0.9877  0.3745
 9774TIP3   OH250736   2.174   5.321  13.080  0.7965  0.1754  0.1893
 9774TIP3    H150737   2.265   5.341  13.058  0.3903  0.6809 -1.1150
 9774TIP3    H250738   2.151   5.384  13.148  1.7285 -0.6518  1.3092
 9775TIP3   OH250739   6.034   0.623   3.885  0.2478  0.1072  0.2290
 9775TIP3    H150740   5.958   0.610   3.827  0.3703  1.5911 -0.3136
 9775TIP3    H250741   6.056   0.535   3.915 -0.9869 -0.4892 -0.5010
 9776TIP3   OH250742   4.448   5.051   4.626 -0.0515  0.2011 -0.4965
 9776TIP3    H150743   4.424   4.959   4.618 -0.3755  0.2811 -0.4745
 9776TIP3    H250744   4.365   5.098   4.621  0.1472  0.5175 -0.8658
 9777TIP3   OH250745   4.967   4.787   5.484  0.7579  0.4330 -0.4280
 9777TIP3    H150746   5.017   4.711   5.516 -1.7860 -0.3045  2.2305
 9777TIP3    H250747   4.885   4.750   5.452 -0.2636  1.9658  0.3002
 9778TIP3   OH250748   6.461   5.183  13.376  0.5800  0.2128 -0.1272
 9778TIP3    H150749   6.549   5.211  13.402  0.7885  0.0746 -0.6808
 9778TIP3    H250750   6.418   5.264  13.347  1.3878 -0.0627 -2.3242
 9779TIP3   OH250751   3.988   4.963   6.049 -0.6239  0.7049  0.2639
 9779TIP3    H150752   3.963   4.895   6.112  1.0698  1.3282  1.7072
 9779TIP3    H250753   4.033   5.029   6.102  2.7065  0.3273 -1.8041
 9780TIP3   OH250754   0.400   0.026  17.082 -0.1156 -0.3972  0.4681
 9780TIP3    H150755   0.352   0.009  17.163 -1.0257 -1.3442 -0.2337
 9780TIP3    H250756   0.337   0.006  17.012  0.7650  0.0225 -0.4729
 9781TIP3   OH250757   3.313   5.834  16.884 -0.1331 -0.3022  0.2585
 9781TIP3    H150758   3.258   5.787  16.821 -1.5217  0.8980  0.5214
 9781TIP3    H250759   3.400   5.794  16.875  0.1046  0.6960 -3.3939
 9782TIP3   OH250760   3.447   2.907  12.816  0.3038  0.5935  0.1144
 9782TIP3    H150761   3.374   2.900  12.877  1.2078  1.5741  1.3603
 9782TIP3    H250762   3.521   2.865  12.861  0.7034  0.2631 -0.8128
 9783TIP3   OH250763   2.188   1.089   1.579 -0.0425  0.5075 -0.0046
 9783TIP3    H150764   2.250   1.017   1.590  0.3176  0.3902 -2.3043
 9783TIP3    H250765   2.239   1.167   1.599 -0.0998  0.2215  1.3286
 9784TIP3   OH250766   6.435   2.403  17.050 -0.6529  0.0718  0.3603
 9784TIP3    H150767   6.421   2.442  16.963  0.1239  2.3546  1.1907
 9784TIP3    H250768   6.521   2.361  17.044 -0.4098  0.5951  0.1391
 9785TIP3   OH250769   1.828   2.857   1.221 -0.1443 -0.3937  0.7231
 9785TIP3    H150770   1.832   2.765   1.246 -1.5786 -0.7097 -0.0754
 9785TIP3    H250771   1.897   2.868   1.156 -2.2101 -1.8751 -1.9221
 9786TIP3   OH250772   1.103   4.401   0.278 -0.0429  0.0180 -0.5494
 9786TIP3    H150773   1.101   4.386   0.372  0.2908  0.7603 -0.4173
 9786TIP3    H250774   1.040   4.339   0.242 -0.6530  0.1798  0.2265
 9787TIP3   OH250775   4.681   2.137   5.105  0.4818 -0.6055 -0.1688
 9787TIP3    H150776   4.614   2.185   5.151  0.2785 -0.6631 -0.4026
 9787TIP3    H250777   4.702   2.063   5.163  0.1899 -0.7084 -0.1946
 9788TIP3   OH250778   4.493   0.227  17.110 -0.3389  0.1511 -0.2871
 9788TIP3    H150779   4.540   0.152  17.146  0.4730  1.2515  1.0424
 9788TIP3    H250780   4.539   0.247  17.029 -0.3262 -0.5525 -0.4563
 9789TIP3   OH250781   0.878   2.643   0.725  0.1641 -0.1586 -0.0251
 9789TIP3    H150782   0.909   2.590   0.651 -1.2137  3.1056 -3.2432
 9789TIP3    H250783   0.785   2.621   0.732  0.1881 -0.1166  0.4296
 9790TIP3   OH250784   5.117   0.450   2.503 -0.4377 -0.0704  0.0096
 9790TIP3    H150785   5.124   0.499   2.421  0.7097  0.2876  0.2974
 9790TIP3    H250786   5.123   0.359   2.477  0.0761  0.0487 -0.3005
 9791TIP3   OH250787   6.388   6.401   5.836  0.2983 -0.5522 -0.8741
 9791TIP3    H150788   6.297   6.387   5.810  0.5270  2.4993 -4.0737
 9791TIP3    H250789   6.440   6.351   5.772  0.9483 -1.6390  0.4453
 9792TIP3   OH250790   4.435   5.532  11.970 -0.2056 -0.3344 -0.1518
 9792TIP3    H150791   4.440   5.514  12.064  1.6661  1.2161  0.1177
 9792TIP3    H250792   4.486   5.462  11.929  2.2762  1.0577  0.3883
 9793TIP3   OH250793   6.371   2.100   2.032  0.8224  0.3954  0.0048
 9793TIP3    H150794   6.428   2.113   2.108 -1.3230  2.0447  1.4252
 9793TIP3    H250795   6.413   2.151   1.962  1.4917  0.9260  0.7751
 9794TIP3   OH250796   1.661   5.336   1.393 -0.8436  0.3871  0.4411
 9794TIP3    H150797   1.660   5.400   1.464  0.8982  1.1572 -0.1564
 9794TIP3    H250798   1.732   5.276   1.415 -0.6007  0.3536 -0.3840
 9795TIP3   OH250799   2.862   5.607  14.837 -0.2356 -0.1056 -0.5995
 9795TIP3    H150800   2.913   5.648  14.907  1.1705  0.3223 -1.8310
 9795TIP3    H250801   2.810   5.679  14.800 -2.1913 -0.6336  0.9707
 9796TIP3   OH250802   1.882   5.210  14.584  0.3655  0.0868  0.3834
 9796TIP3    H150803   1.869   5.225  14.490 -1.7204  0.4917  0.6876
 9796TIP3    H250804   1.977   5.203  14.594  0.6874  0.8041 -1.6328
 9797TIP3   OH250805   2.120   1.046  15.045 -0.0148 -0.0736  0.1323
 9797TIP3    H150806   2.109   0.958  15.009 -0.4103 -0.4198  1.0634
 9797TIP3    H250807   2.155   1.098  14.973  0.6042 -1.0897 -0.3180
 9798TIP3   OH250808   3.491   0.085  16.512  0.0817 -0.0332 -0.0757
 9798TIP3    H150809   3.567   0.063  16.566  0.3659  2.2586  0.5883
 9798TIP3    H250810   3.528   0.134  16.438 -0.7371  1.8938  0.7169
 9799TIP3   OH250811   4.918   0.743   3.760  0.1287 -0.1995  0.2292
 9799TIP3    H150812   4.911   0.674   3.695 -1.3214 -0.1032  0.2583
 9799TIP3    H250813   4.939   0.697   3.842  1.1645 -0.3903 -0.1242
 9800TIP3   OH250814   3.667   3.989   0.871 -0.7488  0.7954  0.2548
 9800TIP3    H150815   3.653   4.056   0.937 -0.1660  0.4298  0.7595
 9800TIP3    H250816   3.665   4.037   0.788  0.4309  1.5801  0.6474
 9801TIP3   OH250817   1.670   5.663   0.161 -0.2374 -0.2788  0.1788
 9801TIP3    H150818   1.660   5.757   0.149 -1.4732 -0.3172  0.7112
 9801TIP3    H250819   1.633   5.625   0.081 -1.9116 -0.3444  0.9348
 9802TIP3   OH250820   5.920   4.535   6.368  0.4210 -0.3214 -0.5415
 9802TIP3    H150821   5.920   4.443   6.395  1.1645 -0.0133  0.6169
 9802TIP3    H250822   5.831   4.552   6.338 -0.0854 -1.0783  0.4672
 9803TIP3   OH250823   1.708   6.536   5.789 -0.0651 -0.0286  0.4035
 9803TIP3    H150824   1.657   6.556   5.867 -0.1410  0.5561  0.2091
 9803TIP3    H250825   1.659   6.576   5.717  0.3316 -0.0181  0.1323
 9804TIP3   OH250826   0.296   3.797   5.861  0.0677  0.2389  0.1691
 9804TIP3    H150827   0.238   3.744   5.806  1.0185  0.4315 -1.0640
 9804TIP3    H250828   0.247   3.809   5.943 -0.7715 -1.3041 -0.0639
 9805TIP3   OH250829   1.112   5.871  13.642 -0.5832  0.2994  0.5347
 9805TIP3    H150830   1.170   5.853  13.716 -2.4018  0.8816  2.1611
 9805TIP3    H250831   1.027   5.889  13.681 -1.3697  1.7145 -1.6425
 9806TIP3   OH250832   5.145   0.862   5.557  0.7813  0.1396 -0.2992
 9806TIP3    H150833   5.237   0.875   5.535  1.2512 -0.9196  0.8887
 9806TIP3    H250834   5.101   0.854   5.472  1.6316  1.4550 -0.9020
 9807TIP3   OH250835   3.247   1.761   5.171  0.8808 -0.2732  0.5837
 9807TIP3    H150836   3.167   1.781   5.220  0.5792  0.1772 -0.0710
 9807TIP3    H250837   3.228   1.679   5.125  1.5047 -1.2006  1.9409
 9808TIP3   OH250838   3.364   0.461  13.247 -0.1296  0.3225 -0.6077
 9808TIP3    H150839   3.374   0.387  13.187  1.2505  1.0541 -1.3258
 9808TIP3    H250840   3.394   0.426  13.332  0.4648  0.0293 -0.9278
 9809TIP3   OH250841   5.854   0.379  14.637  0.5391  0.1064  0.0334
 9809TIP3    H150842   5.761   0.373  14.662  0.4759 -0.4073 -0.3143
 9809TIP3    H250843   5.892   0.437  14.703 -0.2866  1.3756 -0.5667
 9810TIP3   OH250844   4.199   0.353   2.724  0.2476  0.0204  0.6049
 9810TIP3    H150845   4.234   0.428   2.772  0.7432 -0.0477  0.3573
 9810TIP3    H250846   4.217   0.278   2.781 -2.3426  0.2968  1.9811
 9811TIP3   OH250847   4.237   3.939  15.301  0.1518  0.2633 -0.5413
 9811TIP3    H150848   4.187   3.858  15.303  0.9173 -0.2149  1.5168
 9811TIP3    H250849   4.249   3.957  15.208 -1.7455 -0.8773 -1.0609
 9812TIP3   OH250850   6.204   6.099  16.217 -0.3930 -0.3461  0.4117
 9812TIP3    H150851   6.116   6.063  16.207 -0.7033  0.6475 -0.6582
 9812TIP3    H250852   6.228   6.129  16.129  1.9178 -2.5531  0.1676
 9813TIP3   OH250853   4.832   2.418   1.794 -0.4225 -0.5035 -0.3274
 9813TIP3    H150854   4.848   2.471   1.716  0.1335 -1.1844 -0.6917
 9813TIP3    H250855   4.741   2.389   1.786 -1.2639  1.6137  0.6522
 9814TIP3   OH250856   1.022   2.495   5.575  1.2006 -0.4202  0.0762
 9814TIP3    H150857   1.020   2.404   5.546  1.3125  0.2901 -2.3868
 9814TIP3    H250858   0.931   2.524   5.570  1.1283 -0.4321  1.0869
 9815TIP3   OH250859   2.040   2.815   1.047  0.4071 -0.2231 -0.5140
 9815TIP3    H150860   2.119   2.819   0.993 -0.1949 -0.6440 -1.4516
 9815TIP3    H250861   1.968   2.817   0.984 -0.3426  0.3349  0.3338
 9816TIP3   OH250862   1.682   4.668   3.163  0.0193 -0.1637  0.2914
 9816TIP3    H150863   1.695   4.595   3.223  0.1068  0.7747  1.4430
 9816TIP3    H250864   1.587   4.673   3.152 -0.0006 -0.3104  0.3894
 9817TIP3   OH250865   0.251   4.406  11.350  0.0763 -0.3231 -0.2336
 9817TIP3    H150866   0.189   4.418  11.278 -0.2435 -2.1249 -0.3223
 9817TIP3    H250867   0.306   4.484  11.348 -1.1433  0.5523 -1.2045
 9818TIP3   OH250868   0.575   5.489  16.958 -0.1430  0.2136 -0.2483
 9818TIP3    H150869   0.621   5.434  17.021 -1.5896 -0.2325  0.4754
 9818TIP3    H250870   0.541   5.428  16.893 -1.8566  0.1866  0.6214
 9819TIP3   OH250871   2.419   3.499  15.957  0.5010  0.2705 -0.6954
 9819TIP3    H150872   2.462   3.414  15.948  1.4344  0.5190  0.9686
 9819TIP3    H250873   2.473   3.547  16.020 -2.2310  0.5356  1.6685
 9820TIP3   OH250874   1.970   2.612   1.619  0.0005 -0.4122  0.5611
 9820TIP3    H150875   1.942   2.535   1.668  1.2063 -2.6290 -1.9556
 9820TIP3    H250876   2.065   2.614   1.631  0.3210 -0.9588 -1.3971
 9821TIP3   OH250877   5.130   0.046  11.361 -0.0582 -0.1746 -0.2395
 9821TIP3    H150878   5.174   0.023  11.279  0.1717  0.5463 -0.3293
 9821TIP3    H250879   5.082   0.127  11.340 -1.4438 -0.9425 -0.1583
 9822TIP3   OH250880   1.693   3.040  16.621 -0.3086  0.2332  0.6830
 9822TIP3    H150881   1.773   3.078  16.586  0.3838 -2.6316 -1.2100
 9822TIP3    H250882   1.623   3.099  16.592  0.7351  0.4659 -1.5601
 9823TIP3   OH250883   2.081   0.529   5.918  0.6951  0.4965  0.4840
 9823TIP3    H150884   1.989   0.546   5.939  0.5740 -1.0887  1.3937
 9823TIP3    H250885   2.129   0.554   5.996  0.7773 -0.7071  0.8483
 9824TIP3   OH250886   2.760   4.869   4.316  0.7466  0.0062  0.6503
 9824TIP3    H150887   2.792   4.948   4.360  0.9935  0.1733  0.1710
 9824TIP3    H250888   2.836   4.833   4.272  0.3950  0.0990 -0.0424
 9825TIP3   OH250889   1.356   1.357   6.428 -0.0241  0.0256 -0.1742
 9825TIP3    H150890   1.301   1.283   6.455  0.0623 -0.0586 -0.2263
 9825TIP3    H250891   1.295   1.429   6.413 -0.1749 -0.2064 -0.7148
 9826TIP3   OH250892   6.466   6.454  13.543  0.7466 -0.0222  0.0022
 9826TIP3    H150893   6.414   6.523  13.503 -0.3886  0.4224  2.0991
 9826TIP3    H250894   6.503   6.494  13.622  1.5012 -1.3177  0.3402
 9827TIP3   OH250895   0.742   3.176   2.152 -0.1605  0.1095 -0.4165
 9827TIP3    H150896   0.691   3.245   2.111  0.0006  0.6086  0.2096
 9827TIP3    H250897   0.682   3.134   2.213 -0.1262 -0.0116 -0.4642
 9828TIP3   OH250898   6.609   0.481   4.692  0.4651 -0.4939 -0.0669
 9828TIP3    H150899   6.638   0.392   4.671  1.3638 -0.2657  0.1610
 9828TIP3    H250900   6.535   0.497   4.633  0.6690 -1.1804 -0.5203
 9829TIP3   OH250901   1.338   3.685  15.599  0.2565 -0.7791  0.4020
 9829TIP3    H150902   1.397   3.708  15.671 -0.6815 -0.6435  1.1520
 9829TIP3    H250903   1.351   3.591  15.587  1.1866 -0.6125  0.0272
 9830TIP3   OH250904   2.116   3.987  12.376  0.4803  0.1063 -0.8696
 9830TIP3    H150905   2.146   3.961  12.463 -1.0008 -0.8610 -0.6164
 9830TIP3    H250906   2.182   3.951  12.317  0.1853 -1.4694 -0.2919
 9831TIP3   OH250907   3.708   0.651   4.726  0.7815 -0.4322  0.2131
 9831TIP3    H150908   3.639   0.696   4.678  0.7881 -1.2327 -0.5695
 9831TIP3    H250909   3.732   0.577   4.670  2.2951 -0.1573  0.4655
 9832TIP3   OH250910   0.307   2.596  11.725 -0.4476 -0.0598 -0.5855
 9832TIP3    H150911   0.401   2.578  11.716 -0.6457 -0.7793 -1.2906
 9832TIP3    H250912   0.290   2.666  11.662  0.1300  2.0331  1.4712
 9833TIP3   OH250913   1.279   5.063  14.718 -0.0070 -0.1399  0.2709
 9833TIP3    H150914   1.336   4.991  14.690 -0.5908 -0.4531 -0.1122
 9833TIP3    H250915   1.209   5.021  14.768 -0.3542  0.1597  0.0399
 9834TIP3   OH250916   2.119   2.208   2.184  0.3566  0.0297 -0.1548
 9834TIP3    H150917   2.070   2.239   2.109 -0.1626  2.2132  0.9994
 9834TIP3    H250918   2.203   2.254   2.179  0.3818  0.0708  0.4859
 9835TIP3   OH250919   0.251   6.514   3.213  0.5269  0.6007  0.5448
 9835TIP3    H150920   0.212   6.455   3.278  1.0559  0.3972  0.6771
 9835TIP3    H250921   0.235   6.471   3.129 -0.7921  1.2011  0.4454
 9836TIP3   OH250922   3.149   0.141   0.375 -0.6435  0.6292 -0.0589
 9836TIP3    H150923   3.054   0.157   0.379 -1.0284 -1.2918 -0.0623
 9836TIP3    H250924   3.157   0.047   0.393  1.2318  0.6574 -0.5837
 9837TIP3   OH250925   2.375   5.487  16.932 -0.2298 -0.0470  0.2634
 9837TIP3    H150926   2.322   5.554  16.975  0.1812  1.0851 -0.9253
 9837TIP3    H250927   2.429   5.536  16.869  1.0876 -1.3399  0.3294
 9838TIP3   OH250928   0.128   5.847  12.279  0.1118  0.3270  0.2980
 9838TIP3    H150929   0.188   5.917  12.254  0.7688  0.1431  1.2720
 9838TIP3    H250930   0.179   5.793  12.339 -1.3768  0.8381  2.1214
 9839TIP3   OH250931   3.032   4.766   4.258 -0.0085 -0.1695  0.1881
 9839TIP3    H150932   3.106   4.759   4.318 -0.0562 -0.9138  0.1615
 9839TIP3    H250933   3.010   4.676   4.236 -0.5663  0.0688 -0.2446
 9840TIP3   OH250934   0.761   4.571  16.381  0.0311  0.0320  0.0765
 9840TIP3    H150935   0.686   4.619  16.417 -0.4931 -0.3181 -0.5331
 9840TIP3    H250936   0.723   4.508  16.320  0.8877  0.5739 -1.0630
 9841TIP3   OH250937   4.176   1.375   3.892  0.2192 -0.5548  0.2091
 9841TIP3    H150938   4.175   1.370   3.988  0.2087  1.7627  0.4099
 9841TIP3    H250939   4.264   1.406   3.871  0.1197 -0.7501 -0.5135
 9842TIP3   OH250940   2.746   2.274  16.826  0.5823 -0.0668 -0.2500
 9842TIP3    H150941   2.787   2.220  16.894  1.0698  0.2319 -0.3058
 9842TIP3    H250942   2.724   2.212  16.756  0.6348 -0.2783 -0.0790
 9843TIP3   OH250943   2.869   4.142   4.195  0.6873 -0.3863 -0.4807
 9843TIP3    H150944   2.892   4.127   4.286  0.1206  0.0365 -0.2608
 9843TIP3    H250945   2.890   4.234   4.179 -0.9638  0.0805 -0.2068
 9844TIP3   OH250946   5.709   6.181   5.468  0.1373 -0.0471  0.0106
 9844TIP3    H150947   5.738   6.188   5.378 -0.8485  0.9169 -0.2545
 9844TIP3    H250948   5.641   6.248   5.477  0.2574 -0.0841  1.4816
 9845TIP3   OH250949   1.054   1.661   4.367 -0.2355 -0.1355  0.1104
 9845TIP3    H150950   1.125   1.695   4.312 -0.4832  0.3211  0.0666
 9845TIP3    H250951   1.086   1.576   4.397  0.3794  0.1106  0.1792
 9846TIP3   OH250952   2.104   3.750  17.098 -0.2784  0.3454 -0.0916
 9846TIP3    H150953   2.059   3.834  17.103  1.9114  1.5373  1.5382
 9846TIP3    H250954   2.037   3.688  17.069 -1.7548  2.7527 -2.2529
 9847TIP3   OH250955   0.124   1.713   2.929 -0.9371  0.3621  0.3967
 9847TIP3    H150956   0.043   1.662   2.923  0.7073 -2.7175  1.8327
 9847TIP3    H250957   0.154   1.722   2.838 -2.3941  0.7828 -0.0636
 9848TIP3   OH250958   6.662   2.641   4.831  0.3828  0.2495 -0.2923
 9848TIP3    H150959   6.751   2.620   4.803 -0.4045 -1.4135 -1.7468
 9848TIP3    H250960   6.640   2.721   4.783  0.7431  0.0946 -0.7233
 9849TIP3   OH250961   3.110   1.434   4.304  0.1933  0.0758 -0.2757
 9849TIP3    H150962   3.044   1.395   4.246  0.0648 -0.3264  0.1326
 9849TIP3    H250963   3.132   1.517   4.263 -0.0563 -0.1063 -0.7866
 9850TIP3   OH250964   1.256   5.430  11.637  0.5486  0.2481 -0.3922
 9850TIP3    H150965   1.253   5.436  11.542 -2.8633  0.1200 -0.4270
 9850TIP3    H250966   1.256   5.521  11.667  1.7703  0.2886 -0.4781
 9851TIP3   OH250967   3.590   4.853   5.413  0.0892 -0.0095  0.0983
 9851TIP3    H150968   3.508   4.806   5.397  0.0784  0.1269 -0.2533
 9851TIP3    H250969   3.622   4.816   5.495 -0.6589  0.4019  0.5894
 9852TIP3   OH250970   1.762   4.345   2.813 -0.2283  0.2099 -0.1269
 9852TIP3    H150971   1.785   4.282   2.745 -1.7454 -1.4591  0.8375
 9852TIP3    H250972   1.701   4.405   2.771 -0.1445 -0.0278 -0.5898
 9853TIP3   OH250973   1.669   0.466   2.709 -0.1692 -0.0450 -0.2257
 9853TIP3    H150974   1.629   0.412   2.641  0.0086  0.3551 -0.6599
 9853TIP3    H250975   1.750   0.499   2.668  0.7322 -1.0134  0.7055
 9854TIP3   OH250976   3.681   5.262   1.270  0.3395  0.3475 -0.3257
 9854TIP3    H150977   3.658   5.200   1.339 -1.0633 -1.1297 -2.0296
 9854TIP3    H250978   3.732   5.211   1.207 -1.2874  0.7079 -2.0268
 9855TIP3   OH250979   1.746   4.368  12.164  0.5317  0.2583 -0.5855
 9855TIP3    H150980   1.801   4.438  12.198  0.5960 -0.1145  0.1013
 9855TIP3    H250981   1.807   4.308  12.121  0.7664 -0.4977  0.7593
 9856TIP3   OH250982   5.470   5.877  11.041  0.6415 -0.5965 -0.0544
 9856TIP3    H150983   5.541   5.867  10.978  0.4874  1.5887 -0.6661
 9856TIP3    H250984   5.427   5.792  11.043  1.8169 -1.2592 -1.4767
 9857TIP3   OH250985   5.463   6.517   3.193  0.1865 -0.5072  0.0568
 9857TIP3    H150986   5.404   6.502   3.267  1.4287 -1.7981  0.8452
 9857TIP3    H250987   5.485   6.429   3.162  2.9733 -0.2030  0.8780
 9858TIP3   OH250988   3.274   6.540  11.133 -0.2311 -0.2489 -0.3171
 9858TIP3    H150989   3.336   6.509  11.200  0.1736  0.2542 -0.4560
 9858TIP3    H250990   3.297   6.491  11.054  0.3848  0.3582 -0.5256
 9859TIP3   OH250991   2.407   3.432  14.679 -0.0941 -0.1680  0.0569
 9859TIP3    H150992   2.461   3.409  14.754  1.0452  1.1613 -0.3123
 9859TIP3    H250993   2.350   3.501  14.710  2.3178  2.4542 -0.9008
 9860TIP3   OH250994   6.195   4.770   3.457 -0.3242 -0.0921 -0.4860
 9860TIP3    H150995   6.160   4.854   3.485  0.1995 -0.2134  0.5884
 9860TIP3    H250996   6.184   4.713   3.533 -2.9639 -1.7396 -1.9641
 9861TIP3   OH250997   0.756   1.085   0.621 -0.3609 -0.1578  0.1225
 9861TIP3    H150998   0.728   1.097   0.530 -0.1094  0.8589  0.1608
 9861TIP3    H250999   0.785   0.994   0.625  2.1493  0.4466 -1.5658
 9862TIP3   OH251000   2.347   1.554   2.305 -0.5542 -0.1251 -0.3182
 9862TIP3    H151001   2.411   1.614   2.343  0.4787  0.0948 -2.2504
 9862TIP3    H251002   2.276   1.551   2.368  1.9478 -1.5244  2.6904
 9863TIP3   OH251003   0.375   3.540   5.499  0.2155 -0.0829 -0.5425
 9863TIP3    H151004   0.432   3.530   5.423  1.6312 -1.9740  0.6746
 9863TIP3    H251005   0.426   3.504   5.572 -2.4317 -1.6692  0.6633
 9864TIP3   OH251006   1.027   1.601   3.943  0.1847  0.2308  0.2472
 9864TIP3    H151007   0.980   1.675   3.982 -1.5507  0.1794 -1.5919
 9864TIP3    H251008   1.060   1.635   3.859  2.3314 -0.1499  0.8699
 9865TIP3   OH251009   5.437   3.736   0.608 -0.1459 -0.0649 -0.3023
 9865TIP3    H151010   5.406   3.652   0.573  0.4353  0.2497 -1.6425
 9865TIP3    H251011   5.530   3.738   0.585  0.1362  0.4205  0.8152
 9866TIP3   OH251012   2.422   3.979   5.124  0.2138 -0.0367 -0.0672
 9866TIP3    H151013   2.484   3.910   5.100  1.9969  1.0706  1.1425
 9866TIP3    H251014   2.383   4.006   5.041 -1.3984 -3.1787 -0.5008
 9867TIP3   OH251015   2.357   0.890  12.816 -0.0475  0.4233  0.1010
 9867TIP3    H151016   2.348   0.932  12.901  1.6589  0.1652  0.4487
 9867TIP3    H251017   2.398   0.805  12.835 -1.1076 -0.3253 -0.8309
 9868TIP3   OH251018   4.205   1.640  12.408 -0.5959 -0.2248  0.5028
 9868TIP3    H151019   4.182   1.635  12.316 -0.7733 -0.3039  0.5512
 9868TIP3    H251020   4.299   1.620  12.410 -0.2668  1.2152  0.1934
 9869TIP3   OH251021   0.845   4.127  17.198 -0.1464 -0.4215 -0.8749
 9869TIP3    H151022   0.898   4.073  17.140 -0.6415 -0.4805 -1.2854
 9869TIP3    H251023   0.896   4.207  17.211  1.2443 -1.5240  0.8758
 9870TIP3   OH251024   4.036   2.737   3.921  0.5934 -0.2338 -0.0313
 9870TIP3    H151025   3.996   2.711   3.838  0.2710 -0.7322  0.2758
 9870TIP3    H251026   4.042   2.656   3.971  2.8082 -0.3435 -0.3876
 9871TIP3   OH251027   5.880   1.664   4.309  0.4684  0.6193  0.0270
 9871TIP3    H151028   5.796   1.670   4.265 -0.1287  3.2621  1.2992
 9871TIP3    H251029   5.912   1.754   4.312  0.7901  0.5758  4.2187
 9872TIP3   OH251030   6.413   3.347  12.861 -0.2020 -0.7658 -0.5050
 9872TIP3    H151031   6.353   3.278  12.834  0.2492 -0.8199 -1.4179
 9872TIP3    H251032   6.476   3.354  12.789 -0.1204  0.4636 -0.3391
 9873TIP3   OH251033   2.315   4.499   2.264  0.0022 -0.7757 -0.6621
 9873TIP3    H151034   2.400   4.542   2.260 -0.6588  0.5728 -0.6761
 9873TIP3    H251035   2.299   4.469   2.175  0.5562 -1.2330 -0.6115
 9874TIP3   OH251036   1.969   3.792   2.335  0.5554 -0.1416 -0.1532
 9874TIP3    H151037   1.967   3.888   2.329  1.6003 -0.1477 -1.0102
 9874TIP3    H251038   1.926   3.762   2.255  1.4244 -0.3634 -0.5532
 9875TIP3   OH251039   1.360   4.672   6.172  0.1109 -0.8877  0.4100
 9875TIP3    H151040   1.379   4.583   6.202 -0.1186 -1.2841 -0.5820
 9875TIP3    H251041   1.288   4.701   6.227 -0.8224 -1.8946 -0.2567
 9876TIP3   OH251042   3.214   4.257   3.574 -0.4176 -0.3544  0.0449
 9876TIP3    H151043   3.180   4.311   3.503  1.2414  1.5064  0.5881
 9876TIP3    H251044   3.200   4.309   3.653  0.6158 -1.0048  0.6832
 9877TIP3   OH251045   1.206   5.653  16.170 -0.4554 -0.4185 -0.1525
 9877TIP3    H151046   1.235   5.589  16.235 -1.5128 -1.0536 -0.2855
 9877TIP3    H251047   1.126   5.690  16.207  0.3138  1.1136  0.0870
 9878TIP3   OH251048   2.386   1.839   1.724 -0.1347 -0.2452  0.1755
 9878TIP3    H151049   2.433   1.856   1.806 -0.1095 -0.2002  0.1521
 9878TIP3    H251050   2.407   1.915   1.669 -0.9562  0.2124  0.4862
 9879TIP3   OH251051   0.666   3.722   2.547  0.0555 -0.2004 -0.2022
 9879TIP3    H151052   0.677   3.812   2.517 -0.9806 -0.4866 -1.5265
 9879TIP3    H251053   0.755   3.688   2.556  0.4216  0.5243 -1.0399
 9880TIP3   OH251054   5.569   4.671  16.365 -0.3367  0.7751  0.0025
 9880TIP3    H151055   5.506   4.736  16.335  0.1808  0.6572 -1.4573
 9880TIP3    H251056   5.547   4.592  16.314 -1.3264 -0.4243  2.1422
 9881TIP3   OH251057   1.806   1.373  14.270 -0.6299  0.0195 -0.1312
 9881TIP3    H151058   1.853   1.425  14.204 -1.5803  0.0433 -0.7980
 9881TIP3    H251059   1.733   1.334  14.223 -1.3840  0.1113  0.9220
 9882TIP3   OH251060   2.914   0.315   2.114  0.3352 -0.0395 -0.1396
 9882TIP3    H151061   3.002   0.282   2.098  0.9641  1.3330  0.2855
 9882TIP3    H251062   2.886   0.271   2.194  1.7526  1.4412  1.2726
 9883TIP3   OH251063   0.491   3.924   3.392  0.0469 -0.0058 -0.1093
 9883TIP3    H151064   0.482   4.002   3.446  0.9551 -0.2213  0.3698
 9883TIP3    H251065   0.403   3.886   3.389  0.4414 -1.6782  3.7760
 9884TIP3   OH251066   0.803   0.718   5.024  0.0932  0.1618  0.3314
 9884TIP3    H151067   0.873   0.707   4.959 -0.5083  2.7389 -0.8965
 9884TIP3    H251068   0.849   0.742   5.105  0.7387 -0.4330  0.1441
 9885TIP3   OH251069   4.843   3.240   1.110 -0.8690 -0.2527 -0.7879
 9885TIP3    H151070   4.830   3.271   1.020 -0.3532  1.4194 -0.3031
 9885TIP3    H251071   4.761   3.195   1.131 -1.3290  0.0817 -1.7845
 9886TIP3   OH251072   3.321   3.446   1.813  0.3776 -0.0758 -0.9737
 9886TIP3    H151073   3.339   3.379   1.879 -0.9177  1.1720  0.7500
 9886TIP3    H251074   3.271   3.512   1.860  1.1308  1.8546 -2.7549
 9887TIP3   OH251075   1.754   3.735  12.625 -0.2981 -0.0211  0.3662
 9887TIP3    H151076   1.733   3.788  12.701 -1.8499 -0.4606  0.2829
 9887TIP3    H251077   1.669   3.712  12.587  0.3548 -1.5182 -0.3056
 9888TIP3   OH251078   1.366   0.297   4.025 -0.6040  0.2194 -0.1710
 9888TIP3    H151079   1.410   0.216   3.997  0.0343  0.4387  0.1837
 9888TIP3    H251080   1.324   0.330   3.945  2.0050  1.3623 -1.1868
 9889TIP3   OH251081   1.847   5.158   1.462 -0.2313  0.1247  0.3821
 9889TIP3    H151082   1.842   5.113   1.546  0.3161 -1.7436 -0.5547
 9889TIP3    H251083   1.903   5.103   1.407  2.6312  3.1411 -0.0942
 9890TIP3   OH251084   3.980   5.826  14.530 -0.7959  0.3616 -0.1364
 9890TIP3    H151085   3.892   5.790  14.519 -0.5912 -0.1407 -0.1506
 9890TIP3    H251086   4.034   5.780  14.467 -0.3552  0.0653  0.4434
 9891TIP3   OH251087   5.750   0.932  15.897 -0.5662 -0.0634  0.3921
 9891TIP3    H151088   5.766   0.936  15.803 -2.7904 -4.4248 -0.4529
 9891TIP3    H251089   5.820   0.877  15.931 -1.5346 -1.2371  0.5801
 9892TIP3   OH251090   6.652   2.984   4.022  0.2248 -0.2177 -0.4199
 9892TIP3    H151091   6.672   3.077   4.024 -1.6909  0.2157  1.1148
 9892TIP3    H251092   6.694   2.949   4.100 -0.8667 -0.2003  0.1939
 9893TIP3   OH251093   1.824   5.817  11.489 -0.3160 -0.0984  0.2886
 9893TIP3    H151094   1.772   5.737  11.495 -0.3920  0.0519  2.2332
 9893TIP3    H251095   1.759   5.887  11.479 -0.2471 -0.2394 -1.4679
 9894TIP3   OH251096   3.351   3.818  13.943  0.0679 -0.2745 -0.1425
 9894TIP3    H151097   3.344   3.801  14.037 -1.3076  0.6309 -0.0577
 9894TIP3    H251098   3.350   3.731  13.904 -1.6364 -0.6396  0.5846
 9895TIP3   OH251099   5.605   4.170  17.213 -0.0370  0.0641 -0.1296
 9895TIP3    H151100   5.592   4.238  17.279 -0.8585 -0.3986  0.2040
 9895TIP3    H251101   5.537   4.105  17.232  1.9627 -1.8905  0.9097
 9896TIP3   OH251102   3.641   6.347   3.179  0.0692 -0.1583  0.0236
 9896TIP3    H151103   3.707   6.301   3.230  0.7468  1.2116  0.4381
 9896TIP3    H251104   3.633   6.432   3.223 -1.6700 -0.1404 -0.2642
 9897TIP3   OH251105   2.205   5.447   2.928  0.0551  0.1001  0.0257
 9897TIP3    H151106   2.126   5.448   2.982  1.1294  0.2370  1.6691
 9897TIP3    H251107   2.208   5.359   2.891 -0.9979  0.1824 -0.3083
 9898TIP3   OH251108   6.278   6.000  11.517 -0.2696 -0.4652  0.2330
 9898TIP3    H151109   6.194   6.044  11.532 -0.6412 -0.3350 -1.9977
 9898TIP3    H251110   6.344   6.064  11.547 -0.9178 -0.1243  0.9662
 9899TIP3   OH251111   2.775   5.011  13.994  0.1558  0.5649  0.8425
 9899TIP3    H151112   2.844   5.032  14.056  0.5542 -1.3446  1.1175
 9899TIP3    H251113   2.745   4.924  14.020  0.8482 -0.6654 -2.0064
 9900TIP3   OH251114   1.133   0.422  11.125 -0.2929  0.5381  0.3480
 9900TIP3    H151115   1.043   0.390  11.121  0.0739 -0.8511  1.9373
 9900TIP3    H251116   1.139   0.487  11.055 -2.6237  0.9437  0.4401
 9901TIP3   OH251117   4.973   5.850  12.606  0.3507 -0.6365  0.4181
 9901TIP3    H151118   5.054   5.798  12.608 -0.3654 -1.7497  1.4857
 9901TIP3    H251119   4.939   5.845  12.695 -1.6324 -1.3859 -0.3248
 9902TIP3   OH251120   0.830   5.272   2.066  0.0757  0.1909 -1.0966
 9902TIP3    H151121   0.784   5.224   2.135 -1.7275  2.4379 -0.6184
 9902TIP3    H251122   0.911   5.301   2.107 -0.0899 -0.1204 -0.5409
 9903TIP3   OH251123   5.708   5.190  11.381  0.3522  0.6198  0.0831
 9903TIP3    H151124   5.685   5.129  11.312 -0.9106  1.9366 -0.7174
 9903TIP3    H251125   5.723   5.135  11.458  3.1670 -1.0166 -1.4630
 9904TIP3   OH251126   2.644   3.621  16.087  0.2074 -0.3040  0.7007
 9904TIP3    H151127   2.692   3.693  16.128 -0.7247  0.7295  0.0387
 9904TIP3    H251128   2.664   3.545  16.142  0.0205  0.7566  2.3268
 9905TIP3   OH251129   4.072   3.558  12.416  0.4856  0.7464 -0.2795
 9905TIP3    H151130   4.025   3.611  12.480  0.7969 -0.0716  0.6511
 9905TIP3    H251131   4.065   3.468  12.450  2.4763  0.5747 -0.2573
 9906TIP3   OH251132   6.703   0.077   0.353 -0.2154  0.1160 -0.4935
 9906TIP3    H151133   6.787   0.104   0.391 -0.6932  0.6431  0.2070
 9906TIP3    H251134   6.654   0.158   0.343 -0.7738 -0.2246 -0.5646
 9907TIP3   OH251135   2.053   5.777  11.924  0.7159  0.6248  0.2319
 9907TIP3    H151136   2.084   5.686  11.919  1.6150  0.8515  1.3040
 9907TIP3    H251137   2.041   5.803  11.832 -2.2356 -1.4157 -0.1181
 9908TIP3   OH251138   5.875   4.726   3.261 -1.1500 -0.4761  0.1558
 9908TIP3    H151139   5.859   4.679   3.343 -3.0532 -0.2005 -0.0105
 9908TIP3    H251140   5.833   4.811   3.273  1.8337  1.1054  0.2745
 9909TIP3   OH251141   4.468   1.167  14.482 -0.0348 -0.1587  0.0891
 9909TIP3    H151142   4.473   1.246  14.429  0.7061 -0.3646 -0.1695
 9909TIP3    H251143   4.529   1.183  14.554  0.6340 -0.7519 -0.3316
 9910TIP3   OH251144   4.283   0.972  14.356 -0.2388 -0.4313 -0.0462
 9910TIP3    H151145   4.370   1.011  14.367 -0.6917  0.4298  0.5724
 9910TIP3    H251146   4.253   1.006  14.271 -1.0252  1.4272  0.9071
 9911TIP3   OH251147   0.478   4.569  16.623 -0.8751  0.1350  0.4258
 9911TIP3    H151148   0.470   4.514  16.545 -1.1950 -0.8668  1.1552
 9911TIP3    H251149   0.422   4.645  16.605 -1.5865 -0.4827  0.0127
 9912TIP3   OH251150   3.157   3.567   6.107  0.3188 -0.6297  0.0284
 9912TIP3    H151151   3.224   3.499   6.098  1.6253  0.6717 -0.4053
 9912TIP3    H251152   3.192   3.627   6.173  0.3122  0.8868 -1.3023
 9913TIP3   OH251153   4.751   5.850  11.360  0.2248 -0.5606  0.0859
 9913TIP3    H151154   4.700   5.908  11.303  0.2225  0.6452  1.2357
 9913TIP3    H251155   4.839   5.850  11.322  0.7233  1.7603  1.0411
 9914TIP3   OH251156   0.020   1.145   5.359 -0.1701 -0.1541 -0.2028
 9914TIP3    H151157   0.093   1.191   5.401 -0.6545 -0.4618  1.0250
 9914TIP3    H251158   0.035   1.156   5.265  1.4404 -0.1793  0.0229
 9915TIP3   OH251159   2.857   3.295  11.258  0.2426 -0.4024 -0.4893
 9915TIP3    H151160   2.798   3.371  11.261 -0.0647 -0.5796 -1.6143
 9915TIP3    H251161   2.923   3.318  11.192  0.8892 -0.5991  0.0796
 9916TIP3   OH251162   1.743   5.385   2.892 -0.5165 -0.3238 -0.0204
 9916TIP3    H151163   1.697   5.446   2.835  0.1269 -0.9803 -1.2750
 9916TIP3    H251164   1.675   5.325   2.922 -0.8615  0.0261 -0.0893
 9917TIP3   OH251165   0.075   4.633  15.467  0.2163  0.2401 -0.4982
 9917TIP3    H151166  -0.001   4.643  15.410  0.8435  0.8540 -1.2545
 9917TIP3    H251167   0.103   4.723  15.485 -1.1345  0.1968  2.4216
 9918TIP3   OH251168   2.268   1.233  13.992  0.1400 -0.7095  0.3278
 9918TIP3    H151169   2.358   1.201  13.998  0.6232  0.5318  0.0183
 9918TIP3    H251170   2.234   1.225  14.081  1.6830  1.8754  1.2708
 9919TIP3   OH251171   2.720   1.565   4.602 -0.2076 -0.0422 -0.5304
 9919TIP3    H151172   2.803   1.544   4.561  0.4950  1.7049 -0.1043
 9919TIP3    H251173   2.716   1.509   4.679  0.0190 -0.9586 -1.1755
 9920TIP3   OH251174   5.286   0.268   1.679 -0.2078  0.7853  0.1483
 9920TIP3    H151175   5.345   0.268   1.755 -2.3129  1.4654  1.8742
 9920TIP3    H251176   5.342   0.240   1.606  1.9222  0.1466  1.9040
 9921TIP3   OH251177   1.456   0.801   3.175  0.0642 -0.9355 -0.0023
 9921TIP3    H151178   1.500   0.878   3.212 -0.1806 -1.4023  1.3134
 9921TIP3    H251179   1.392   0.837   3.113 -0.8197  0.0266  1.3990
 9922TIP3   OH251180   5.592   3.725  16.211 -0.3074 -0.0096 -0.1095
 9922TIP3    H151181   5.646   3.697  16.137  0.2828 -1.2262  0.7480
 9922TIP3    H251182   5.510   3.675  16.201 -0.6053  0.5305 -0.4426
 9923TIP3   OH251183   4.606   3.906  12.128  0.1615  0.2763  0.1506
 9923TIP3    H151184   4.557   3.825  12.142  1.6548 -0.8628 -0.8928
 9923TIP3    H251185   4.597   3.925  12.035  0.6175  0.7641  0.1952
 9924TIP3   OH251186   3.570   3.246  12.715  0.1465 -0.4463  0.1089
 9924TIP3    H151187   3.488   3.228  12.762 -0.9736 -0.9485 -1.8859
 9924TIP3    H251188   3.608   3.159  12.700 -0.3153 -0.4419 -1.2064
 9925TIP3   OH251189   1.288   6.474   2.080 -0.4454  0.5313 -0.7288
 9925TIP3    H151190   1.198   6.504   2.068 -0.5880  0.6832  0.5326
 9925TIP3    H251191   1.337   6.513   2.008 -1.4882 -0.0406 -1.7793
 9926TIP3   OH251192   5.551   3.383  12.261 -0.5778  0.0969 -0.0741
 9926TIP3    H151193   5.488   3.367  12.331 -1.1224 -0.9150 -0.7894
 9926TIP3    H251194   5.538   3.312  12.199 -1.7209  2.1646 -2.3904
 9927TIP3   OH251195   0.798   3.606  16.535 -0.3403 -0.0590  0.2053
 9927TIP3    H151196   0.803   3.634  16.443 -0.8433 -0.6301 -0.0041
 9927TIP3    H251197   0.705   3.604  16.555 -0.2144  0.5473  0.8914
 9928TIP3   OH251198   3.150   5.045  15.545  0.7374  0.0363  0.1964
 9928TIP3    H151199   3.242   5.018  15.543  1.0127  0.8445  1.1354
 9928TIP3    H251200   3.126   5.045  15.637 -0.0774  0.2490 -0.0064
 9929TIP3   OH251201   0.053   1.487   3.818 -0.1871  0.1625  0.0981
 9929TIP3    H151202   0.045   1.504   3.724 -0.9211 -0.0553  0.1129
 9929TIP3    H251203   0.007   1.560   3.860 -0.6182 -0.1958  0.2575
 9930TIP3   OH251204   5.768   4.255  11.241  0.4780  0.2414  0.0077
 9930TIP3    H151205   5.766   4.273  11.147 -0.9126 -1.1690 -0.2708
 9930TIP3    H251206   5.841   4.308  11.274  0.6157  1.2263 -1.7506
 9931TIP3   OH251207   4.455   0.368   1.782  0.1053 -0.1646 -0.1018
 9931TIP3    H151208   4.476   0.283   1.820 -1.6335  0.0285  1.4526
 9931TIP3    H251209   4.432   0.348   1.691 -2.7105 -1.8660  0.8263
 9932TIP3   OH251210   3.410   2.925  13.139  0.4240 -0.4663  0.1353
 9932TIP3    H151211   3.393   3.006  13.187 -0.9239 -1.2018  0.9517
 9932TIP3    H251212   3.392   2.855  13.202 -0.1786 -1.4347 -1.0677
 9933TIP3   OH251213   5.509   3.897   4.091  0.1892 -0.0458 -0.0568
 9933TIP3    H151214   5.550   3.830   4.035  0.9061  0.4427 -0.1290
 9933TIP3    H251215   5.481   3.965   4.030  2.7297  1.4286  0.2618
 9934TIP3   OH251216   6.000   4.498   2.130 -0.1445  0.6982 -0.0327
 9934TIP3    H151217   6.050   4.558   2.185  0.3895  0.2108  0.0201
 9934TIP3    H251218   5.913   4.496   2.169  0.0981  0.7195  0.5187
 9935TIP3   OH251219   3.169   2.595  12.807  0.2177  0.4724  0.4031
 9935TIP3    H151220   3.250   2.615  12.854  1.5457  0.0353 -1.6228
 9935TIP3    H251221   3.177   2.639  12.723 -1.0440 -0.6998 -0.3841
 9936TIP3   OH251222   1.271   3.017   4.055  0.7536 -0.2154  0.0778
 9936TIP3    H151223   1.260   3.107   4.024  0.6415 -0.3630 -0.3072
 9936TIP3    H251224   1.321   2.973   3.986 -0.7103 -0.9227 -0.5722
 9937TIP3   OH251225   1.386   5.864  16.072 -1.0340 -0.1727  0.0623
 9937TIP3    H151226   1.460   5.805  16.088 -0.2601  1.0687  1.2392
 9937TIP3    H251227   1.314   5.825  16.121 -0.4033  0.0749  1.2273
 9938TIP3   OH251228   4.565   0.234  16.424 -0.0230  0.4525  0.8169
 9938TIP3    H151229   4.640   0.246  16.482  0.2564  0.1363  0.5260
 9938TIP3    H251230   4.489   0.258  16.477  0.4239  2.7965  0.5072
 9939TIP3   OH251231   2.079   6.606   6.377 -0.6672  0.0113 -0.2245
 9939TIP3    H151232   2.143   6.560   6.431  1.7519  0.7705 -2.2534
 9939TIP3    H251233   2.021   6.537   6.345  0.3012 -1.0212  0.1582
 9940TIP3   OH251234   3.845   1.001  16.948  0.2274  0.0084  0.0345
 9940TIP3    H151235   3.827   0.979  16.857  0.6709 -1.4931  0.2854
 9940TIP3    H251236   3.784   1.073  16.968 -0.0251  0.2070 -1.3656
 9941TIP3   OH251237   0.488   3.989   4.632  0.2027  0.5095 -0.2825
 9941TIP3    H151238   0.411   3.939   4.603 -0.1896  0.7585  0.3186
 9941TIP3    H251239   0.512   4.042   4.556  1.9727 -2.1371 -1.7526
 9942TIP3   OH251240   1.471   3.676  12.660 -0.3114  0.4646  0.2359
 9942TIP3    H151241   1.478   3.771  12.674 -0.9855  0.7267 -1.0642
 9942TIP3    H251242   1.454   3.667  12.566 -0.5144 -0.9379  0.3935
 9943TIP3   OH251243   4.668   5.778  17.036 -0.1437 -0.0880  0.2383
 9943TIP3    H151244   4.760   5.796  17.053 -0.6029  1.3315  1.4504
 9943TIP3    H251245   4.627   5.864  17.035 -1.9956 -0.8025  3.2034
 9944TIP3   OH251246   4.798   3.679   4.122  0.1395  1.0685 -0.3785
 9944TIP3    H151247   4.839   3.598   4.153 -0.8451  0.3283 -0.9324
 9944TIP3    H251248   4.870   3.741   4.114  0.9969  0.1032 -0.3813
 9945TIP3   OH251249   3.148   0.975   1.683  0.2167  0.0892 -0.5125
 9945TIP3    H151250   3.081   1.007   1.622  0.4073 -0.4726 -1.0260
 9945TIP3    H251251   3.098   0.936   1.755 -0.0561  2.4735  0.6965
 9946TIP3   OH251252   1.763   5.680   4.992 -0.2264  0.4110  0.1831
 9946TIP3    H151253   1.780   5.635   5.074 -0.4092  1.4964  0.8334
 9946TIP3    H251254   1.774   5.773   5.013  0.4309  0.6691 -1.1877
 9947TIP3   OH251255   2.034   1.399  14.058  0.3531  0.1537 -0.2008
 9947TIP3    H151256   1.986   1.433  13.982 -0.3537 -0.2701  0.0550
 9947TIP3    H251257   2.126   1.413  14.034  0.1324  0.4910 -0.9186
 9948TIP3   OH251258   5.395   0.163  17.126 -0.7041 -0.2162 -0.0000
 9948TIP3    H151259   5.419   0.196  17.039 -0.8510  1.2268  0.4693
 9948TIP3    H251260   5.364   0.074  17.111  1.1987 -0.7334 -1.1478
 9949TIP3   OH251261   4.566   6.761   5.311  0.1164 -0.4506  0.2276
 9949TIP3    H151262   4.505   6.824   5.349  0.1714 -0.1863 -0.1165
 9949TIP3    H251263   4.548   6.679   5.358 -0.3484 -0.3207  0.2844
 9950TIP3   OH251264   6.732   3.557  16.040  0.1194 -0.5966 -0.4731
 9950TIP3    H151265   6.761   3.472  16.072  1.3781 -0.0964 -0.2351
 9950TIP3    H251266   6.800   3.585  15.979 -1.1778 -0.5602 -1.9884
 9951TIP3   OH251267   1.612   0.677  16.925  0.0590  0.0342 -0.3144
 9951TIP3    H151268   1.590   0.748  16.865 -1.8907 -0.8347 -0.7071
 9951TIP3    H251269   1.707   0.676  16.927  0.1412  1.6144 -1.5465
 9952TIP3   OH251270   3.496   6.639   1.183 -0.5367 -0.2518  0.6763
 9952TIP3    H151271   3.485   6.636   1.088  0.9853 -0.0153  0.4740
 9952TIP3    H251272   3.548   6.562   1.204 -1.8111 -0.9148  1.4809
 9953TIP3   OH251273   2.070   6.314  15.257  0.3001 -0.1053  0.2564
 9953TIP3    H151274   2.046   6.313  15.349  1.6585  1.6485  0.6746
 9953TIP3    H251275   2.062   6.223  15.229 -2.1409 -0.3790  1.5219
 9954TIP3   OH251276   2.043   5.837  11.646  0.1641 -0.5637  0.5156
 9954TIP3    H151277   1.956   5.826  11.608  0.2819  2.0436 -0.6715
 9954TIP3    H251278   2.101   5.786  11.589 -0.1754  0.2595 -0.5837
 9955TIP3   OH251279   6.233   5.954   3.069  0.1446 -0.3160  0.1002
 9955TIP3    H151280   6.177   5.946   2.991  0.6999  1.6556 -0.5529
 9955TIP3    H251281   6.268   5.866   3.082 -0.8809 -0.9502 -1.1769
 9956TIP3   OH251282   3.604   6.217   0.403  0.4856 -0.6013  0.4385
 9956TIP3    H151283   3.567   6.234   0.490  0.1394 -1.5745  0.4919
 9956TIP3    H251284   3.688   6.175   0.421  0.4414 -0.7466  0.3064
 9957TIP3   OH251285   2.498   2.867   5.320 -0.4533  0.6800  0.0161
 9957TIP3    H151286   2.442   2.824   5.257  0.8644 -0.0159 -0.7253
 9957TIP3    H251287   2.547   2.796   5.362 -1.4456  1.1032  1.9992
 9958TIP3   OH251288   2.419   6.289   5.531  0.3854  0.2060  0.3154
 9958TIP3    H151289   2.512   6.308   5.523  0.3386  0.2190 -0.2476
 9958TIP3    H251290   2.388   6.350   5.599  0.4028  1.6113 -0.8737
 9959TIP3   OH251291   3.604   3.554  12.878  0.7408  0.3134 -0.1741
 9959TIP3    H151292   3.635   3.637  12.913  0.5519  0.2241  0.2080
 9959TIP3    H251293   3.675   3.492  12.896  0.3506  0.1062  0.7106
 9960TIP3   OH251294   1.299   3.902   0.398 -0.6716 -0.9817  0.6360
 9960TIP3    H151295   1.374   3.874   0.451  1.3796  1.6557 -0.6677
 9960TIP3    H251296   1.231   3.923   0.462  0.6415 -0.8326  2.0260
 9961TIP3   OH251297   6.303   1.579   2.616 -0.5601 -0.0410 -0.0429
 9961TIP3    H151298   6.358   1.549   2.688 -0.6128 -0.2917 -0.1067
 9961TIP3    H251299   6.230   1.623   2.658 -0.1816  0.5216  0.0358
 9962TIP3   OH251300   0.815   5.786  11.479 -0.1691  0.1337  0.0354
 9962TIP3    H151301   0.829   5.879  11.493  1.4569 -0.3297  1.8911
 9962TIP3    H251302   0.852   5.769  11.392  2.1617  0.7825  0.8093
 9963TIP3   OH251303   3.513   4.020  12.882 -0.3659  0.4147  0.0335
 9963TIP3    H151304   3.503   4.064  12.966  0.2364  0.1847  0.2300
 9963TIP3    H251305   3.472   3.934  12.895  0.9125 -0.1440  0.5263
 9964TIP3   OH251306   6.180   3.706   4.276 -0.3248 -0.1197  0.2575
 9964TIP3    H151307   6.191   3.794   4.240  1.3863  0.9158  2.9756
 9964TIP3    H251308   6.241   3.652   4.226 -1.3833  0.2032 -1.4358
 9965TIP3   OH251309   1.299   6.665  11.356  0.3180 -0.0893 -0.4835
 9965TIP3    H151310   1.351   6.585  11.351  0.3085 -0.0747 -0.8640
 9965TIP3    H251311   1.209   6.636  11.340 -0.0109 -0.3290  1.5698
 9966TIP3   OH251312   1.976   5.810   1.170  0.4803  0.1249 -0.0299
 9966TIP3    H151313   2.041   5.747   1.139 -0.2893 -0.3835 -0.6447
 9966TIP3    H251314   1.962   5.788   1.262  0.3906 -0.4466 -0.1818
 9967TIP3   OH251315   5.636   6.031  14.870  0.1140 -0.0785 -0.3566
 9967TIP3    H151316   5.722   6.065  14.844  0.1874 -0.5863 -0.7917
 9967TIP3    H251317   5.590   6.107  14.905  1.1498 -0.0152  0.9776
 9968TIP3   OH251318   3.957   2.857  17.149  0.3336 -0.0096  0.0115
 9968TIP3    H151319   3.863   2.852  17.169  0.2192  0.4092 -0.4025
 9968TIP3    H251320   3.992   2.919  17.213  0.1736  0.4609 -0.3480
 9969TIP3   OH251321   1.058   6.166  12.829  0.4961 -0.2386  0.0172
 9969TIP3    H151322   1.090   6.153  12.739  0.5330 -1.7947  0.2281
 9969TIP3    H251323   1.132   6.142  12.884  0.3327  0.3073  0.4883
 9970TIP3   OH251324   5.068   0.284   5.152 -0.7805  0.0694  0.1519
 9970TIP3    H151325   5.120   0.204   5.143 -2.2951 -0.9313 -0.0109
 9970TIP3    H251326   5.086   0.333   5.072 -0.2873 -0.3817 -0.0165
 9971TIP3   OH251327   5.628   1.261   0.096 -0.4430  0.0996 -0.2023
 9971TIP3    H151328   5.642   1.183   0.042  0.6005  1.6603 -2.2854
 9971TIP3    H251329   5.552   1.238   0.151 -0.6953 -2.0469 -1.3298
 9972TIP3   OH251330   6.371   3.058  11.946  0.3324 -0.2846  0.5008
 9972TIP3    H151331   6.408   3.145  11.954 -1.1710  0.3662  0.7237
 9972TIP3    H251332   6.413   3.006  12.014 -0.0656  0.7477  1.5514
 9973TIP3   OH251333   4.583   0.949   2.982 -0.2601  0.2370 -0.1919
 9973TIP3    H151334   4.636   0.869   2.979 -0.4826  0.0832  0.0598
 9973TIP3    H251335   4.548   0.957   2.893  1.1196  0.9711 -0.7129
 9974TIP3   OH251336   1.182   3.222  17.228  0.2771  0.0589  0.0047
 9974TIP3    H151337   1.140   3.226  17.314 -2.8249  1.3461 -1.4122
 9974TIP3    H251338   1.163   3.306  17.188 -0.8809 -1.4617 -2.9678
 9975TIP3   OH251339   2.059   6.037  15.211  0.2186  0.3322 -0.0657
 9975TIP3    H151340   2.148   6.008  15.228  0.2354 -0.0777 -0.8294
 9975TIP3    H251341   2.005   5.958  15.218  0.1711  0.2312 -1.4462
 9976TIP3   OH251342   0.226   2.644  12.642  0.2065  0.3903 -0.1498
 9976TIP3    H151343   0.195   2.645  12.733  2.8893  1.1854  0.8579
 9976TIP3    H251344   0.154   2.683  12.592 -1.8782 -1.2672  1.3845
 9977TIP3   OH251345   1.598   5.242   0.999  0.0407  0.4386  0.4344
 9977TIP3    H151346   1.650   5.317   1.027 -0.4445  1.4435 -1.1633
 9977TIP3    H251347   1.509   5.261   1.031  0.1711 -0.1408  1.1774
 9978TIP3   OH251348   2.803   0.983   2.914 -1.0210  0.0898 -0.3888
 9978TIP3    H151349   2.758   1.061   2.881 -0.4693  0.3799 -0.4714
 9978TIP3    H251350   2.877   1.017   2.965 -0.1046 -0.3699 -1.3645
 9979TIP3   OH251351   5.293   6.190   5.004 -0.6919 -0.9869 -0.2536
 9979TIP3    H151352   5.304   6.165   4.912  1.1437 -0.1119 -0.3043
 9979TIP3    H251353   5.198   6.190   5.017 -1.0061 -0.8657 -2.2138
 9980TIP3   OH251354   3.549   3.466   4.450 -0.0484  0.2088 -0.5011
 9980TIP3    H151355   3.496   3.462   4.529  0.9150 -2.2912  0.0918
 9980TIP3    H251356   3.599   3.547   4.459 -1.0112  0.7002  0.7176
 9981TIP3   OH251357   0.478   0.694  15.995  0.0190 -0.1899  0.3701
 9981TIP3    H151358   0.489   0.742  15.913  0.9982  0.5481  0.9171
 9981TIP3    H251359   0.428   0.753  16.052 -0.6786 -0.7087  0.3074
 9982TIP3   OH251360   1.673   3.629   5.622  0.2102 -0.1305  0.4131
 9982TIP3    H151361   1.673   3.685   5.545 -3.4262 -2.3182 -1.4651
 9982TIP3    H251362   1.761   3.592   5.626  1.6610  2.9951 -0.2414
 9983TIP3   OH251363   0.094   3.378  13.383 -0.3432  0.4105 -0.0377
 9983TIP3    H151364   0.014   3.326  13.382 -0.5437  0.6863  0.8799
 9983TIP3    H251365   0.156   3.327  13.330 -1.3799  0.6585 -1.5759
 9984TIP3   OH251366   5.573   0.929   3.875 -0.7384  0.1606  0.1213
 9984TIP3    H151367   5.581   1.020   3.903  0.0528  0.0564  0.2618
 9984TIP3    H251368   5.590   0.878   3.954  0.3895 -0.1232 -0.2867
 9985TIP3   OH251369   1.437   2.511  12.103  0.4358 -0.2810  0.2489
 9985TIP3    H151370   1.389   2.557  12.172  0.6329 -0.0464  0.2306
 9985TIP3    H251371   1.459   2.426  12.142  1.2470  0.1493  0.7685
 9986TIP3   OH251372   2.521   1.551  13.854  0.1603  0.2577 -0.3157
 9986TIP3    H151373   2.526   1.527  13.761 -0.2078  1.4042 -0.6499
 9986TIP3    H251374   2.534   1.468  13.900  1.2191 -0.2048 -1.3692
 9987TIP3   OH251375   0.207   2.307   1.425  0.6755  0.2452  0.0319
 9987TIP3    H151376   0.191   2.283   1.517  0.4120  0.0415 -0.0679
 9987TIP3    H251377   0.132   2.361   1.401  1.2314  1.1512  0.2401
 9988TIP3   OH251378   5.420   4.275  15.298  0.0225 -0.2013 -0.0918
 9988TIP3    H151379   5.430   4.225  15.218  1.7687 -0.6035  0.3286
 9988TIP3    H251380   5.447   4.215  15.368 -0.8337  0.3481  0.7369
 9989TIP3   OH251381   4.032   6.738  12.856 -0.8498  0.0335  0.5339
 9989TIP3    H151382   3.945   6.770  12.881 -0.9615  0.1107  0.0585
 9989TIP3    H251383   4.075   6.814  12.818 -0.3963  0.1172  1.2055
 9990TIP3   OH251384   1.837   6.657   0.016  0.0363  0.2637 -0.1535
 9990TIP3    H151385   1.847   6.652   0.111  0.3003  0.4154 -0.1742
 9990TIP3    H251386   1.795   6.741   0.001  1.6001  1.0453 -0.2992
 9991TIP3   OH251387   0.951   3.512   4.365  0.2550 -0.1937  0.2908
 9991TIP3    H151388   1.029   3.501   4.310  0.0883  2.4689 -0.6609
 9991TIP3    H251389   0.892   3.442   4.339  1.5874 -1.1248 -0.3295
 9992TIP3   OH251390   5.154   3.163  14.633 -0.5431  0.2831 -0.6814
 9992TIP3    H151391   5.113   3.157  14.719 -1.0903  1.6417 -0.8311
 9992TIP3    H251392   5.213   3.087  14.630  0.5767  0.9928  1.4546
 9993TIP3   OH251393   5.717   5.250  14.722 -0.0272 -0.5386 -0.3173
 9993TIP3    H151394   5.719   5.331  14.772 -1.0554 -1.1289  0.7364
 9993TIP3    H251395   5.790   5.257  14.661  0.8752  0.4810  0.8422
 9994TIP3   OH251396   4.344   1.680  14.577 -0.1721 -0.1980  0.3132
 9994TIP3    H151397   4.437   1.656  14.585 -0.0212  0.5791  0.9829
 9994TIP3    H251398   4.299   1.596  14.576  0.3816 -0.5818  2.2570
 9995TIP3   OH251399   1.788   5.548  16.375 -1.0474  0.1012 -0.1233
 9995TIP3    H151400   1.815   5.492  16.303  0.6813  1.4605 -0.5988
 9995TIP3    H251401   1.693   5.534  16.381 -0.6222 -3.4637  0.3891
 9996TIP3   OH251402   2.523   1.089   1.777 -0.2395 -0.3577 -0.0819
 9996TIP3    H151403   2.456   1.157   1.781 -0.3187 -0.4573  0.3664
 9996TIP3    H251404   2.492   1.029   1.709  0.3439  0.5847 -1.2272
 9997TIP3   OH251405   5.999   2.065   5.759  0.3179  0.0776  0.6218
 9997TIP3    H151406   6.071   2.125   5.779 -0.0845  0.8823 -0.2691
 9997TIP3    H251407   5.946   2.112   5.694  0.1054 -1.3359 -0.2647
 9998TIP3   OH251408   0.546   0.076   3.710 -0.0890  0.1800  0.0190
 9998TIP3    H151409   0.538   0.074   3.806  2.8841  1.8670  0.4061
 9998TIP3    H251410   0.500   0.156   3.684 -0.8800 -0.2671  0.0265
 9999TIP3   OH251411   2.018   6.577  15.683  0.6865  0.4254  0.4294
 9999TIP3    H151412   2.043   6.637  15.613  0.0474 -0.8200 -0.9146
 9999TIP3    H251413   2.017   6.631  15.762  4.0530  1.3315 -0.0080
10000TIP3   OH251414   5.935   3.721  13.484  0.1584 -0.6458  0.2135
10000TIP3    H151415   5.845   3.721  13.516  0.3206 -1.1179  0.6881
10000TIP3    H251416   5.983   3.774  13.547  0.2065 -0.3612 -0.0612
10001TIP3   OH251417   5.606   3.759  13.201 -0.2745 -0.6511  0.5108
10001TIP3    H151418   5.641   3.670  13.207 -0.8180 -0.8789  0.4170
10001TIP3    H251419   5.571   3.777  13.288 -0.6942 -0.7610  0.3692
10002TIP3   OH251420   2.715   4.518  13.901 -0.3031  0.0576 -0.2063
10002TIP3    H151421   2.678   4.446  13.850 -0.5687  0.8323 -1.1330
10002TIP3    H251422   2.699   4.493  13.992 -0.6840 -0.8969 -0.5238
10003TIP3   OH251423   6.207   6.065  13.315  0.0426  0.5426 -0.0658
10003TIP3    H151424   6.297   6.035  13.329 -0.2854  0.0037  0.9136
10003TIP3    H251425   6.188   6.123  13.389 -0.4174  0.6718 -0.2760
10004TIP3   OH251426   6.229   1.429  17.012  0.4546 -0.1131  0.0841
10004TIP3    H151427   6.188   1.470  16.936  0.5441 -1.1440 -0.5311
10004TIP3    H251428   6.227   1.336  16.994  1.4371 -0.3079  0.8743
10005TIP3   OH251429   3.382   3.220  13.233 -0.3218  0.3377 -0.0732
10005TIP3    H151430   3.316   3.214  13.302  0.2768  2.1132  0.7276
10005TIP3    H251431   3.464   3.234  13.280 -0.2589  4.6565 -1.0314
10006TIP3   OH251432   1.454   2.763   4.367 -0.0302  0.3158 -0.3357
10006TIP3    H151433   1.494   2.748   4.281 -1.1674  0.4077 -0.9091
10006TIP3    H251434   1.374   2.813   4.347 -0.7122 -0.3403  0.6918
10007TIP3   OH251435   0.200   6.488   5.166 -0.0632 -0.0426 -0.3867
10007TIP3    H151436   0.225   6.573   5.128 -0.4221  0.7730  1.1279
10007TIP3    H251437   0.113   6.471   5.131  1.0372 -1.1290 -2.8047
10008TIP3   OH251438   0.872   3.244  11.644  0.3300 -0.4522 -0.2882
10008TIP3    H151439   0.965   3.225  11.661  0.4861 -1.2072 -1.8621
10008TIP3    H251440   0.869   3.273  11.553 -1.1990 -2.2483 -0.8771
10009TIP3   OH251441   3.245   5.388  13.047 -0.0204 -0.7348 -0.2203
10009TIP3    H151442   3.316   5.409  13.109 -0.5661 -0.3652  0.2942
10009TIP3    H251443   3.288   5.384  12.962  1.0296 -2.7015  0.3331
10010TIP3   OH251444   3.413   5.755  14.039 -0.0974 -0.1426 -0.8919
10010TIP3    H151445   3.325   5.773  14.003  0.1570 -0.8176 -1.9026
10010TIP3    H251446   3.416   5.660  14.048  0.5862 -0.1343 -1.0095
10011TIP3   OH251447   3.963   3.178   6.255  0.8625  0.3185 -0.1485
10011TIP3    H151448   3.878   3.139   6.231 -0.1828  1.4983  1.4272
10011TIP3    H251449   4.019   3.104   6.276  0.6079 -0.5504 -2.2425
10012TIP3   OH251450   2.186   1.956  16.004  0.0366  0.1740  0.1002
10012TIP3    H151451   2.115   1.971  16.067  0.2358  1.0672  0.1180
10012TIP3    H251452   2.264   1.990  16.048  0.6741 -1.6946  0.4976
10013TIP3   OH251453   6.704   2.932   2.615  0.8567 -0.5003  0.3296
10013TIP3    H151454   6.782   2.962   2.663 -0.0009 -0.1786  1.5648
10013TIP3    H251455   6.660   3.012   2.588 -0.6719 -0.5756  2.3700
10014TIP3   OH251456   6.054   5.338  15.274 -0.1987 -0.2491  0.0682
10014TIP3    H151457   6.013   5.368  15.192 -0.6792 -1.3909 -0.1256
10014TIP3    H251458   6.047   5.243  15.271  0.1964 -0.3294  1.2331
10015TIP3   OH251459   0.677   0.937  13.685 -0.5973  0.0473 -0.6980
10015TIP3    H151460   0.765   0.922  13.721 -0.3585  1.3057 -0.7104
10015TIP3    H251461   0.622   0.952  13.761 -0.6707 -0.1036 -0.7211
10016TIP3   OH251462   2.771   0.877  15.668 -0.3680 -0.3025  0.0766
10016TIP3    H151463   2.816   0.948  15.623  0.4540 -0.1218  1.1396
10016TIP3    H251464   2.839   0.811  15.684 -1.1105 -1.3392 -0.8790
10017TIP3   OH251465   3.453   4.111  16.437 -0.6476 -0.2875  0.0143
10017TIP3    H151466   3.458   4.206  16.438 -1.1609 -0.2392 -1.1873
10017TIP3    H251467   3.422   4.088  16.525  0.4324  0.5686  0.6481
10018TIP3   OH251468   1.998   2.962  17.317  0.2646  0.2133 -0.0632
10018TIP3    H151469   1.964   3.017  17.246  0.0033  0.0439 -0.0686
10018TIP3    H251470   2.083   2.931  17.284  0.1033  0.0620 -0.3388
10019TIP3   OH251471   3.817   3.881   3.873 -0.6049  1.0039  0.0459
10019TIP3    H151472   3.906   3.917   3.879 -1.0132  1.9784  0.4526
10019TIP3    H251473   3.796   3.853   3.962 -0.5822  0.4360 -0.1205
10020TIP3   OH251474   3.963   5.857  15.672 -0.1432  0.5249  0.0432
10020TIP3    H151475   3.924   5.898  15.749 -1.8537  1.3490 -1.1958
10020TIP3    H251476   3.966   5.926  15.606 -0.4725 -0.5963 -1.2076
10021TIP3   OH251477   1.056   3.063   2.583 -0.1158 -0.1198  0.5517
10021TIP3    H151478   1.086   3.009   2.656 -1.2958  0.1153  1.2197
10021TIP3    H251479   1.023   3.000   2.519  0.4293 -0.2933  0.4342
10022TIP3   OH251480   2.425   2.788   6.571 -0.3354  0.2146  0.0832
10022TIP3    H151481   2.455   2.787   6.480  0.3818  1.8006  0.2807
10022TIP3    H251482   2.455   2.872   6.606 -1.5383  0.1026  1.4810
10023TIP3   OH251483   1.300   0.774  13.927  0.3463 -0.0013 -0.5847
10023TIP3    H151484   1.315   0.711  13.857  1.9995  1.5788 -1.7637
10023TIP3    H251485   1.388   0.792  13.961 -0.2944  0.2756  0.9889
10024TIP3   OH251486   4.446   6.323   3.064  0.0904  0.0991 -0.5966
10024TIP3    H151487   4.487   6.404   3.031 -0.5396  0.2586 -0.9924
10024TIP3    H251488   4.353   6.343   3.069  0.1838  0.2207  1.6974
10025TIP3   OH251489   6.621   4.994  16.321 -0.0789  0.4841 -0.2680
10025TIP3    H151490   6.633   4.972  16.229 -0.6133 -1.3737  0.0657
10025TIP3    H251491   6.618   5.090  16.323  0.6993  0.5730 -2.0619
10026TIP3   OH251492   0.414   3.335   2.890 -0.0793  0.2490  0.1706
10026TIP3    H151493   0.359   3.315   2.814  0.2070 -2.5947  0.6176
10026TIP3    H251494   0.474   3.403   2.859 -0.7969  0.0524 -1.7592
10027TIP3   OH251495   5.706   6.460   0.558  0.4416 -0.3420 -0.3462
10027TIP3    H151496   5.741   6.515   0.488  0.4411  1.9777  1.3703
10027TIP3    H251497   5.783   6.415   0.593  0.6039 -0.6270 -1.0333
10028TIP3   OH251498   2.049   2.793   5.584 -0.2595  0.3657 -0.2940
10028TIP3    H151499   2.115   2.762   5.522 -1.0860 -0.6098 -0.7086
10028TIP3    H251500   1.994   2.717   5.601 -1.2444  1.1461  0.0971
10029TIP3   OH251501   3.784   6.592  14.070 -1.0171  0.3378 -0.3032
10029TIP3    H151502   3.778   6.682  14.100 -1.2609  0.7514 -1.5691
10029TIP3    H251503   3.778   6.540  14.151 -3.5176  1.3386  0.2368
10030TIP3   OH251504   2.487   0.484  14.566  0.1252  0.6624  0.4849
10030TIP3    H151505   2.472   0.573  14.532 -0.8560  0.7258  1.0286
10030TIP3    H251506   2.401   0.442  14.559  0.3237  0.1133  1.2629
10031TIP3   OH251507   4.379   0.825  11.580 -0.0484 -0.3331 -1.0790
10031TIP3    H151508   4.335   0.813  11.495  0.3620  0.0082 -1.3497
10031TIP3    H251509   4.350   0.751  11.633 -3.1732  1.2573 -0.2799
10032TIP3   OH251510   0.296   1.046  13.791 -0.0441  0.0477  0.2475
10032TIP3    H151511   0.291   1.141  13.781  0.7103 -0.0816 -1.8267
10032TIP3    H251512   0.387   1.030  13.816 -0.0566 -0.1597  0.1602
10033TIP3   OH251513   3.856   1.561  11.643 -0.3319  0.2919  0.2958
10033TIP3    H151514   3.870   1.581  11.550 -0.1836  0.0793  0.2695
10033TIP3    H251515   3.770   1.597  11.663 -0.9330 -0.7730 -0.2570
10034TIP3   OH251516   2.897   4.021  11.708  0.7547  0.4030 -0.1749
10034TIP3    H151517   2.969   4.081  11.725  1.5900 -0.1029 -1.7543
10034TIP3    H251518   2.920   3.941  11.757  0.3436  0.8498  0.7763
10035TIP3   OH251519   5.139   4.135   2.783 -0.4165 -0.7459 -0.3753
10035TIP3    H151520   5.186   4.194   2.724 -1.2964  0.2410 -0.1219
10035TIP3    H251521   5.181   4.050   2.771  1.0061 -0.0275 -0.6098
10036TIP3   OH251522   0.290   4.308   3.087 -0.6545 -0.0408  0.1264
10036TIP3    H151523   0.324   4.343   3.169 -0.9304 -0.2348  0.3260
10036TIP3    H251524   0.368   4.298   3.031 -0.5225  0.4794  0.2164
10037TIP3   OH251525   5.607   0.614   3.992 -0.4318  0.0312 -0.1433
10037TIP3    H151526   5.615   0.643   3.902 -0.0875 -0.4265 -0.2665
10037TIP3    H251527   5.683   0.651   4.037  0.3050 -1.1110 -0.4249
10038TIP3   OH251528   5.662   1.727   0.002 -0.1344 -0.2255 -0.4051
10038TIP3    H151529   5.724   1.659  -0.026 -0.2952 -0.2900 -0.6158
10038TIP3    H251530   5.664   1.724   0.097  0.7946  0.3294 -0.4022
10039TIP3   OH251531   2.742   1.811   5.249  0.4804 -0.3028  0.2260
10039TIP3    H151532   2.749   1.809   5.153  1.3443 -1.8355  0.2863
10039TIP3    H251533   2.651   1.789   5.267  0.4474 -0.5874 -0.2511
10040TIP3   OH251534   6.713   0.980  13.344 -0.0161  0.5856 -0.2020
10040TIP3    H151535   6.793   0.957  13.297 -0.5070 -0.5422 -0.5197
10040TIP3    H251536   6.685   1.063  13.305  0.6306  0.6515 -0.5464
10041TIP3   OH251537   0.263   1.077   2.337 -0.1473 -0.1566  0.2291
10041TIP3    H151538   0.294   1.100   2.425 -0.9705 -0.5240  0.6274
10041TIP3    H251539   0.301   0.991   2.320 -0.7480 -0.5125  0.6309
10042TIP3   OH251540   0.020   1.216  12.107 -0.5802 -0.1444  0.5450
10042TIP3    H151541   0.010   1.243  12.015 -1.8440 -1.9195  0.1144
10042TIP3    H251542   0.052   1.126  12.102  1.4454  0.4347  1.9031
10043TIP3   OH251543   0.774   4.167  13.396 -0.7346 -0.0207 -0.1209
10043TIP3    H151544   0.759   4.073  13.400  0.1770 -0.1704  0.0023
10043TIP3    H251545   0.859   4.176  13.354 -1.4971  0.8107 -1.5521
10044TIP3   OH251546   6.622   2.990   0.490  0.1986 -0.2063 -0.1780
10044TIP3    H151547   6.612   2.897   0.472  0.9795  0.0128 -1.9355
10044TIP3    H251548   6.705   2.996   0.538 -0.5743 -0.5344  1.2439
10045TIP3   OH251549   5.665   2.068   5.641  0.2709  0.2217 -0.3072
10045TIP3    H151550   5.672   1.978   5.611 -0.0740  0.3519 -0.7821
10045TIP3    H251551   5.731   2.116   5.590 -0.1931  0.4107 -0.7310
10046TIP3   OH251552   4.299   0.907  14.636 -0.6226 -0.1692  0.4896
10046TIP3    H151553   4.346   0.991  14.636  0.1482 -0.5865  0.4129
10046TIP3    H251554   4.361   0.846  14.597 -0.9100 -0.9247  1.1919
10047TIP3   OH251555   3.855   3.283  14.292 -0.2286 -0.0360 -1.0859
10047TIP3    H151556   3.884   3.197  14.322  0.2295  1.5307  3.6660
10047TIP3    H251557   3.760   3.273  14.280 -0.2349 -1.1305 -0.2744
10048TIP3   OH251558   4.414   4.997   2.527  0.2194  0.3284  0.2133
10048TIP3    H151559   4.321   4.990   2.551 -0.0402  0.6526 -0.6816
10048TIP3    H251560   4.449   4.910   2.546  0.1461  0.6870  2.2077
10049TIP3   OH251561   4.668   5.981  16.698  0.0788  0.5502 -0.4237
10049TIP3    H151562   4.592   6.019  16.743 -0.6205 -0.9925 -0.2412
10049TIP3    H251563   4.743   6.020  16.742 -0.5970  0.2264  1.0847
10050TIP3   OH251564   6.592   5.110   3.079 -0.5209 -0.6628 -0.5294
10050TIP3    H151565   6.597   5.086   3.172  0.4597  0.1567 -0.3650
10050TIP3    H251566   6.595   5.026   3.033 -1.7431 -1.1312  0.1859
10051TIP3   OH251567   0.841   2.151  11.569 -0.3613 -0.1816  0.0515
10051TIP3    H151568   0.892   2.210  11.625 -0.2692  1.1355 -1.3629
10051TIP3    H251569   0.764   2.202  11.544 -0.1091 -0.5178 -1.4806
10052TIP3   OH251570   0.707   6.429  11.189 -0.0375 -0.2929 -0.0750
10052TIP3    H151571   0.617   6.419  11.219 -0.0636  0.8395  0.2941
10052TIP3    H251572   0.741   6.503  11.240  0.8612 -0.2123 -0.7581
10053TIP3   OH251573   5.149   6.549   0.990  0.6608 -0.1238 -0.4324
10053TIP3    H151574   5.232   6.509   1.017 -0.2262 -1.8887 -0.1429
10053TIP3    H251575   5.089   6.475   0.980 -1.8806  1.2271  2.8015
10054TIP3   OH251576   6.404   2.037   1.275  0.4124 -0.3935 -0.0619
10054TIP3    H151577   6.450   2.120   1.261 -0.6423  0.5290  1.7108
10054TIP3    H251578   6.312   2.058   1.265  0.1722 -1.6639 -0.8662
10055TIP3   OH251579   0.422   0.940  11.164  0.4857  0.1483  0.7950
10055TIP3    H151580   0.504   0.971  11.204  1.9769 -1.0447 -1.1624
10055TIP3    H251581   0.419   0.985  11.079 -1.5126  1.0032  1.2624
10056TIP3   OH251582   2.408   4.027   0.449 -0.1869  0.7570 -0.1425
10056TIP3    H151583   2.486   3.972   0.459  0.0242  1.2623  1.2266
10056TIP3    H251584   2.398   4.038   0.354 -0.5454 -2.0333 -0.5159
10057TIP3   OH251585   0.878   2.221  14.200 -0.0174 -0.2277 -0.1914
10057TIP3    H151586   0.865   2.199  14.107 -1.0146 -0.4193 -0.0168
10057TIP3    H251587   0.956   2.276  14.201 -0.4196  0.3798 -1.2316
10058TIP3   OH251588   0.962   6.320   3.833 -0.2177 -0.4008 -0.2687
10058TIP3    H151589   0.983   6.402   3.878  0.4530 -0.7040 -0.0145
10058TIP3    H251590   0.958   6.343   3.740  1.5855 -0.3609 -0.3835
10059TIP3   OH251591   2.612   1.638   4.364  0.0924 -0.2874 -0.3017
10059TIP3    H151592   2.590   1.548   4.337  2.0947 -1.3307  1.2353
10059TIP3    H251593   2.632   1.631   4.457  0.7290  1.6858 -0.2448
10060TIP3   OH251594   5.422   1.760  15.155  0.0885  0.5217  0.1875
10060TIP3    H151595   5.402   1.674  15.117  1.6875  0.1124  0.1791
10060TIP3    H251596   5.481   1.801  15.092 -0.1422  1.3690  0.5065
10061TIP3   OH251597   4.872   4.194  14.254  0.1335 -0.2441  0.1312
10061TIP3    H151598   4.898   4.117  14.305 -1.2433  0.1507  1.5423
10061TIP3    H251599   4.842   4.256  14.320 -1.1868  0.5238 -1.1443
10062TIP3   OH251600   6.656   4.004  15.220 -0.2289 -0.6970  0.5478
10062TIP3    H151601   6.742   4.045  15.215 -1.8396  3.2038  1.3967
10062TIP3    H251602   6.640   3.973  15.130  1.6502 -0.7485  0.1774
10063TIP3   OH251603   1.807   3.441  15.863 -0.1616  0.2331 -0.9005
10063TIP3    H151604   1.854   3.389  15.798 -1.2265  1.2922 -2.6101
10063TIP3    H251605   1.728   3.390  15.883  0.8187 -0.7489  0.6913
10064TIP3   OH251606   2.239   2.629  16.542 -0.2591  0.1703  0.1098
10064TIP3    H151607   2.332   2.615  16.560 -0.0339  0.3681 -0.8198
10064TIP3    H251608   2.194   2.559  16.589  0.1154  1.5943  2.7250
10065TIP3   OH251609   6.610   1.258  12.720 -0.5947  0.2768  0.0916
10065TIP3    H151610   6.601   1.284  12.628  0.8419  2.7581  0.5553
10065TIP3    H251611   6.657   1.175  12.717 -1.1448 -0.0139 -1.4143
10066TIP3   OH251612   0.397   2.450   4.987 -0.0090  0.2431  0.0148
10066TIP3    H151613   0.324   2.464   5.048 -0.5062 -0.6981 -0.3393
10066TIP3    H251614   0.432   2.364   5.011 -0.9722 -0.6930 -1.7566
10067TIP3   OH251615   5.229   2.867   1.316 -0.0217  0.1660  0.0877
10067TIP3    H151616   5.247   2.787   1.267 -0.6843  0.2809 -0.3605
10067TIP3    H251617   5.214   2.837   1.406 -1.1049 -0.3266 -0.2351
10068TIP3   OH251618   6.470   4.199  16.403  0.4615 -0.4259 -0.2048
10068TIP3    H151619   6.442   4.127  16.460 -1.1985  1.0616  0.9679
10068TIP3    H251620   6.544   4.239  16.449  0.4475 -0.4962 -0.1207
10069TIP3   OH251621   1.702   6.641  10.549  0.3568  0.1114  0.0077
10069TIP3    H151622   1.738   6.571  10.602  0.5103 -0.6826 -1.1111
10069TIP3    H251623   1.778   6.682  10.508  0.1550 -0.2541 -0.7570
10070TIP3   OH251624   3.171   5.583  17.152 -0.3191  0.1038  0.1164
10070TIP3    H151625   3.236   5.563  17.220 -0.3219  0.3041  0.1780
10070TIP3    H251626   3.186   5.517  17.085 -0.2027  0.0078  0.2351
10071TIP3   OH251627   2.719   0.350   3.345  0.3201 -0.5485  0.3664
10071TIP3    H151628   2.671   0.392   3.273  1.0217 -1.0280 -0.3980
10071TIP3    H251629   2.794   0.309   3.303  0.3051 -1.5422  1.2652
10072TIP3   OH251630   2.898   6.621  16.883  0.4408 -0.3865 -0.5475
10072TIP3    H151631   2.849   6.703  16.888  1.5346  0.2063  1.1285
10072TIP3    H251632   2.963   6.636  16.815 -0.3121 -0.4147 -1.2879
10073TIP3   OH251633   1.152   6.072  15.156  0.1628 -0.4237  0.1526
10073TIP3    H151634   1.210   6.144  15.133  0.7305 -0.4133  1.5125
10073TIP3    H251635   1.071   6.089  15.108  0.9982 -0.0268 -1.1768
10074TIP3   OH251636   0.312   3.665  16.195  0.0226  0.4487 -0.0158
10074TIP3    H151637   0.257   3.674  16.273  0.4891  0.5508  0.3031
10074TIP3    H251638   0.388   3.615  16.224  0.3665  0.7833 -0.3168
10075TIP3   OH251639   2.384   0.755   1.867 -0.0145 -0.5449  0.2254
10075TIP3    H151640   2.341   0.681   1.823  1.6261 -1.7716  0.5768
10075TIP3    H251641   2.404   0.816   1.796 -0.8091 -0.7293 -0.1696
10076TIP3   OH251642   1.297   5.976   6.361 -0.3305 -0.5516  0.2612
10076TIP3    H151643   1.370   5.920   6.389  1.3027  0.4948 -1.6666
10076TIP3    H251644   1.299   6.050   6.423  0.4754 -0.3714  0.0309
10077TIP3   OH251645   4.867   6.125   5.157  0.8365 -0.0036 -0.1541
10077TIP3    H151646   4.906   6.080   5.232 -0.2101  0.9577  1.0150
10077TIP3    H251647   4.774   6.099   5.159 -0.8861  5.0189  3.0215
10078TIP3   OH251648   6.503   2.908   0.219 -0.6645  0.7039  0.3673
10078TIP3    H151649   6.527   2.920   0.311 -0.5764 -0.7788  0.5649
10078TIP3    H251650   6.437   2.838   0.221  0.3993 -0.3772 -0.8108
10079TIP3   OH251651   6.595   4.483   1.577  0.3301  0.1347  0.0459
10079TIP3    H151652   6.537   4.485   1.501 -0.3468 -1.2461  0.4975
10079TIP3    H251653   6.671   4.432   1.549  0.1413 -0.2601  0.2442
10080TIP3   OH251654   1.029   1.765   1.567  0.4292 -0.1858 -0.5247
10080TIP3    H151655   0.966   1.728   1.629  0.7429  0.0023 -0.0868
10080TIP3    H251656   1.050   1.693   1.508 -2.6708  0.5487 -2.7566
10081TIP3   OH251657   5.326   5.875   3.199  0.1361 -0.0442  0.0242
10081TIP3    H151658   5.337   5.887   3.104  0.1176  0.0843  0.0372
10081TIP3    H251659   5.358   5.787   3.216 -1.9891 -1.0016 -0.4785
10082TIP3   OH251660   4.459   2.039  17.146 -0.1626  0.2943  0.5174
10082TIP3    H151661   4.541   2.045  17.196  0.6707  1.3043 -0.8830
10082TIP3    H251662   4.444   1.946  17.135  0.7528  0.0943  0.8968
10083TIP3   OH251663   3.822   0.018   0.288 -0.0166  0.1530  0.2860
10083TIP3    H151664   3.828   0.082   0.359  0.6993  0.0583  0.3135
10083TIP3    H251665   3.803  -0.065   0.332 -0.1590  0.1986  0.3132
10084TIP3   OH251666   4.948   5.738   4.366  0.0763 -0.1925  0.2343
10084TIP3    H151667   5.042   5.748   4.357  0.2181 -1.3449  0.2662
10084TIP3    H251668   4.927   5.660   4.314 -1.0179  0.6428 -0.6365
10085TIP3   OH251669   1.279   3.488  15.257  0.6697  0.3480  0.4038
10085TIP3    H151670   1.287   3.583  15.269 -0.1161  0.4617  0.0389
10085TIP3    H251671   1.264   3.454  15.346  2.0241  0.4386  0.6922
10086TIP3   OH251672   3.491   0.201   0.062 -0.2407 -0.0536 -0.1342
10086TIP3    H151673   3.518   0.199   0.154  1.6157  0.5169 -0.6278
10086TIP3    H251674   3.398   0.178   0.064 -0.3946  0.5716  1.9368
10087TIP3   OH251675   0.908   3.448  12.215 -0.1119 -0.1815  0.3882
10087TIP3    H151676   0.957   3.526  12.189  0.7479 -0.6879  0.4617
10087TIP3    H251677   0.886   3.462  12.307 -3.0278  1.5476 -0.4213
10088TIP3   OH251678   4.079   6.129   3.140  0.4610 -0.2236  0.4587
10088TIP3    H151679   4.099   6.100   3.051  1.1833 -0.7931  0.7882
10088TIP3    H251680   4.163   6.124   3.186  0.2557  0.8297  0.9683
10089TIP3   OH251681   2.876   0.772   4.019 -0.1170 -0.2787 -0.0208
10089TIP3    H151682   2.851   0.690   3.978  1.1645 -1.1188  0.8082
10089TIP3    H251683   2.837   0.768   4.107  1.1422 -0.6753  0.5372
10090TIP3   OH251684   0.428   1.071  12.739  0.4544  0.3107  0.3178
10090TIP3    H151685   0.367   1.039  12.806  2.3597  1.5076  2.8004
10090TIP3    H251686   0.468   1.149  12.778  1.0119  1.6642 -2.6627
10091TIP3   OH251687   3.225   0.341   1.689 -0.6971  0.1095 -0.3310
10091TIP3    H151688   3.213   0.248   1.672 -0.1344 -0.3240  1.4539
10091TIP3    H251689   3.155   0.384   1.638  0.5718 -1.0122 -3.2347
10092TIP3   OH251690   1.471   5.221  11.934 -0.0322 -0.2931 -0.1176
10092TIP3    H151691   1.426   5.223  11.850 -1.4194 -1.4593  0.5634
10092TIP3    H251692   1.564   5.219  11.911 -0.3566  0.2008 -1.5921
10093TIP3   OH251693   2.010   4.217  12.277 -0.3590  0.1379 -0.1472
10093TIP3    H151694   2.057   4.142  12.313  0.2056  1.3446  1.7450
10093TIP3    H251695   2.077   4.270  12.234 -0.7753 -0.4340 -1.5863
10094TIP3   OH251696   3.534   2.315   0.364 -0.2379 -0.1058  0.1116
10094TIP3    H151697   3.497   2.397   0.396 -1.0027 -0.3777 -0.0389
10094TIP3    H251698   3.612   2.340   0.315 -0.9928  0.6289 -0.7527
10095TIP3   OH251699   2.238   1.754   6.190  0.8267  0.1831  0.0413
10095TIP3    H151700   2.276   1.829   6.144  0.5484  0.6159  0.5068
10095TIP3    H251701   2.146   1.755   6.164  0.6241  0.5472  0.7546
10096TIP3   OH251702   4.712   1.140  12.587 -0.6658  0.1571 -0.8279
10096TIP3    H151703   4.781   1.207  12.577  1.9483 -1.9561  1.4061
10096TIP3    H251704   4.643   1.184  12.636  0.5961  1.4696 -0.1379
10097TIP3   OH251705   4.055   5.902   4.950 -0.3955 -0.3521 -0.5109
10097TIP3    H151706   4.052   5.879   5.043 -1.8209  0.9731 -0.1832
10097TIP3    H251707   3.967   5.884   4.918  0.3412 -1.7888 -1.9179
10098TIP3   OH251708   3.927   5.826  16.597  0.6086 -0.2055  0.7407
10098TIP3    H151709   3.833   5.817  16.580  0.3481  0.3020  1.8067
10098TIP3    H251710   3.967   5.754  16.549 -0.0973  0.7900 -1.4631
10099TIP3   OH251711   6.651   5.173  17.232 -0.3723  0.0591 -0.1490
10099TIP3    H151712   6.631   5.203  17.144 -4.1487 -0.2910  0.4466
10099TIP3    H251713   6.572   5.190  17.282  0.7260 -2.1021  2.5857
10100TIP3   OH251714   4.000   6.548   5.900 -0.2107  0.0541 -0.2094
10100TIP3    H151715   4.051   6.566   5.821  0.0724 -3.0297 -0.8639
10100TIP3    H251716   3.910   6.565   5.875  0.0836  1.3763 -0.4241
10101TIP3   OH251717   5.503   0.525  14.253 -0.7306  0.1028  0.6690
10101TIP3    H151718   5.514   0.551  14.345  2.6464 -0.5180  0.5808
10101TIP3    H251719   5.544   0.595  14.203 -3.2869  0.8659 -0.5469
10102TIP3   OH251720   3.090   0.985  10.870  0.1967 -0.4474  0.7904
10102TIP3    H151721   3.072   0.979  10.776 -0.0505  0.5867  0.7586
10102TIP3    H251722   3.138   0.905  10.890 -1.0564 -1.3993  0.0945
10103TIP3   OH251723   1.005   4.353  17.291 -0.3451  0.0616  0.2407
10103TIP3    H151724   1.098   4.331  17.286 -0.7503 -1.5645 -1.1643
10103TIP3    H251725   1.003   4.437  17.336  1.9343  1.0912 -1.3975
10104TIP3   OH251726   3.403   3.130  16.037 -0.0228  0.1793  0.1062
10104TIP3    H151727   3.309   3.136  16.020 -0.4208 -3.5801  0.2316
10104TIP3    H251728   3.410   3.118  16.132  0.4295 -0.9569 -0.0522
10105TIP3   OH251729   0.999   3.193  14.707 -0.4008 -0.1552 -0.2742
10105TIP3    H151730   0.958   3.107  14.711 -0.3247 -0.1604  1.1499
10105TIP3    H251731   1.028   3.202  14.617 -1.4382 -1.1286 -0.7322
10106TIP3   OH251732   6.294   5.817   5.113  0.2393 -0.3761  0.1478
10106TIP3    H151733   6.271   5.731   5.149  2.2524 -0.5442  1.2063
10106TIP3    H251734   6.232   5.877   5.153  0.8416 -0.9187  2.0188
10107TIP3   OH251735   5.598   0.917  11.746  0.7166 -0.0444 -0.0420
10107TIP3    H151736   5.606   0.957  11.659 -1.0878  1.5674  0.4799
10107TIP3    H251737   5.596   0.823  11.728  0.4825  0.2492 -1.7458
10108TIP3   OH251738   6.740   4.426   1.240 -0.2254  0.8027 -0.0981
10108TIP3    H151739   6.825   4.384   1.231 -0.7803 -0.7248  1.1243
10108TIP3    H251740   6.677   4.356   1.220 -1.2095  1.8406 -0.7845
10109TIP3   OH251741   6.198   6.060  13.736 -0.3056 -0.0993 -0.0686
10109TIP3    H151742   6.132   6.020  13.679 -0.0674  1.7493 -1.7553
10109TIP3    H251743   6.158   6.141  13.765  0.5025  0.1101  0.4822
10110TIP3   OH251744   4.915   2.495  13.649  0.3141  0.0558  0.1484
10110TIP3    H151745   4.952   2.539  13.572 -0.5669  1.4437  0.4822
10110TIP3    H251746   4.821   2.513  13.645 -0.0369 -1.5420  0.5017
10111TIP3   OH251747   4.745   3.231  15.066  0.5206 -0.0740 -0.0780
10111TIP3    H151748   4.767   3.199  14.979  0.8647 -1.3646  0.4609
10111TIP3    H251749   4.803   3.183  15.125  1.2001  1.7015  0.7732
10112TIP3   OH251750   3.696   0.731  12.170 -0.1976  1.0683 -0.3129
10112TIP3    H151751   3.733   0.813  12.137  0.7223  0.5146 -0.6966
10112TIP3    H251752   3.632   0.705  12.104  1.0490  0.3872 -1.2872
10113TIP3   OH251753   1.150   0.237   3.020 -0.2082 -0.7215 -0.5302
10113TIP3    H151754   1.214   0.309   3.017 -0.4291 -0.5546 -3.1685
10113TIP3    H251755   1.066   0.281   3.032 -0.2399 -0.6132 -1.1369
10114TIP3   OH251756   6.351   1.517  13.517  0.4501 -0.4246  0.4407
10114TIP3    H151757   6.413   1.466  13.465  1.0589  0.2127  0.5233
10114TIP3    H251758   6.275   1.459  13.528  1.3282 -1.5106  0.9838
10115TIP3   OH251759   0.916   0.361   2.423 -0.1177  0.2164 -0.3111
10115TIP3    H151760   1.001   0.325   2.448 -0.4198  0.2847  0.8606
10115TIP3    H251761   0.914   0.448   2.463 -0.0289  0.9572 -1.8253
10116TIP3   OH251762   3.641   1.247  12.364 -0.2033  0.0298 -0.1151
10116TIP3    H151763   3.722   1.196  12.355  0.3893  0.5463  1.7128
10116TIP3    H251764   3.576   1.198  12.315  0.9981 -0.9476 -0.7815
10117TIP3   OH251765   5.417   1.846  16.207 -0.1107 -0.1830  0.1929
10117TIP3    H151766   5.452   1.933  16.191 -0.5534  0.0678  0.5854
10117TIP3    H251767   5.374   1.852  16.292 -0.5791 -0.6541 -0.0053
10118TIP3   OH251768   4.450   2.275  12.413 -0.3429 -0.2428 -0.8790
10118TIP3    H151769   4.393   2.250  12.486 -0.2865 -0.4837 -0.9163
10118TIP3    H251770   4.529   2.309  12.455 -0.4820  0.0235 -0.8267
10119TIP3   OH251771   3.853   1.150   2.700 -0.2163  0.7565  0.0211
10119TIP3    H151772   3.857   1.243   2.725 -4.2993  1.1918 -0.3507
10119TIP3    H251773   3.864   1.150   2.605 -1.3630  1.0292 -0.1220
10120TIP3   OH251774   5.821   5.415  14.044  0.0470  0.1107 -0.1647
10120TIP3    H151775   5.881   5.420  14.118  0.1202  2.0896 -0.2869
10120TIP3    H251776   5.854   5.480  13.982 -2.7004  2.0516  0.2005
10121TIP3   OH251777   0.464   4.437   1.733 -0.1212 -0.2804 -0.1371
10121TIP3    H151778   0.513   4.378   1.676  0.9820  0.8500 -0.3742
10121TIP3    H251779   0.397   4.381   1.772  1.9336 -2.1294  0.9586
10122TIP3   OH251780   5.424   5.838   2.196 -0.0346 -0.0895 -0.0801
10122TIP3    H151781   5.345   5.833   2.249  0.0252 -0.7013 -0.0447
10122TIP3    H251782   5.464   5.922   2.221  1.5019 -1.5686  3.0273
10123TIP3   OH251783   3.290   2.689   4.894  0.1638  0.2611  0.0353
10123TIP3    H151784   3.322   2.691   4.984  0.7879  0.7038 -0.1920
10123TIP3    H251785   3.362   2.723   4.842  0.2249 -1.0423 -0.7695
10124TIP3   OH251786   6.031   0.868   4.390  0.3148  0.0394  0.1109
10124TIP3    H151787   5.944   0.885   4.424  0.7856  1.4598  0.6744
10124TIP3    H251788   6.026   0.891   4.297 -0.3158 -1.4729 -0.2608
10125TIP3   OH251789   0.549   3.700   1.596  0.5663 -0.2849  0.4374
10125TIP3    H151790   0.578   3.707   1.504 -0.0385  0.5630  0.2943
10125TIP3    H251791   0.584   3.779   1.637 -0.5914  0.1959  0.5251
10126TIP3   OH251792   5.461   4.674  12.322 -0.1660 -0.1385  0.0083
10126TIP3    H151793   5.429   4.587  12.348  0.1868 -0.2634  0.0307
10126TIP3    H251794   5.546   4.657  12.280 -0.2977  0.1545 -0.3795
10127TIP3   OH251795   5.392   2.129  13.298  0.1423 -0.3517  1.1420
10127TIP3    H151796   5.469   2.113  13.243 -0.9975  0.4832 -0.8185
10127TIP3    H251797   5.337   2.052  13.285 -0.5236  0.2410  0.3760
10128TIP3   OH251798   6.220   5.550  16.329  0.7199 -0.7524  0.2548
10128TIP3    H151799   6.243   5.473  16.278 -1.8154 -0.2215 -1.8856
10128TIP3    H251800   6.200   5.617  16.264 -1.3726  0.3714  1.9232
10129TIP3   OH251801   0.661   2.917  10.909 -0.2122  0.2376 -0.5371
10129TIP3    H151802   0.584   2.870  10.875  0.8617 -0.5123 -2.0610
10129TIP3    H251803   0.686   2.975  10.838  0.6793  0.4086 -0.0947
10130TIP3   OH251804   5.269   1.102   2.820  0.6341 -0.7672 -0.1589
10130TIP3    H151805   5.297   1.150   2.898 -1.8504  0.5585 -0.0061
10130TIP3    H251806   5.296   1.157   2.747 -2.8184  1.4472  0.0291
10131TIP3   OH251807   3.053   6.444  12.645  0.0950  0.6064 -0.3910
10131TIP3    H151808   3.012   6.403  12.721  1.1460 -0.7489 -0.5148
10131TIP3    H251809   3.103   6.517  12.681  1.5669 -0.7462  0.4392
10132TIP3   OH251810   2.150   3.093   3.586 -0.0644  0.2032  0.0672
10132TIP3    H151811   2.122   3.018   3.533 -0.5052  0.0103  0.5689
10132TIP3    H251812   2.245   3.082   3.594  0.0780  0.4826 -1.0571
10133TIP3   OH251813   2.286   1.150  14.842  0.1198 -0.3050  0.2843
10133TIP3    H151814   2.362   1.115  14.889 -0.2360 -2.1222 -0.4244
10133TIP3    H251815   2.319   1.229  14.800  1.8670 -1.4143 -0.6015
10134TIP3   OH251816   0.345   0.640   2.858 -0.0723  0.4889  0.2579
10134TIP3    H151817   0.256   0.647   2.894 -0.0528  0.1739  0.3714
10134TIP3    H251818   0.337   0.671   2.768 -1.1091 -2.9539 -1.0139
10135TIP3   OH251819   0.386   0.733  12.579 -0.0865  0.0087 -0.2690
10135TIP3    H151820   0.389   0.784  12.498  0.2131  0.0943 -0.2015
10135TIP3    H251821   0.453   0.666  12.569 -0.6484 -0.5407 -0.4641
10136TIP3   OH251822   6.394   1.707   0.507  0.1602  0.0534 -0.4776
10136TIP3    H151823   6.456   1.701   0.581 -0.3493 -1.6445 -0.1562
10136TIP3    H251824   6.334   1.777   0.533 -0.0692 -0.5728  0.7920
10137TIP3   OH251825   4.279   5.242  13.410 -0.3467 -0.4758 -0.3736
10137TIP3    H151826   4.206   5.205  13.460 -0.0425  0.6747  0.9702
10137TIP3    H251827   4.237   5.276  13.331 -1.0536 -1.0307 -0.2596
10138TIP3   OH251828   1.306   5.007   2.169  0.1842 -0.0566 -0.6979
10138TIP3    H151829   1.326   5.099   2.150  0.9799 -0.2253 -0.7270
10138TIP3    H251830   1.309   4.964   2.084  3.2468 -0.7186 -0.4043
10139TIP3   OH251831   3.393   0.667   5.633  0.4462  0.3135 -0.1015
10139TIP3    H151832   3.360   0.597   5.576  1.1067 -0.0437 -0.0490
10139TIP3    H251833   3.336   0.663   5.710  0.8006 -0.5204  0.1339
10140TIP3   OH251834   5.843   2.419   0.954  0.3866  0.2732  0.3601
10140TIP3    H151835   5.877   2.481   0.890  0.3831  2.2178  2.1463
10140TIP3    H251836   5.916   2.405   1.015  0.0191 -0.6082  0.6246
10141TIP3   OH251837   4.549   1.942  15.648  0.1505  0.2528 -0.4546
10141TIP3    H151838   4.467   1.902  15.676  0.3142  0.2982  0.0901
10141TIP3    H251839   4.574   1.892  15.570 -0.2609  0.0755 -0.4760
10142TIP3   OH251840   0.241   1.685   4.299  0.2442  0.4766 -0.7599
10142TIP3    H151841   0.237   1.663   4.392 -0.0805  1.1858 -0.5965
10142TIP3    H251842   0.172   1.633   4.258 -1.4509  2.1194 -0.1685
10143TIP3   OH251843   2.630   3.894  14.495 -0.2109  0.0973  0.2549
10143TIP3    H151844   2.554   3.949  14.516  0.3777  0.8599  0.4485
10143TIP3    H251845   2.605   3.806  14.523 -0.3894  0.6369  1.8667
10144TIP3   OH251846   5.126   0.621  12.781  0.4433  0.7710 -0.1183
10144TIP3    H151847   5.211   0.591  12.750 -1.3205 -3.3724 -1.5873
10144TIP3    H251848   5.078   0.646  12.702 -0.6146  0.4121  0.3899
10145TIP3   OH251849   3.163   2.022   5.584 -0.7833  0.2509  0.1420
10145TIP3    H151850   3.183   1.974   5.503  0.6239  2.0574 -0.6685
10145TIP3    H251851   3.108   2.095   5.555 -1.1313  0.3331  0.9867
10146TIP3   OH251852   5.098   3.343  16.208  0.4609 -0.1174 -0.3467
10146TIP3    H151853   5.127   3.264  16.163 -0.7995 -1.0382  0.4103
10146TIP3    H251854   5.154   3.349  16.285 -1.2392 -1.9161  1.1379
10147TIP3   OH251855   1.686   1.679   4.707 -0.2351  0.3087  0.2005
10147TIP3    H151856   1.647   1.718   4.628  0.0407  0.1531 -0.0176
10147TIP3    H251857   1.616   1.629   4.747 -0.4597  0.6305  0.2119
10148TIP3   OH251858   4.861   1.092  11.128 -0.2017 -0.1829  0.7638
10148TIP3    H151859   4.887   1.009  11.166  0.5316 -0.7107 -0.7976
10148TIP3    H251860   4.874   1.156  11.198  1.3823 -1.0584  1.3236
10149TIP3   OH251861   3.325   4.939  11.570 -0.0193  0.3781 -0.4127
10149TIP3    H151862   3.333   4.898  11.656 -0.4273 -0.7620 -0.8982
10149TIP3    H251863   3.345   4.869  11.508  0.5634  1.2606 -1.2489
10150TIP3   OH251864   3.319   4.903   0.736  0.1295 -0.3865  0.4152
10150TIP3    H151865   3.271   4.867   0.810 -1.8357 -1.7780 -1.3770
10150TIP3    H251866   3.365   4.828   0.698 -1.9285 -0.6265 -1.8657
10151TIP3   OH251867   2.932   4.760  14.861 -0.1432  0.0637 -0.3917
10151TIP3    H151868   2.901   4.760  14.771  0.9814  2.6089 -0.8706
10151TIP3    H251869   3.016   4.713  14.858 -0.8868 -1.3244 -0.2962
10152TIP3   OH251870   1.548   6.150   3.203 -0.1182  0.1977  0.0087
10152TIP3    H151871   1.540   6.202   3.282 -1.2691  1.2816 -0.7749
10152TIP3    H251872   1.468   6.169   3.154  0.2706 -0.9347 -1.1234
10153TIP3   OH251873   3.026   2.256   0.973  0.7825  0.5794 -0.2216
10153TIP3    H151874   3.099   2.195   0.989  0.7885  0.4636 -0.6717
10153TIP3    H251875   3.046   2.332   1.028  2.1794  1.2948 -1.6267
10154TIP3   OH251876   4.142   5.117   0.040 -0.2768 -0.2154 -0.2010
10154TIP3    H151877   4.119   5.199  -0.004  1.5440  0.2427 -0.4081
10154TIP3    H251878   4.182   5.145   0.123  1.7759 -0.7512 -0.9375
10155TIP3   OH251879   5.227   0.357  11.571  0.3850 -0.2625 -0.5977
10155TIP3    H151880   5.323   0.355  11.574  0.3630 -0.1274  1.5847
10155TIP3    H251881   5.207   0.389  11.483  2.3527  0.4154 -0.8532
10156TIP3   OH251882   0.852   6.208   4.713  0.2760  0.7171 -0.1119
10156TIP3    H151883   0.759   6.227   4.698 -0.1305 -1.8235 -1.4043
10156TIP3    H251884   0.888   6.193   4.626  1.0454 -1.7045  0.5573
10157TIP3   OH251885   5.321   0.817   2.139  0.1089 -0.1949 -0.3716
10157TIP3    H151886   5.312   0.892   2.081  2.2415  0.0516 -0.4285
10157TIP3    H251887   5.405   0.829   2.183 -0.6258 -1.2827  1.4759
10158TIP3   OH251888   0.912   5.195  15.741  0.3832 -0.9469 -0.6123
10158TIP3    H151889   0.897   5.286  15.716  0.8013 -0.1222  1.9235
10158TIP3    H251890   1.004   5.179  15.721  0.8857 -0.0936  0.9006
10159TIP3   OH251891   4.797   0.428   4.189  0.5525 -0.2638 -0.1739
10159TIP3    H151892   4.753   0.430   4.104 -0.0636  0.6460  0.1434
10159TIP3    H251893   4.793   0.337   4.217  1.1358 -0.6556 -1.3021
10160TIP3   OH251894   2.856   2.444   0.415 -0.4754  0.8221 -0.2299
10160TIP3    H151895   2.900   2.416   0.496 -1.1768 -0.5587 -0.2840
10160TIP3    H251896   2.786   2.502   0.445  0.2497  1.5973  0.0037
10161TIP3   OH251897   4.692   4.238  14.894 -0.0164  0.0661  1.2748
10161TIP3    H151898   4.739   4.316  14.866 -0.8050 -0.3513 -1.5193
10161TIP3    H251899   4.661   4.258  14.983  1.2415  2.2053  1.2886
10162TIP3   OH251900   4.980   1.250  10.946  0.3321  0.1282 -0.7484
10162TIP3    H151901   4.952   1.201  11.023 -1.4297 -0.1643 -1.5144
10162TIP3    H251902   5.037   1.189  10.898 -0.9067 -0.8061 -1.1072
10163TIP3   OH251903   5.633   5.573  13.489 -0.7051 -0.0436 -0.0141
10163TIP3    H151904   5.728   5.581  13.498 -0.7251  1.2242 -0.6811
10163TIP3    H251905   5.598   5.646  13.541 -1.2317  0.6545 -1.3222
10164TIP3   OH251906   4.883   2.596   1.574  0.0229 -0.5755 -0.1989
10164TIP3    H151907   4.817   2.606   1.506  0.6306 -2.2279 -1.0729
10164TIP3    H251908   4.900   2.686   1.604 -1.2727  0.0392 -1.2295
10165TIP3   OH251909   6.612   1.517   3.445  0.1840 -0.2040 -0.0714
10165TIP3    H151910   6.695   1.493   3.404  0.4168  0.9308 -0.2998
10165TIP3    H251911   6.637   1.569   3.521 -0.3115  0.3378 -0.2655
10166TIP3   OH251912   2.746   3.585  11.101 -0.3579 -0.4948 -0.1488
10166TIP3    H151913   2.678   3.642  11.066  0.8010  1.1012  0.0893
10166TIP3    H251914   2.826   3.613  11.058  0.2586 -1.9541 -0.0046
10167TIP3   OH251915   5.879   0.566   4.143  0.5536 -0.2879 -0.3296
10167TIP3    H151916   5.951   0.572   4.080  1.1698 -0.4564  0.3557
10167TIP3    H251917   5.885   0.477   4.178 -1.2973 -1.0676 -1.7957
10168TIP3   OH251918   2.424   6.454   4.567  0.1340 -0.2188  1.0385
10168TIP3    H151919   2.430   6.546   4.542 -0.6366 -0.4956 -0.3145
10168TIP3    H251920   2.364   6.453   4.641 -2.2483  0.1528 -0.7490
10169TIP3   OH251921   0.914   2.114  17.268  0.2422 -0.0314 -0.7509
10169TIP3    H151922   0.967   2.043  17.232  1.5390 -0.4792  1.8019
10169TIP3    H251923   0.952   2.193  17.230  1.6975 -0.4573 -0.2630
10170TIP3   OH251924   4.691   6.496  15.829 -0.3070  0.2691  0.5305
10170TIP3    H151925   4.689   6.418  15.884 -2.6635  0.1781  0.4292
10170TIP3    H251926   4.719   6.567  15.887  2.0796 -0.6300  0.5688
10171TIP3   OH251927   6.404   1.762  14.807 -0.7219 -0.1762 -0.3370
10171TIP3    H151928   6.395   1.845  14.760 -2.5872 -0.2662 -0.1927
10171TIP3    H251929   6.474   1.716  14.760  1.1775  1.9107  0.2746
10172TIP3   OH251930   2.438   3.687   0.331 -0.2486 -0.0452  0.4204
10172TIP3    H151931   2.416   3.604   0.288 -0.8143  0.4551 -0.2967
10172TIP3    H251932   2.527   3.705   0.303 -0.9798  0.8371 -1.5422
10173TIP3   OH251933   1.916   1.890  14.442 -0.9035 -0.8637 -0.0484
10173TIP3    H151934   1.973   1.901  14.518 -1.0525 -0.0562 -0.0423
10173TIP3    H251935   1.963   1.828  14.386  0.7249  0.9028 -0.7231
10174TIP3   OH251936   2.047   4.133  17.244 -0.1041 -0.3650  0.2296
10174TIP3    H151937   2.020   4.046  17.213  0.2576 -0.3696 -0.0847
10174TIP3    H251938   2.027   4.191  17.171 -0.3696 -0.1783  0.4499
10175TIP3   OH251939   2.098   1.086  17.004  0.0521  0.2921  0.2485
10175TIP3    H151940   2.013   1.121  16.980 -0.2256 -0.5367 -0.0163
10175TIP3    H251941   2.098   1.086  17.100 -0.2922  0.2040  0.2507
10176TIP3   OH251942   4.200   2.324   5.446 -0.1052 -0.4899 -0.2297
10176TIP3    H151943   4.202   2.319   5.351 -0.1828 -2.0543 -0.1697
10176TIP3    H251944   4.107   2.325   5.469 -0.1178 -1.7151 -0.1362
10177TIP3   OH251945   3.700   5.697  14.410 -0.9677  0.1146 -0.3409
10177TIP3    H151946   3.607   5.716  14.398 -1.1844 -0.4956  0.2972
10177TIP3    H251947   3.710   5.682  14.504 -0.3493 -0.4587 -0.4870
10178TIP3   OH251948   5.387   0.674  15.818 -0.0171 -0.0809 -0.0133
10178TIP3    H151949   5.409   0.764  15.841 -0.6863 -0.1635  1.0417
10178TIP3    H251950   5.365   0.633  15.902 -2.2368 -0.5323 -0.7487
10179TIP3   OH251951   0.656   5.859   1.694 -0.1761  0.1740  0.4056
10179TIP3    H151952   0.644   5.905   1.611  1.3044 -1.5411 -0.8560
10179TIP3    H251953   0.574   5.812   1.707  0.3132 -1.2695 -1.2977
10180TIP3   OH251954   5.029   5.724  14.711  0.3332 -0.5740 -0.5702
10180TIP3    H151955   4.996   5.658  14.651  0.7859  0.9022 -2.5415
10180TIP3    H251956   4.951   5.760  14.753 -0.1102 -0.6986 -1.2828
10181TIP3   OH251957   0.610   6.328  11.535 -0.2357  0.2571  0.2873
10181TIP3    H151958   0.633   6.264  11.468  0.7190 -0.6568  1.4262
10181TIP3    H251959   0.519   6.351  11.516 -0.1827 -0.4509 -0.9295
10182TIP3   OH251960   5.617   2.248  11.772 -0.1880  0.6472 -0.1459
10182TIP3    H151961   5.558   2.291  11.710 -1.9626 -1.7726 -0.2981
10182TIP3    H251962   5.617   2.156  11.744 -0.4540 -0.4024  2.9645
10183TIP3   OH251963   0.134   6.307  10.902 -0.0202  0.2410 -0.0298
10183TIP3    H151964   0.151   6.366  10.828 -0.5675 -0.0154 -0.3642
10183TIP3    H251965   0.038   6.309  10.912 -0.0793 -0.8808 -0.2820
10184TIP3   OH251966   3.838   4.667   5.932 -0.1939 -0.1696  0.2860
10184TIP3    H151967   3.891   4.730   5.884 -0.7816 -1.3223 -2.0540
10184TIP3    H251968   3.897   4.632   5.999  1.4755 -0.1436 -1.0854
10185TIP3   OH251969   6.340   6.262   2.475  0.9031  0.2187  0.5269
10185TIP3    H151970   6.422   6.222   2.447  1.0786 -0.8230  2.3712
10185TIP3    H251971   6.274   6.194   2.460  1.4194 -1.6483  5.0900
10186TIP3   OH251972   3.520   6.265   0.678  0.2349 -0.5834 -0.2698
10186TIP3    H151973   3.558   6.195   0.732  1.5458  1.2587  1.3290
10186TIP3    H251974   3.427   6.265   0.702  0.9158  0.7757  2.8583
10187TIP3   OH251975   1.045   0.241  13.236  0.3738  0.4206  0.1915
10187TIP3    H151976   1.046   0.241  13.332  0.7677 -0.0916  0.1915
10187TIP3    H251977   1.007   0.156  13.213  0.4748  0.4563 -0.1068
10188TIP3   OH251978   2.585   3.757  15.320  0.7727  0.0730  0.0820
10188TIP3    H151979   2.578   3.670  15.357  0.3359  0.2040  0.3114
10188TIP3    H251980   2.652   3.749  15.251 -0.0214 -0.6820 -0.6152
10189TIP3   OH251981   4.761   2.616   4.822 -0.0355 -0.4648  0.5261
10189TIP3    H151982   4.819   2.685   4.790 -0.1014  0.1302  1.6390
10189TIP3    H251983   4.673   2.644   4.795 -0.1249  0.1912  1.4819
10190TIP3   OH251984   0.486   2.341   1.541 -0.2785 -0.2572 -0.1234
10190TIP3    H151985   0.537   2.415   1.508 -0.5536 -0.2540 -0.5522
10190TIP3    H251986   0.395   2.365   1.522 -0.3215 -1.1210 -1.1313
10191TIP3   OH251987   1.812   1.006  15.695  0.2051  0.1334  0.4413
10191TIP3    H151988   1.722   0.974  15.685  1.3520 -3.0446 -1.3178
10191TIP3    H251989   1.806   1.075  15.760 -3.6935  0.9719 -0.5507
10192TIP3   OH251990   6.394   0.763   1.768 -0.0721  0.2393 -0.0037
10192TIP3    H151991   6.468   0.702   1.764  0.3130  0.6976 -0.0276
10192TIP3    H251992   6.348   0.739   1.849  1.4870  1.4701  1.3315
10193TIP3   OH251993   4.323   0.520  12.767 -0.0619 -0.3911  0.2780
10193TIP3    H151994   4.248   0.517  12.827  0.7342  1.8121  1.4960
10193TIP3    H251995   4.399   0.503  12.822  0.6493  1.2546 -0.1438
10194TIP3   OH251996   4.414   0.622   5.805  0.4265 -0.5166 -0.0307
10194TIP3    H151997   4.488   0.638   5.864 -1.5796  1.4354  2.1641
10194TIP3    H251998   4.370   0.546   5.843 -1.7226  1.6271  2.1187
10195TIP3   OH251999   6.010   5.920  11.832 -0.6534 -0.4239 -0.1637
10195TIP3    H152000   6.027   5.979  11.905 -2.8592  0.1639 -0.0695
10195TIP3    H252001   5.994   5.978  11.757  2.2403 -1.0109 -1.3815
10196TIP3   OH252002   0.121   2.807   3.552  0.0953 -0.4453  0.1918
10196TIP3    H152003   0.122   2.845   3.464 -1.1562 -2.1503 -0.6289
10196TIP3    H252004   0.125   2.883   3.611  0.4111  0.7717 -1.3210
10197TIP3   OH252005   0.244   3.777   3.389  0.2716  0.6547 -0.4291
10197TIP3    H152006   0.169   3.723   3.415  1.7341 -0.9759  0.7169
10197TIP3    H252007   0.268   3.744   3.302  1.1346 -0.6428  0.2495
10198TIP3   OH252008   3.856   4.083  16.070  0.3616  0.0411  0.9419
10198TIP3    H152009   3.916   4.062  16.142  0.2559 -1.5797  0.5956
10198TIP3    H252010   3.779   4.029  16.087  0.6351 -0.9644 -0.7735
10199TIP3   OH252011   0.242   4.130  13.776 -0.5110 -0.3548 -0.0912
10199TIP3    H152012   0.297   4.093  13.707 -0.8509 -1.6565  0.2993
10199TIP3    H252013   0.206   4.054  13.822  0.5166  0.4212  2.1905
10200TIP3   OH252014   1.476   2.292   1.006 -0.1684  0.1230  0.1107
10200TIP3    H152015   1.564   2.323   0.984 -0.5951  1.2294 -0.0553
10200TIP3    H252016   1.491   2.224   1.072  0.7264  1.4483  1.3283
10201TIP3   OH252017   6.342   5.305  11.443 -0.3712  0.0693 -0.3458
10201TIP3    H152018   6.382   5.391  11.427  0.2291 -0.2301 -0.4918
10201TIP3    H252019   6.378   5.250  11.373 -0.6455 -0.3344 -0.1657
10202TIP3   OH252020   5.625   4.537  12.123 -0.6234 -0.1274  0.1411
10202TIP3    H152021   5.629   4.442  12.117 -0.5833 -0.1882  0.9963
10202TIP3    H252022   5.712   4.563  12.153 -0.3013  0.2756 -1.0815
10203TIP3   OH252023   2.198   2.109   5.815  0.2747 -0.2594 -0.6979
10203TIP3    H152024   2.189   2.185   5.758 -1.9091 -0.5052 -0.7873
10203TIP3    H252025   2.230   2.039   5.759 -0.6691 -0.1729 -1.3678
10204TIP3   OH252026   0.492   1.730   5.793  0.3197  0.3723  0.0884
10204TIP3    H152027   0.467   1.653   5.844 -1.5560  1.2987  0.6369
10204TIP3    H252028   0.541   1.785   5.855 -0.8916  0.9324  0.5821
10205TIP3   OH252029   0.216   6.677  12.105  0.4966  0.2904 -0.0006
10205TIP3    H152030   0.137   6.730  12.090  1.9506  2.3743 -0.7595
10205TIP3    H252031   0.203   6.600  12.051 -1.6754 -0.2119  1.0817
10206TIP3   OH252032   3.851   3.019   2.731  0.3769  0.5331  0.2555
10206TIP3    H152033   3.811   3.106   2.736  0.0165  0.3401  0.7509
10206TIP3    H252034   3.847   2.986   2.820  0.6199  0.0493  0.0888
10207TIP3   OH252035   5.158   5.186   4.902  0.1365  0.3363 -0.2403
10207TIP3    H152036   5.203   5.222   4.978  0.2968  2.0936 -1.0893
10207TIP3    H252037   5.067   5.214   4.913 -0.0353 -0.2122 -0.2408
10208TIP3   OH252038   0.283   2.914   1.569 -0.5305 -0.5773 -0.4051
10208TIP3    H152039   0.355   2.903   1.631 -0.5977 -0.0921 -0.2329
10208TIP3    H252040   0.249   2.825   1.555 -1.3909 -0.5770  1.3226
10209TIP3   OH252041   0.752   6.419   0.609  0.4163 -0.0806 -0.0705
10209TIP3    H152042   0.790   6.384   0.690 -0.7038  0.0917  0.5488
10209TIP3    H252043   0.819   6.479   0.576  0.8527 -0.0758  0.7878
10210TIP3   OH252044   2.243   0.172  12.568  0.4240  0.4872  0.3689
10210TIP3    H152045   2.178   0.224  12.616 -1.1179 -0.2289 -0.8491
10210TIP3    H252046   2.232   0.199  12.477 -0.9570 -2.4457 -0.4262
10211TIP3   OH252047   0.851   3.641   5.416  0.1706 -0.1447  0.2284
10211TIP3    H152048   0.827   3.657   5.507 -1.7536 -0.2935 -0.2143
10211TIP3    H252049   0.934   3.594   5.421  1.2372  1.7348  1.8134
10212TIP3   OH252050   1.430   0.296   2.247 -0.4509 -0.6091 -0.2401
10212TIP3    H152051   1.425   0.314   2.153 -1.0021 -0.4664 -0.1893
10212TIP3    H252052   1.423   0.201   2.255  0.8081 -0.7385 -0.4089
10213TIP3   OH252053   3.258   3.262   1.978  0.4608 -0.1280  0.5078
10213TIP3    H152054   3.289   3.217   2.056 -0.7765 -1.0195  0.5279
10213TIP3    H252055   3.168   3.288   1.999  0.0592 -0.4904 -0.6319
10214TIP3   OH252056   0.730   2.900  12.467  0.0340  0.3835  0.0393
10214TIP3    H152057   0.717   2.965  12.537  0.1706  2.4044 -1.7165
10214TIP3    H252058   0.642   2.885  12.432 -0.0378 -0.6474  0.6145
10215TIP3   OH252059   4.955   0.541   6.104 -0.5522 -0.5846 -0.4515
10215TIP3    H152060   4.888   0.610   6.103  0.7316  0.7047 -0.5454
10215TIP3    H252061   4.997   0.551   6.189 -1.0189 -1.9528 -0.0399
10216TIP3   OH252062   3.730   5.864  13.400 -0.2612 -0.4657  0.0480
10216TIP3    H152063   3.812   5.856  13.352 -0.1819 -0.3152  0.1569
10216TIP3    H252064   3.751   5.842  13.490  0.2874  2.1883  0.6577
10217TIP3   OH252065   4.961   3.839   2.020 -0.0171  0.0179  0.5401
10217TIP3    H152066   4.878   3.791   2.032 -0.9495  1.8206  1.6396
10217TIP3    H252067   4.944   3.897   1.946  0.4654 -0.0219  0.3976
10218TIP3   OH252068   3.144   4.816  15.178 -0.1886 -0.0209  0.1501
10218TIP3    H152069   3.217   4.797  15.237 -0.1386 -1.3729 -0.3268
10218TIP3    H252070   3.112   4.731  15.151 -1.6596  0.5626 -0.0192
10219TIP3   OH252071   4.587   2.854   2.717  0.0844  0.2843  0.2690
10219TIP3    H152072   4.668   2.904   2.715  0.0955  0.2544 -0.6155
10219TIP3    H252073   4.585   2.809   2.632 -1.1133  0.7053  0.0496
10220TIP3   OH252074   2.631   1.045   0.522  0.3450  0.5024 -0.8483
10220TIP3    H152075   2.606   0.953   0.531 -1.8783  1.0702 -0.5740
10220TIP3    H252076   2.716   1.052   0.565 -0.1575 -1.1375  0.4696
10221TIP3   OH252077   6.472   3.463   0.925  0.3175  0.1304  0.1254
10221TIP3    H152078   6.386   3.474   0.965  0.5914 -0.0426  0.7782
10221TIP3    H252079   6.532   3.507   0.984  0.5951  0.9461 -0.7372
10222TIP3   OH252080   4.411   4.964  12.527 -0.5224 -0.4266  0.2997
10222TIP3    H152081   4.447   5.042  12.569  0.0514  0.1180 -1.1536
10222TIP3    H252082   4.484   4.903  12.524 -0.2260 -0.0332 -0.9196
10223TIP3   OH252083   3.203   1.492  10.590  0.6880  0.0862 -0.0359
10223TIP3    H152084   3.194   1.577  10.635 -1.0897  0.0530 -0.2347
10223TIP3    H252085   3.183   1.512  10.498  1.2243 -0.3884 -0.2589
10224TIP3   OH252086   0.204   0.873  15.225  0.2034 -0.0707  0.2944
10224TIP3    H152087   0.254   0.794  15.243 -1.5305 -0.7647  2.3650
10224TIP3    H252088   0.190   0.913  15.311 -2.8951 -0.0025 -0.1472
10225TIP3   OH252089   2.001   1.898  15.252 -0.0982  0.3390  0.5960
10225TIP3    H152090   1.948   1.978  15.253  0.8694  1.0380 -0.7997
10225TIP3    H252091   1.990   1.860  15.340 -2.5692  0.6556  0.4806
10226TIP3   OH252092   0.190   5.674   1.810  0.4797  0.3731 -0.4590
10226TIP3    H152093   0.262   5.635   1.762  1.1722  0.7247  0.2641
10226TIP3    H252094   0.123   5.606   1.813  1.6818 -0.8100  0.8265
10227TIP3   OH252095   6.274   3.729  13.130 -0.0034  0.4209 -0.0941
10227TIP3    H152096   6.287   3.634  13.139  3.2505  0.6512 -0.8943
10227TIP3    H252097   6.304   3.765  13.213  0.3433  0.8289 -0.3930
10228TIP3   OH252098   3.658   5.657   0.620 -0.4916 -0.0472  0.0076
10228TIP3    H152099   3.721   5.612   0.676 -1.0681 -4.4742 -2.4208
10228TIP3    H252100   3.574   5.649   0.666 -0.6164 -1.8223 -0.4608
10229TIP3   OH252101   4.733   1.602  13.414 -0.1730 -0.2242  0.3504
10229TIP3    H152102   4.789   1.631  13.486  0.7263  3.0454 -1.4514
10229TIP3    H252103   4.651   1.650  13.426 -1.2119 -2.0541  0.8528
10230TIP3   OH252104   2.051   3.026  16.289 -0.2023 -0.2560  0.5638
10230TIP3    H152105   2.099   2.971  16.227 -0.6295 -0.4056  0.3621
10230TIP3    H252106   1.997   2.965  16.338  0.3103 -0.1656  1.2546
10231TIP3   OH252107   2.845   4.563   2.192 -0.6605  0.6884 -0.3312
10231TIP3    H152108   2.806   4.484   2.155 -0.7725  1.0498 -0.9920
10231TIP3    H252109   2.875   4.536   2.279 -3.6113  0.7047  0.8147
10232TIP3   OH252110   0.655   6.238   2.217 -0.0683 -0.0273 -1.3343
10232TIP3    H152111   0.652   6.219   2.310  1.0933 -0.4787 -1.3665
10232TIP3    H252112   0.565   6.230   2.187 -0.5916  1.0230 -0.0878
10233TIP3   OH252113   5.259   3.329  12.844  0.0024  0.2885 -0.1643
10233TIP3    H152114   5.310   3.252  12.821  0.5050  0.5821 -0.0469
10233TIP3    H252115   5.191   3.295  12.903  0.9012  0.1015  0.7900
10234TIP3   OH252116   4.077   0.568   2.614  0.3924  0.1713 -0.7693
10234TIP3    H152117   4.162   0.556   2.572  0.0421  0.2754 -1.5194
10234TIP3    H252118   4.062   0.486   2.661 -0.0666 -0.7372 -2.4118
10235TIP3   OH252119   2.455   2.829   1.783 -0.2481 -0.0227  0.1915
10235TIP3    H152120   2.429   2.912   1.823  0.5579 -0.0926  0.8829
10235TIP3    H252121   2.540   2.809   1.822 -1.2087 -2.0723  1.4154
10236TIP3   OH252122   1.165   1.271   0.145  0.1678 -0.7533  0.2108
10236TIP3    H152123   1.182   1.208   0.075  2.8828  1.0604 -0.9501
10236TIP3    H252124   1.192   1.225   0.225 -1.4180 -2.2722 -0.0645
10237TIP3   OH252125   5.341   2.809   1.792  0.0142 -0.6730  0.4526
10237TIP3    H152126   5.416   2.781   1.844 -0.9508  0.6159  2.6951
10237TIP3    H252127   5.282   2.850   1.855 -1.5230  0.4757 -1.6027
10238TIP3   OH252128   4.380   0.916   5.165  0.0901  0.1792  0.7745
10238TIP3    H152129   4.393   0.976   5.239  0.4251 -2.2454  2.8439
10238TIP3    H252130   4.452   0.853   5.173 -0.9466 -1.2422 -0.4996
10239TIP3   OH252131   3.864   2.536  12.171 -0.3270 -0.3876 -0.2006
10239TIP3    H152132   3.808   2.461  12.190 -1.9255  0.2988 -1.8500
10239TIP3    H252133   3.804   2.602  12.137  1.2464  1.1195 -0.1845
10240TIP3   OH252134   0.098   2.886   0.271  0.2614 -0.1653  0.3659
10240TIP3    H152135   0.119   2.979   0.278  0.5149 -0.2081  0.1866
10240TIP3    H252136   0.134   2.847   0.351 -0.3196 -0.0251  0.7007
10241TIP3   OH252137   6.597   0.215  12.297 -0.0125  0.1727 -0.3847
10241TIP3    H152138   6.515   0.191  12.255 -0.8969  2.6491 -0.2122
10241TIP3    H252139   6.592   0.176  12.384 -1.2212  0.6904 -0.2149
10242TIP3   OH252140   0.015   0.501  14.213  0.1963 -0.5305 -0.3078
10242TIP3    H152141   0.042   0.554  14.288 -2.5194  1.0355 -0.3227
10242TIP3    H252142   0.069   0.422  14.220  1.9778  0.7323  1.6789
10243TIP3   OH252143   5.246   2.759   4.503 -0.2091  0.4153  0.7071
10243TIP3    H152144   5.205   2.845   4.509 -0.9451  0.0143  1.5447
10243TIP3    H252145   5.301   2.765   4.424 -1.7159  1.0263 -0.3490
10244TIP3   OH252146   5.625   5.218  15.084  0.2155 -0.1161  0.6927
10244TIP3    H152147   5.679   5.193  15.009 -0.3663 -0.6702  0.4540
10244TIP3    H252148   5.577   5.139  15.106 -1.3248  0.6509  0.2211
10245TIP3   OH252149   3.213   2.883   0.595  0.3767  0.0598 -0.3232
10245TIP3    H152150   3.288   2.901   0.537  0.0058  1.1337 -0.4829
10245TIP3    H252151   3.203   2.963   0.647 -1.1386  0.2252 -0.8323
10246TIP3   OH252152   6.291   3.097  15.242 -0.6228 -0.0408 -0.4139
10246TIP3    H152153   6.340   3.097  15.324 -1.3852  1.9886  0.0968
10246TIP3    H252154   6.242   3.179  15.243 -2.0386 -0.7992 -2.0908
10247TIP3   OH252155   3.205   3.648   3.647  0.0944  0.0648 -0.4215
10247TIP3    H152156   3.227   3.570   3.596  0.4156  0.4774 -0.9233
10247TIP3    H252157   3.134   3.619   3.705  1.4051 -1.0746  0.6846
10248TIP3   OH252158   1.137   1.691  15.214 -0.1779  0.3157 -0.3210
10248TIP3    H152159   1.155   1.639  15.293  0.9387  0.3141 -0.5744
10248TIP3    H252160   1.170   1.778  15.235 -1.2089  0.7075 -0.2503
10249TIP3   OH252161   4.175   3.295  12.220 -0.2528  0.2562  0.0961
10249TIP3    H152162   4.211   3.384  12.215  0.9085 -0.2411 -1.0024
10249TIP3    H252163   4.154   3.272  12.130  1.5176 -1.3527  0.0100
10250TIP3   OH252164   5.749   2.132  17.248 -0.1165  0.0581  0.1430
10250TIP3    H152165   5.687   2.114  17.178  0.2387 -1.5422  0.1986
10250TIP3    H252166   5.695   2.135  17.327 -0.1187 -1.7386  0.2464
10251TIP3   OH252167   5.631   0.025  16.116 -0.4515 -0.5918 -0.0685
10251TIP3    H152168   5.577  -0.016  16.048  0.0721  0.2846 -1.0463
10251TIP3    H252169   5.584   0.106  16.137  0.2676 -0.0098 -0.6534
10252TIP3   OH252170   6.048   1.557   1.035  0.3199  0.5664 -0.0054
10252TIP3    H152171   5.969   1.516   1.072  1.0550 -0.6752  0.2386
10252TIP3    H252172   6.015   1.636   0.990 -0.7700  1.4043  2.1167
10253TIP3   OH252173   5.817   5.137   3.581  0.3849  0.8277 -0.1554
10253TIP3    H152174   5.759   5.193   3.528  0.0841  0.4962 -0.1779
10253TIP3    H252175   5.816   5.176   3.668 -2.1964 -0.8031  0.6520
10254TIP3   OH252176   0.906   3.885   0.969  0.3604 -0.2436 -0.1645
10254TIP3    H152177   0.965   3.877   1.044  0.2898 -0.1040 -0.0949
10254TIP3    H252178   0.823   3.913   1.006 -0.0843 -1.5305 -0.1182
10255TIP3   OH252179   0.734   0.663   2.290 -0.4306  0.0982  0.0391
10255TIP3    H152180   0.729   0.758   2.276 -1.8709  0.1867  0.9239
10255TIP3    H252181   0.666   0.627   2.233 -1.4343 -0.1733  1.3608
10256TIP3   OH252182   5.604   3.274   2.431  0.2796  0.2189  0.2829
10256TIP3    H152183   5.625   3.360   2.467 -0.4769  0.4519  0.1777
10256TIP3    H252184   5.616   3.213   2.504 -0.9715  0.6490  0.8758
10257TIP3   OH252185   5.474   5.701  12.697  1.0774  0.0175 -0.0334
10257TIP3    H152186   5.550   5.753  12.723  0.0102  1.1127  0.9909
10257TIP3    H252187   5.432   5.676  12.779 -0.4829  0.6951 -0.5822
10258TIP3   OH252188   3.491   3.460  14.120 -0.0625 -0.2987  0.1991
10258TIP3    H152189   3.561   3.436  14.059 -0.2656  1.1752 -0.6697
10258TIP3    H252190   3.526   3.536  14.167 -0.9804  0.3206 -0.0909
10259TIP3   OH252191   5.700   5.409   5.376  0.1076 -0.1757  0.6740
10259TIP3    H152192   5.737   5.490   5.410 -0.9559  0.0097  1.4374
10259TIP3    H252193   5.769   5.372   5.322  0.3645  1.5885 -0.2711
10260TIP3   OH252194   1.991   0.341  15.891 -0.0353  0.1859 -0.0651
10260TIP3    H152195   1.919   0.341  15.955 -0.8467 -1.7618 -0.8864
10260TIP3    H252196   1.951   0.373  15.811  0.0208 -0.7845 -0.4937
10261TIP3   OH252197   4.056   2.991  16.231  0.4120 -0.4954  0.0731
10261TIP3    H152198   4.057   2.983  16.135 -0.8856  1.0356 -0.1325
10261TIP3    H252199   4.011   2.913  16.262 -0.1326 -0.4926 -0.6793
10262TIP3   OH252200   1.154   4.540  15.544  0.2141 -0.5425  0.2194
10262TIP3    H152201   1.091   4.598  15.587  0.3173 -0.5839  0.4309
10262TIP3    H252202   1.136   4.454  15.581  0.2410 -0.5967  0.1065
10263TIP3   OH252203   4.366   2.411   2.509  1.3264  0.2785 -0.0720
10263TIP3    H152204   4.337   2.452   2.591 -0.4184 -1.5499  0.3117
10263TIP3    H252205   4.290   2.416   2.451  2.7087  2.0461 -1.8780
10264TIP3   OH252206   4.115   1.220   5.359 -0.1815 -0.0613  0.6379
10264TIP3    H152207   4.049   1.153   5.374  0.0966 -0.3574  0.5537
10264TIP3    H252208   4.110   1.239   5.265 -0.0128 -0.2248  0.5962
10265TIP3   OH252209   2.411   4.224   3.057 -0.1904  0.2715  0.6174
10265TIP3    H152210   2.436   4.191   2.970  2.3047  0.1085  1.3147
10265TIP3    H252211   2.395   4.145   3.109 -1.6349  0.3690  0.3751
10266TIP3   OH252212   4.772   3.542   3.403  0.0534  0.5580 -0.2607
10266TIP3    H152213   4.832   3.477   3.438  0.9869  1.9568  0.8224
10266TIP3    H252214   4.795   3.549   3.310  0.9840  0.4509 -0.0446
10267TIP3   OH252215   3.748   5.555   1.598  0.5001 -0.1832  0.1228
10267TIP3    H152216   3.763   5.650   1.601  0.5104 -0.1786 -0.0401
10267TIP3    H252217   3.705   5.535   1.681 -1.7569  0.3596 -0.8611
10268TIP3   OH252218   0.803   6.086   5.810  0.1090 -1.1887 -0.0897
10268TIP3    H152219   0.869   6.128   5.755 -0.7166  0.7553  0.3160
10268TIP3    H252220   0.755   6.159   5.849 -1.9020 -2.5271  0.0804
10269TIP3   OH252221   4.321   3.410   3.020  0.3934 -0.0103  0.4489
10269TIP3    H152222   4.292   3.434   3.108  1.0377  0.0526  0.6512
10269TIP3    H252223   4.416   3.400   3.028  0.1118 -3.7394  0.6685
10270TIP3   OH252224   1.358   0.395   2.664 -0.2397 -0.0989 -0.6856
10270TIP3    H152225   1.433   0.366   2.612 -0.5908 -1.3181 -0.5338
10270TIP3    H252226   1.334   0.319   2.717  0.7712  1.3791  2.0955
10271TIP3   OH252227   5.093   0.492   3.164  0.0295  0.6178  0.5790
10271TIP3    H152228   5.155   0.466   3.232 -1.5569  0.7326  2.1448
10271TIP3    H252229   5.054   0.573   3.197 -0.6835  0.7600 -0.5461
10272TIP3   OH252230   5.240   3.540   6.159 -0.2404 -0.0032  0.0489
10272TIP3    H152231   5.288   3.552   6.241  2.0234  1.5819 -1.3986
10272TIP3    H252232   5.260   3.451   6.132  0.6961  0.1340  0.2412
10273TIP3   OH252233   1.865   2.145  15.210  0.0987  0.2267 -0.2205
10273TIP3    H152234   1.778   2.138  15.172 -0.2372  2.6745 -0.1097
10273TIP3    H252235   1.861   2.224  15.265  2.2396  0.1194  0.1946
10274TIP3   OH252236   5.269   4.589   3.488  0.4811 -0.1945 -0.2628
10274TIP3    H152237   5.179   4.619   3.471  0.9901  1.5192 -0.1807
10274TIP3    H252238   5.310   4.587   3.401  1.4538  3.0184 -0.0399
10275TIP3   OH252239   5.914   3.551   1.762 -0.2476 -0.2504  0.2996
10275TIP3    H152240   5.892   3.458   1.751 -0.5603 -0.2058  0.5446
10275TIP3    H252241   5.855   3.597   1.703  0.3313 -0.2454 -0.2910
10276TIP3   OH252242   2.702   4.663  14.650  0.2644 -0.3388  0.0165
10276TIP3    H152243   2.689   4.753  14.622 -0.2017  0.1162  1.5909
10276TIP3    H252244   2.620   4.640  14.693  1.3761 -0.5327  2.1400
10277TIP3   OH252245   5.718   0.282   2.482 -0.1462 -0.0312 -0.1413
10277TIP3    H152246   5.776   0.214   2.517  0.4448  0.1963 -0.6556
10277TIP3    H252247   5.635   0.270   2.528  0.3685 -0.2500  0.7372
10278TIP3   OH252248   2.212   1.024  13.102  0.1131  0.7151  0.9413
10278TIP3    H152249   2.121   0.996  13.110  0.5204 -1.2927 -0.7477
10278TIP3    H252250   2.212   1.087  13.030  0.3343 -1.0623 -0.6965
10279TIP3   OH252251   1.573   5.220  16.254  0.3755 -0.4678  0.4712
10279TIP3    H152252   1.581   5.232  16.160 -0.1133 -0.4155  0.4336
10279TIP3    H252253   1.537   5.132  16.264  0.0028 -0.3033  0.5911
10280TIP3   OH252254   4.340   2.427  16.505 -0.1887 -0.0630  0.4650
10280TIP3    H152255   4.425   2.443  16.547 -0.1048  0.2872  0.1691
10280TIP3    H252256   4.359   2.431  16.411 -0.7332  1.1573  0.3862
10281TIP3   OH252257   5.039   1.109  14.913  0.1393  0.0988 -0.0371
10281TIP3    H152258   4.956   1.125  14.958 -0.4663  0.5277 -1.2590
10281TIP3    H252259   5.091   1.058  14.975 -1.4473 -1.1310  0.3405
10282TIP3   OH252260   6.279   6.012   1.079 -0.4548 -0.1075 -0.0799
10282TIP3    H152261   6.272   5.949   1.151  1.8450  1.3584  1.5990
10282TIP3    H252262   6.361   6.059   1.097 -0.8942  1.7839 -2.5162
10283TIP3   OH252263   1.711   2.033   1.704  0.2481 -0.1231 -0.3327
10283TIP3    H152264   1.712   2.100   1.772  0.6153 -0.9085  0.4688
10283TIP3    H252265   1.712   1.950   1.752 -0.9976 -0.7190 -1.2802
10284TIP3   OH252266   6.430   4.518   5.854  0.0967 -0.2533 -0.1664
10284TIP3    H152267   6.338   4.491   5.852  0.2081 -0.6635  0.1254
10284TIP3    H252268   6.471   4.460   5.919  0.1299  1.2482  1.2104
10285TIP3   OH252269   1.607   4.336  11.043 -0.2499  0.6495 -0.3636
10285TIP3    H152270   1.648   4.349  11.129 -1.6721  1.4374  0.2274
10285TIP3    H252271   1.612   4.242  11.028 -0.9279  0.3596  1.0742
10286TIP3   OH252272   6.483   5.509  10.676  0.2330 -0.0479  0.2808
10286TIP3    H152273   6.570   5.483  10.705  0.8003 -0.7446 -1.8610
10286TIP3    H252274   6.499   5.571  10.605 -0.9832 -0.6552 -0.5665
10287TIP3   OH252275   1.595   0.382  11.460 -0.4509 -0.0290 -0.1597
10287TIP3    H152276   1.669   0.403  11.516 -0.5107  1.7927 -0.6836
10287TIP3    H252277   1.616   0.423  11.375 -1.3197 -0.8770 -0.8109
10288TIP3   OH252278   0.788   5.326   1.797  0.0097 -0.0518  0.2932
10288TIP3    H152279   0.725   5.396   1.817 -3.5717 -2.9022  0.0208
10288TIP3    H252280   0.801   5.281   1.880 -0.7999 -1.2556 -0.1918
10289TIP3   OH252281   6.386   4.711   6.082 -0.3664 -0.0095 -0.6177
10289TIP3    H152282   6.421   4.658   6.011 -0.5161 -0.8368 -0.0873
10289TIP3    H252283   6.389   4.654   6.159 -0.3857  0.8007  0.0077
10290TIP3   OH252284   4.793   1.188  15.004  0.6086 -0.4614 -0.0418
10290TIP3    H152285   4.768   1.234  15.085 -3.2186  0.2631 -1.4314
10290TIP3    H252286   4.722   1.126  14.988  1.1317 -0.4712 -2.9287
10291TIP3   OH252287   5.739   5.906   5.915 -0.1332  0.2727  0.5104
10291TIP3    H152288   5.700   5.822   5.937  0.6211 -0.0948  0.4712
10291TIP3    H252289   5.801   5.923   5.986  0.4429  0.3132  0.0027
10292TIP3   OH252290   5.850   5.326  13.735  0.0045 -0.0811 -0.1078
10292TIP3    H152291   5.805   5.376  13.803  0.6916  0.4747 -0.0421
10292TIP3    H252292   5.781   5.297  13.676 -0.3863  1.1815 -0.2889
10293TIP3   OH252293   2.911   0.718  12.741  0.3925  0.3732 -0.0723
10293TIP3    H152294   2.922   0.623  12.750  0.3435  0.2102 -1.5110
10293TIP3    H252295   2.971   0.755  12.806 -0.2918 -0.6314  1.1854
10294TIP3   OH252296   0.523   4.551  12.736  0.0137  0.2117  0.1879
10294TIP3    H152297   0.599   4.595  12.775  0.5761  0.2768 -0.9215
10294TIP3    H252298   0.500   4.483  12.799  1.1856  0.0093  0.4257
10295TIP3   OH252299   3.078   5.450  14.188 -0.5138 -0.1851  0.6179
10295TIP3    H152300   3.048   5.539  14.207  0.0373  0.4135 -1.0347
10295TIP3    H252301   3.069   5.442  14.093  1.8723 -0.9200  0.3684
10296TIP3   OH252302   6.664   2.408  10.704  0.0414  0.4056  0.2066
10296TIP3    H152303   6.658   2.320  10.741 -0.1792  0.3792  0.1084
10296TIP3    H252304   6.747   2.443  10.738  0.3070  0.0294 -0.0412
10297TIP3   OH252305   3.336   0.274   2.424  0.1610  0.3153  0.2643
10297TIP3    H152306   3.425   0.296   2.452  0.1237 -0.4239  0.9957
10297TIP3    H252307   3.291   0.251   2.505 -0.0167 -1.6903 -0.3721
10298TIP3   OH252308   0.419   4.912  11.988  0.2311 -0.8278  0.3159
10298TIP3    H152309   0.357   4.938  11.920  0.6700 -1.9151 -0.5119
10298TIP3    H252310   0.365   4.869  12.054 -0.0503 -0.7445  0.1401
10299TIP3   OH252311   1.179   6.549  10.635 -0.0657  0.0539  0.9255
10299TIP3    H152312   1.266   6.565  10.599 -1.7303  0.0628 -3.6552
10299TIP3    H252313   1.122   6.612  10.591 -2.9246 -2.2332  1.0405
10300TIP3   OH252314   2.887   3.233  13.538 -0.0982 -0.0052  0.1543
10300TIP3    H152315   2.957   3.170  13.554 -0.9676 -1.4910 -1.4259
10300TIP3    H252316   2.813   3.179  13.509 -1.0835  1.6994 -0.6747
10301TIP3   OH252317   1.147   4.341   5.326  0.1681  0.0381 -0.3859
10301TIP3    H152318   1.234   4.346   5.287  0.1752 -1.6455 -0.6634
10301TIP3    H252319   1.138   4.250   5.354 -0.2879  0.8743  2.5428
10302TIP3   OH252320   5.798   5.079   4.595  0.0107 -0.0051  0.1169
10302TIP3    H152321   5.746   5.033   4.661 -0.6062  0.5418  0.0174
10302TIP3    H252322   5.833   5.155   4.641 -0.3975  0.3609 -0.1785
10303TIP3   OH252323   1.035   1.990  12.070  0.1092  0.0860 -0.3652
10303TIP3    H152324   0.995   2.077  12.062 -0.2953  0.0046  0.5872
10303TIP3    H252325   1.074   1.973  11.985 -1.0436  0.6041 -1.0229
10304TIP3   OH252326   5.842   4.905   1.970  0.1458 -0.0894 -0.0417
10304TIP3    H152327   5.827   4.983   2.024 -2.3663  0.3638 -1.2719
10304TIP3    H252328   5.881   4.938   1.890  1.8102 -0.5033  0.5592
10305TIP3   OH252329   2.702   1.607  16.935  0.0542 -0.0422 -0.4484
10305TIP3    H152330   2.642   1.597  17.008  1.8699  1.3663  1.3300
10305TIP3    H252331   2.688   1.696  16.904 -0.0972 -0.3474 -1.3017
10306TIP3   OH252332   6.288   2.961   1.405 -0.3404 -0.1864  0.8116
10306TIP3    H152333   6.294   3.028   1.336 -0.3479 -1.0173 -0.0059
10306TIP3    H252334   6.286   3.012   1.486  0.4588  0.7847  0.2501
10307TIP3   OH252335   1.239   5.410  13.470 -0.1254  0.0384  0.4938
10307TIP3    H152336   1.206   5.499  13.479  2.2949  1.1144 -0.3442
10307TIP3    H252337   1.237   5.394  13.375  1.2783 -0.0022  0.4540
10308TIP3   OH252338   6.237   6.207   1.699 -0.1858 -0.0962 -0.3904
10308TIP3    H152339   6.228   6.235   1.790 -3.3008 -1.0691 -0.2873
10308TIP3    H252340   6.198   6.278   1.648  2.2067  0.7834 -1.1072
10309TIP3   OH252341   5.339   0.632  11.529 -0.1311 -0.4418 -0.2443
10309TIP3    H152342   5.312   0.721  11.551  0.3548 -0.2813 -0.2949
10309TIP3    H252343   5.271   0.602  11.468 -2.9448 -1.8180  3.2135
10310TIP3   OH252344   4.632   0.553   4.687 -0.6227  0.7156  0.3705
10310TIP3    H152345   4.658   0.644   4.672 -3.3493  1.7300  1.3260
10310TIP3    H252346   4.650   0.510   4.604  2.5894  1.5696  0.4906
10311TIP3   OH252347   0.832   0.042   2.485 -0.5519 -0.3017  1.1836
10311TIP3    H152348   0.741   0.061   2.462 -0.2834 -1.6724 -1.3579
10311TIP3    H252349   0.884   0.081   2.414  0.6423 -1.7612  1.2033
10312TIP3   OH252350   6.199   5.559   1.407  0.3208  0.0275  0.4642
10312TIP3    H152351   6.170   5.477   1.367 -1.4727  0.5326  0.6105
10312TIP3    H252352   6.292   5.547   1.422  0.5223 -1.1968 -1.4088
10313TIP3   OH252353   3.987   1.585  17.084  0.4355  0.2323  0.2815
10313TIP3    H152354   3.948   1.498  17.090  0.0122  0.3351 -0.7074
10313TIP3    H252355   4.054   1.577  17.016 -0.4544  0.9519 -0.7220
10314TIP3   OH252356   2.133   1.658  11.159  0.2501 -0.6446 -0.2582
10314TIP3    H152357   2.058   1.679  11.216  2.0718  1.8039  1.4529
10314TIP3    H252358   2.203   1.633  11.219  1.8928  0.8120 -1.4661
10315TIP3   OH252359   0.032   5.312   5.691 -0.1429 -0.0147 -0.2022
10315TIP3    H152360   0.098   5.253   5.726  2.3868  1.0525 -2.6955
10315TIP3    H252361   0.035   5.388   5.749  1.5209  0.3664 -0.7306
10316TIP3   OH252362   1.461   3.337  11.622  0.0996 -0.1493  0.0822
10316TIP3    H152363   1.377   3.381  11.608 -1.9004 -3.3931  0.8759
10316TIP3    H252364   1.498   3.380  11.699 -2.0002 -0.2114  1.1712
10317TIP3   OH252365   6.045   1.312  12.506 -0.2495  0.3877  0.3412
10317TIP3    H152366   6.038   1.269  12.421  1.4175  0.8616 -0.0915
10317TIP3    H252367   5.993   1.259  12.565  0.6939 -1.5035 -0.4473
10318TIP3   OH252368   1.791   5.177   4.079  0.0546 -0.2589 -0.1815
10318TIP3    H152369   1.761   5.088   4.095  0.6860 -0.1373  1.9194
10318TIP3    H252370   1.878   5.181   4.118  0.3320  1.0951 -0.8670
10319TIP3   OH252371   4.353   0.846  15.280 -0.4504 -0.0119  0.0338
10319TIP3    H152372   4.273   0.800  15.306 -0.9577  0.2428 -1.0094
10319TIP3    H252373   4.357   0.835  15.185 -0.2635  1.5480 -0.1730
10320TIP3   OH252374   2.742   5.947   5.782 -0.1364  0.1224 -0.3626
10320TIP3    H152375   2.733   5.954   5.687  0.4304 -2.0706 -0.6191
10320TIP3    H252376   2.673   6.004   5.817  0.2082  1.6768 -2.0386
10321TIP3   OH252377   2.988   2.234  12.149  0.6670  0.4995  0.0451
10321TIP3    H152378   3.003   2.140  12.139 -1.4424  0.2434 -1.0809
10321TIP3    H252379   3.057   2.275  12.097  1.0055 -0.4377 -0.2539
10322TIP3   OH252380   0.494   6.766  13.236  0.4051 -0.0281  0.2982
10322TIP3    H152381   0.436   6.716  13.293 -1.9255  0.9523 -1.0596
10322TIP3    H252382   0.539   6.701  13.182  1.1923 -0.8442  1.8764
10323TIP3   OH252383   6.668   3.625  16.331 -0.0431  0.0372  0.2721
10323TIP3    H152384   6.683   3.552  16.270 -2.9130 -1.3974  1.1113
10323TIP3    H252385   6.725   3.606  16.405 -1.5442 -2.0816  0.9749
10324TIP3   OH252386   3.698   2.511  13.940  0.0183 -0.4047 -0.1490
10324TIP3    H152387   3.613   2.532  13.903  0.0089 -0.5705 -0.2185
10324TIP3    H252388   3.686   2.426  13.983  0.2492 -0.6184 -0.4982
10325TIP3   OH252389   3.855   6.085  11.904 -0.3637 -0.0407  0.0231
10325TIP3    H152390   3.864   6.013  11.965  0.6448 -0.3688 -0.4753
10325TIP3    H252391   3.844   6.163  11.959 -0.8232 -0.4953  0.5750
10326TIP3   OH252392   3.584   6.588   4.044  0.0565  0.2340 -0.0884
10326TIP3    H152393   3.610   6.635   3.964 -0.2647  0.9308  0.2076
10326TIP3    H252394   3.531   6.515   4.012  1.1877 -0.3845 -0.6008
10327TIP3   OH252395   3.095   4.371  16.377 -0.3856  0.2853  0.2455
10327TIP3    H152396   3.166   4.341  16.434 -0.6562 -0.6978  0.0956
10327TIP3    H252397   3.026   4.401  16.437 -0.2676  0.2110  0.4184
10328TIP3   OH252398   4.963   3.393   4.430 -0.0069 -0.0596  0.2428
10328TIP3    H152399   4.974   3.446   4.351 -0.4616 -2.1548 -1.3279
10328TIP3    H252400   5.008   3.311   4.411 -1.9101 -1.4418  1.2789
10329TIP3   OH252401   5.821   1.364  11.761 -0.4533 -0.8855  0.0860
10329TIP3    H152402   5.763   1.417  11.706  0.3498  0.7338  0.7231
10329TIP3    H252403   5.762   1.310  11.813 -1.5733  1.9214  1.9594
10330TIP3   OH252404   1.882   4.727  13.743  0.3568  0.0101  0.2170
10330TIP3    H152405   1.903   4.803  13.798 -0.7501 -0.0304  0.7263
10330TIP3    H252406   1.821   4.761  13.678  0.0458 -0.3957  0.2972
10331TIP3   OH252407   5.572   2.521   5.955 -0.4192  0.3784 -0.4596
10331TIP3    H152408   5.603   2.450   5.899 -0.6946 -1.4584  1.5826
10331TIP3    H252409   5.653   2.563   5.986 -0.2208  0.4329 -1.0467
10332TIP3   OH252410   6.183   4.961  13.389  0.0365  0.2425 -0.2769
10332TIP3    H152411   6.126   5.031  13.358 -0.0476  0.8416  1.1582
10332TIP3    H252412   6.245   4.946  13.317  0.3675  2.1279 -0.4191
10333TIP3   OH252413   4.784   2.447  16.962  0.2425  0.1319 -0.0396
10333TIP3    H152414   4.695   2.460  16.997  0.2478 -1.9942  0.9651
10333TIP3    H252415   4.794   2.352  16.958  2.7851  0.3030  0.6450
10334TIP3   OH252416   2.425   6.296  12.188 -0.0979  0.0119  0.1224
10334TIP3    H152417   2.405   6.321  12.279  1.1263  0.8099  0.2056
10334TIP3    H252418   2.364   6.347  12.135  0.7274  1.4051  0.4231
10335TIP3   OH252419   3.318   5.816   1.010  0.0073  0.6028  0.7591
10335TIP3    H152420   3.224   5.828   1.023 -0.4198  0.9103 -1.8913
10335TIP3    H252421   3.358   5.897   1.041 -0.9272  1.5802 -0.4903
10336TIP3   OH252422   4.735   3.446  14.655  0.4025 -0.3504 -0.3228
10336TIP3    H152423   4.761   3.440  14.563  0.8957 -0.2746 -0.1890
10336TIP3    H252424   4.658   3.390  14.662 -0.8536  1.1706 -1.2215
10337TIP3   OH252425   5.170   5.415  15.604  1.0506  0.5598  0.2865
10337TIP3    H152426   5.088   5.368  15.586  1.0247  1.6826 -3.3387
10337TIP3    H252427   5.149   5.507  15.588  3.0676  0.8154 -1.2056
10338TIP3   OH252428   2.455   5.499   5.807 -0.4329  0.2341 -0.1684
10338TIP3    H152429   2.463   5.416   5.760 -1.8502 -1.0857  1.7212
10338TIP3    H252430   2.469   5.475   5.899 -0.8142  2.1036  0.4152
10339TIP3   OH252431   0.474   2.479   1.930 -0.0732 -0.1443 -0.5777
10339TIP3    H152432   0.563   2.456   1.957 -0.4735 -2.0412 -0.7417
10339TIP3    H252433   0.484   2.559   1.880  1.5325 -0.2683 -0.5083
10340TIP3   OH252434   6.348   5.418  12.278  0.3011  0.1975 -0.1610
10340TIP3    H152435   6.272   5.450  12.230 -0.8258 -0.8207  0.8619
10340TIP3    H252436   6.333   5.447  12.368  0.9368 -0.3613  0.1325
10341TIP3   OH252437   5.388   3.768  12.054  0.0304  0.7833  0.5919
10341TIP3    H152438   5.324   3.698  12.069  0.1645  0.6677  0.6236
10341TIP3    H252439   5.461   3.748  12.112 -0.0626  1.1240  0.8304
10342TIP3   OH252440   2.058   6.367   5.656  0.0051 -0.3387  0.0889
10342TIP3    H152441   2.059   6.454   5.614 -1.5848 -0.5495 -0.4275
10342TIP3    H252442   1.979   6.367   5.709  1.4704 -0.4532  2.4104
10343TIP3   OH252443   3.241   2.565  16.035  0.0816 -0.0503  0.2033
10343TIP3    H152444   3.151   2.557  16.004 -0.3354 -1.5600  1.6558
10343TIP3    H252445   3.274   2.475  16.037  1.6665  0.4844 -0.3756
10344TIP3   OH252446   2.257   4.861   3.701  0.3886  0.1095  0.7596
10344TIP3    H152447   2.279   4.814   3.781  1.3077  1.2645  1.2203
10344TIP3    H252448   2.252   4.793   3.634 -1.6900 -1.0553  1.9810
10345TIP3   OH252449   1.854   5.679   1.964 -0.1332 -0.1127 -0.2639
10345TIP3    H152450   1.864   5.682   1.868  0.3995  1.3002 -0.1796
10345TIP3    H252451   1.788   5.745   1.983 -0.4645 -0.6124  0.3317
10346TIP3   OH252452   2.462   5.422   6.103 -0.4691 -0.4627 -0.7905
10346TIP3    H152453   2.455   5.456   6.192 -0.3965 -0.3424 -0.8298
10346TIP3    H252454   2.387   5.364   6.093  1.3265 -3.2049  0.5235
10347TIP3   OH252455   3.154   3.744   2.548 -1.2521 -0.1836 -0.1556
10347TIP3    H152456   3.180   3.720   2.637 -1.3418 -0.3732 -0.1796
10347TIP3    H252457   3.217   3.698   2.492  1.1636  2.7871 -0.1280
10348TIP3   OH252458   2.191   5.685  14.323 -0.2923  0.4089 -0.9401
10348TIP3    H152459   2.123   5.629  14.363  0.3237  0.9771  1.0028
10348TIP3    H252460   2.153   5.773  14.323  0.7247  0.8930  0.9920
10349TIP3   OH252461   5.534   4.627   0.119 -0.3115 -0.0064  0.2162
10349TIP3    H152462   5.547   4.532   0.112  0.3014 -0.1476  2.4587
10349TIP3    H252463   5.606   4.664   0.068  1.2040 -0.8041  1.6697
10350TIP3   OH252464   4.189   0.128   3.359  0.5274  0.4622  0.3368
10350TIP3    H152465   4.262   0.068   3.369  0.2122 -0.0040 -0.1318
10350TIP3    H252466   4.203   0.170   3.274  0.3997  0.5780  0.3717
10351TIP3   OH252467   3.539   3.762   1.953  0.2738 -0.3702  0.1890
10351TIP3    H152468   3.632   3.764   1.930  0.3867 -2.3163  0.3220
10351TIP3    H252469   3.494   3.769   1.869  0.5541 -0.1902  0.0518
10352TIP3   OH252470   6.316   6.538  14.862 -0.6182 -0.2295 -0.3146
10352TIP3    H152471   6.316   6.509  14.770 -1.3567  1.1594 -0.7735
10352TIP3    H252472   6.248   6.605  14.866  0.4416  0.8206  0.9005
10353TIP3   OH252473   4.512   0.883   4.411  0.3142  0.0196  0.0920
10353TIP3    H152474   4.582   0.819   4.422  1.7393  1.2468 -1.3606
10353TIP3    H252475   4.431   0.832   4.421  1.3789 -2.0159 -1.0526
10354TIP3   OH252476   1.246   0.111  14.782 -0.6086  0.1844  0.5822
10354TIP3    H152477   1.295   0.129  14.862  0.7183  0.4800 -0.2754
10354TIP3    H252478   1.185   0.185  14.774 -0.4344  0.3847  1.0691
10355TIP3   OH252479   6.461   5.304  11.730  0.0461  0.1165 -0.0637
10355TIP3    H152480   6.536   5.340  11.683 -0.5956  0.9095 -0.5203
10355TIP3    H252481   6.452   5.360  11.807  2.2256 -2.2795  2.1243
10356TIP3   OH252482   2.001   1.429  15.884  0.2728 -0.0043  0.4998
10356TIP3    H152483   2.027   1.461  15.970 -1.3925  1.0295  0.6777
10356TIP3    H252484   2.083   1.406  15.841  1.4112  2.2646  1.2798
10357TIP3   OH252485   2.868   3.939   2.091  0.1559 -0.3497 -0.3483
10357TIP3    H152486   2.777   3.925   2.114 -0.0936 -0.7263 -1.5293
10357TIP3    H252487   2.914   3.864   2.128 -0.1920 -0.7817 -0.7837
10358TIP3   OH252488   5.242   4.174   3.049 -0.2707  0.4613  0.6644
10358TIP3    H152489   5.185   4.197   2.975 -0.6906  0.9116  1.1212
10358TIP3    H252490   5.188   4.115   3.102  0.0335  0.1335  0.6127
10359TIP3   OH252491   6.683   5.585  11.249  0.4261  0.1105  0.3371
10359TIP3    H152492   6.656   5.493  11.241 -3.9147  1.0529  1.8581
10359TIP3    H252493   6.704   5.596  11.342  1.2596  0.6233  0.0973
10360TIP3   OH252494   4.003   3.128  12.810 -0.2240  0.1651 -0.2079
10360TIP3    H152495   4.092   3.100  12.828 -0.0247  0.9879  0.1131
10360TIP3    H252496   3.948   3.060  12.849  0.2463  0.3716  0.8464
10361TIP3   OH252497   3.477   6.552   5.717  0.0849  0.0851 -0.2682
10361TIP3    H152498   3.403   6.511   5.673 -0.0030 -0.2287  0.1664
10361TIP3    H252499   3.506   6.621   5.657 -0.2660 -0.0955 -0.6453
10362TIP3   OH252500   4.228   3.148  15.382 -0.3212 -0.5188  0.2159
10362TIP3    H152501   4.229   3.241  15.406 -0.3169  0.3092 -2.6796
10362TIP3    H252502   4.300   3.110  15.432 -0.1387  1.0891  1.2478
10363TIP3   OH252503   2.371   4.382  12.437 -0.1772 -0.6268 -0.3533
10363TIP3    H152504   2.410   4.302  12.473 -0.1605 -0.1499  0.7273
10363TIP3    H252505   2.357   4.439  12.513 -1.1868 -0.0178 -0.9601
10364TIP3   OH252506   4.208   3.825   3.443 -0.7972  0.0084  0.3148
10364TIP3    H152507   4.231   3.830   3.350 -1.9370 -2.9604 -0.2432
10364TIP3    H252508   4.154   3.903   3.459  0.6581  1.3614 -1.0640
10365TIP3   OH252509   0.124   3.713  14.945  0.1186 -0.2045  0.1154
10365TIP3    H152510   0.192   3.690  15.008  0.5921 -1.7036 -0.9103
10365TIP3    H252511   0.168   3.766  14.879  0.9670 -3.1485 -1.8600
10366TIP3   OH252512   4.182   2.328   1.282 -0.1828  0.0543  0.3010
10366TIP3    H152513   4.226   2.335   1.198  0.2119 -0.3343  0.4743
10366TIP3    H252514   4.191   2.415   1.321 -0.4562  0.2649 -0.0953
10367TIP3   OH252515   4.647   0.708  11.438  0.3225 -0.1605  0.0772
10367TIP3    H152516   4.651   0.731  11.531 -0.4440  0.2133  0.0327
10367TIP3    H252517   4.664   0.614  11.435  1.1912 -0.0253  0.5040
10368TIP3   OH252518   4.969   5.939  11.240 -0.5201  0.1384 -0.0799
10368TIP3    H152519   5.028   6.015  11.236 -1.7505  1.1026 -0.5037
10368TIP3    H252520   5.004   5.879  11.175 -0.2114  0.8574 -0.5977
10369TIP3   OH252521   5.623   3.449  12.861 -0.0229  0.2573  0.3249
10369TIP3    H152522   5.566   3.386  12.816  0.2923 -0.0315  0.3212
10369TIP3    H252523   5.637   3.518  12.797  0.3700 -0.1210 -0.0070
10370TIP3   OH252524   4.866   5.040  13.079 -0.0567  0.1577  0.7300
10370TIP3    H152525   4.846   4.963  13.133 -0.9735  0.9738  1.5726
10370TIP3    H252526   4.870   5.112  13.141  0.4632  0.8580 -0.1042
10371TIP3   OH252527   2.550   6.185  16.324 -0.2699  0.3523 -0.1276
10371TIP3    H152528   2.561   6.114  16.388  3.7975 -0.5850 -1.5057
10371TIP3    H252529   2.572   6.264  16.372 -2.0182  0.3617  0.7231
10372TIP3   OH252530   4.951   5.748  15.350 -0.1593 -0.5555 -0.1539
10372TIP3    H152531   4.904   5.667  15.364  0.1697 -0.4702  1.7129
10372TIP3    H252532   4.991   5.768  15.435 -2.3097  2.8756  0.2577
10373TIP3   OH252533   4.038   1.026  11.198 -0.8021 -0.1173  0.4328
10373TIP3    H152534   3.997   1.103  11.160 -0.4845 -0.4081 -0.5458
10373TIP3    H252535   4.090   0.989  11.126  0.0815 -0.5140  1.2509
10374TIP3   OH252536   4.438   6.578  13.774 -0.1133  0.0054  0.1376
10374TIP3    H152537   4.437   6.623  13.859 -0.3571 -1.7870  1.1255
10374TIP3    H252538   4.345   6.572  13.750  0.0255  2.4570 -1.4105
10375TIP3   OH252539   5.117   3.261  14.240 -0.1849  0.2361  0.0642
10375TIP3    H152540   5.106   3.256  14.335  0.9141 -1.0111  0.1613
10375TIP3    H252541   5.208   3.289  14.228 -0.0543 -0.4281 -0.5926
10376TIP3   OH252542   4.447   3.940  13.825 -0.1216  0.4053  0.1530
10376TIP3    H152543   4.382   3.981  13.881 -0.6324  1.1583 -0.9495
10376TIP3    H252544   4.515   4.006  13.814 -0.0986  0.3232 -0.2233
10377TIP3   OH252545   1.994   2.096  16.207  0.2435 -0.0422 -0.2140
10377TIP3    H152546   1.970   2.177  16.251 -1.0329  0.5657 -1.8904
10377TIP3    H252547   2.075   2.068  16.250  1.0010  2.3755  0.0938
10378TIP3   OH252548   2.912   5.405   4.251  0.3498  0.1720 -0.1650
10378TIP3    H152549   2.822   5.434   4.269  0.2262 -0.9794  1.2833
10378TIP3    H252550   2.906   5.361   4.166 -0.6266 -0.4941  0.2199
10379TIP3   OH252551   0.169   0.898  13.149 -0.1155  0.1526  0.3160
10379TIP3    H152552   0.255   0.860  13.166  0.9298  2.2360  0.0562
10379TIP3    H252553   0.134   0.845  13.077  0.5468 -1.2556  0.9816
10380TIP3   OH252554   4.425   5.872  14.405  0.0709 -0.0208  0.7173
10380TIP3    H152555   4.383   5.934  14.345 -0.2027 -1.7896 -0.9869
10380TIP3    H252556   4.497   5.923  14.444 -0.3594  1.4786 -0.3328
10381TIP3   OH252557   2.802   6.034  13.874 -0.2494  0.1803  0.3479
10381TIP3    H152558   2.785   5.988  13.956  1.8260  0.5441  1.0471
10381TIP3    H252559   2.817   5.964  13.810  0.2540 -0.1103  0.7802
10382TIP3   OH252560   4.285   3.188   3.381  0.1188 -0.1266  0.3245
10382TIP3    H152561   4.264   3.281   3.373  0.5566 -0.0694 -0.1812
10382TIP3    H252562   4.311   3.161   3.293 -0.3169 -0.8058  0.3994
10383TIP3   OH252563   2.896   3.069   1.551  0.0927  0.2042  0.0546
10383TIP3    H152564   2.934   2.981   1.558  0.1137  0.2013 -0.0900
10383TIP3    H252565   2.960   3.118   1.499 -0.2628  0.1093 -0.4696
10384TIP3   OH252566   3.771   2.066  10.883  0.2373  0.1910 -0.0281
10384TIP3    H152567   3.702   1.999  10.885 -0.0361  0.4806  1.4971
10384TIP3    H252568   3.852   2.016  10.872 -0.1874 -0.1254 -2.2711
10385TIP3   OH252569   2.601   5.119  13.504 -0.1099  0.0665  0.2175
10385TIP3    H152570   2.509   5.107  13.528 -0.1505 -3.2028 -1.0993
10385TIP3    H252571   2.648   5.110  13.587 -0.8131 -1.2191  0.4979
10386TIP3   OH252572   2.921   3.091   6.037  0.5335 -0.4181 -0.1231
10386TIP3    H152573   3.012   3.105   6.064  0.3258  3.8510 -0.8638
10386TIP3    H252574   2.870   3.102   6.118  0.5831 -0.4037 -0.0942
10387TIP3   OH252575   0.160   2.881  13.272  0.5400 -0.0967 -0.3983
10387TIP3    H152576   0.211   2.801  13.265  0.8852  0.1192 -0.3676
10387TIP3    H252577   0.148   2.911  13.182  1.8662  0.7252 -0.3244
10388TIP3   OH252578   2.772   2.088   6.430  0.2004  0.2627 -0.2178
10388TIP3    H152579   2.708   2.089   6.501 -1.8232 -3.6851 -1.6450
10388TIP3    H252580   2.841   2.029   6.460  0.7820  0.7887 -0.4897
10389TIP3   OH252581   3.190   5.560  13.728 -0.1450  0.2340 -0.5533
10389TIP3    H152582   3.217   5.564  13.636 -0.2220 -1.6403 -0.6971
10389TIP3    H252583   3.110   5.508  13.727  0.8603 -1.4108  0.7441
10390TIP3   OH252584   0.539   6.202   6.211 -0.2465 -0.1394  0.0326
10390TIP3    H152585   0.459   6.152   6.225 -0.4396  0.0228 -0.4798
10390TIP3    H252586   0.566   6.230   6.299 -1.3266  0.7000  0.1219
10391TIP3   OH252587   3.934   0.211   4.700 -0.3190 -0.0360 -0.1423
10391TIP3    H152588   4.003   0.262   4.658  0.2189  0.8739  1.7398
10391TIP3    H252589   3.899   0.269   4.767 -1.4943 -1.2341  0.3214
10392TIP3   OH252590   3.628   2.753  12.967 -0.2730 -0.7266 -0.5202
10392TIP3    H152591   3.696   2.685  12.969  0.4851  0.0291  0.1982
10392TIP3    H252592   3.546   2.705  12.976  0.3012 -1.4971  0.8127
10393TIP3   OH252593   1.277   4.075  10.454 -0.2311  0.4271  0.0259
10393TIP3    H152594   1.287   4.095  10.547 -0.4995  1.7365 -0.2111
10393TIP3    H252595   1.269   3.979  10.451  0.8786  0.2670  1.2296
10394TIP3   OH252596   5.786   1.208  11.981  0.2609  0.3799  0.2914
10394TIP3    H152597   5.828   1.251  12.056  1.9605 -2.1775  0.9627
10394TIP3    H252598   5.702   1.177  12.015 -0.2059  1.5766  0.2888
10395TIP3   OH252599   5.356   3.241  15.413 -0.3918  0.1950 -0.0773
10395TIP3    H152600   5.269   3.279  15.427 -0.7770 -0.8386  0.4640
10395TIP3    H252601   5.415   3.316  15.406 -1.4493  0.9439 -1.3971
10396TIP3   OH252602   3.571   3.335  16.087  0.4278  0.3532 -0.0512
10396TIP3    H152603   3.522   3.254  16.074  0.9310  0.0189  0.0778
10396TIP3    H252604   3.604   3.357  16.000 -0.1295  0.7021 -0.1803
10397TIP3   OH252605   6.361   4.413  13.920 -0.6136 -0.0449 -0.3729
10397TIP3    H152606   6.338   4.505  13.907  0.5664  0.0798 -1.9858
10397TIP3    H252607   6.370   4.403  14.015 -0.6580  1.5327 -0.1722
10398TIP3   OH252608   5.088   5.967  13.297  0.3335  0.1795  0.3549
10398TIP3    H152609   5.105   5.992  13.206 -1.0690  0.2826  0.0826
10398TIP3    H252610   5.144   6.024  13.349  1.2926 -0.0030 -0.4433
10399TIP3   OH252611   2.244   1.386   0.567  0.2177 -0.0138 -0.4425
10399TIP3    H152612   2.271   1.320   0.630 -0.0080  1.0130  0.7825
10399TIP3    H252613   2.312   1.453   0.570  0.6433 -0.3336 -1.9443
10400TIP3   OH252614   0.369   0.256   0.785 -0.2983  0.4837  0.4558
10400TIP3    H152615   0.376   0.309   0.864  0.2296  0.6228  0.3194
10400TIP3    H252616   0.306   0.187   0.808 -0.2864  0.6265  0.9336
10401TIP3   OH252617   5.301   0.706   3.817  0.3043  1.3946 -0.0787
10401TIP3    H152618   5.248   0.761   3.759 -0.3064  1.0518  0.1401
10401TIP3    H252619   5.277   0.735   3.905 -1.7493 -0.6686  0.1641
10402TIP3   OH252620   0.985   0.643  12.509  0.0303 -0.0847 -0.8096
10402TIP3    H152621   1.016   0.720  12.557 -0.7811  0.0449 -0.4719
10402TIP3    H252622   1.064   0.604  12.473  0.7006 -0.2953  0.7943
10403TIP3   OH252623   4.714   1.664   2.954 -0.2227  0.0961 -0.7113
10403TIP3    H152624   4.712   1.750   2.997 -0.0874 -0.0281 -0.4514
10403TIP3    H252625   4.737   1.603   3.025 -2.3950 -0.4480 -0.3849
10404TIP3   OH252626   6.234   4.100   6.673 -0.9860  0.0952 -0.1364
10404TIP3    H152627   6.231   4.194   6.653 -0.2557 -0.0383 -0.9383
10404TIP3    H252628   6.262   4.095   6.764  1.3841  0.6244 -0.7805
10405TIP3   OH252629   3.246   3.209   0.163  1.0886  0.2145  0.7502
10405TIP3    H152630   3.289   3.214   0.248  1.2966 -0.1638  0.6708
10405TIP3    H252631   3.315   3.183   0.103  1.1395  1.3085  0.3082
10406TIP3   OH252632   3.462   3.177   0.685 -0.0196 -0.2397 -0.0444
10406TIP3    H152633   3.506   3.131   0.614 -0.2707 -0.1852 -0.2404
10406TIP3    H252634   3.378   3.204   0.647  0.9283  2.1881 -0.6375
10407TIP3   OH252635   3.137   2.572  15.335  0.1559  0.3439 -0.2449
10407TIP3    H152636   3.206   2.520  15.294  0.0354  1.0433 -1.3702
10407TIP3    H252637   3.173   2.594  15.422  0.6085 -0.7618 -0.1335
10408TIP3   OH252638   6.053   5.995   5.726 -0.3578  0.0492  0.7150
10408TIP3    H152639   6.078   6.066   5.784  0.8373 -0.8427  1.3375
10408TIP3    H252640   6.111   5.923   5.750 -0.1821 -0.5233 -1.2150
10409TIP3   OH252641   2.423   0.709   5.342  0.3700 -0.2679  0.0284
10409TIP3    H152642   2.342   0.668   5.311  0.0335  0.6124 -0.3030
10409TIP3    H252643   2.429   0.684   5.434 -0.3471 -0.2588  0.0822
10410TIP3   OH252644   4.000   3.330   5.260 -0.1939  0.3307 -0.0982
10410TIP3    H152645   4.069   3.264   5.265  0.6351  1.0715 -1.2135
10410TIP3    H252646   3.920   3.284   5.285  0.5444 -0.7920  0.2638
10411TIP3   OH252647   2.170   1.205   1.951 -0.1602 -0.4410 -0.0538
10411TIP3    H152648   2.155   1.277   2.013  0.2749 -0.7821  0.4625
10411TIP3    H252649   2.228   1.145   1.999  2.5459  0.6299 -1.7610
10412TIP3   OH252650   1.120   4.935   4.071  0.2985  0.6772 -0.2191
10412TIP3    H152651   1.074   5.012   4.104 -0.1778  0.2558  0.1124
10412TIP3    H252652   1.054   4.887   4.020  0.4762  0.2817 -0.0875
10413TIP3   OH252653   4.203   0.174   1.801  0.0790  0.6228 -0.4376
10413TIP3    H152654   4.164   0.251   1.842  0.0249  0.0759  0.5613
10413TIP3    H252655   4.129   0.117   1.781  0.1895  0.4873 -0.4615
10414TIP3   OH252656   4.299   0.850   5.676 -0.4925 -0.1079 -0.6156
10414TIP3    H152657   4.366   0.917   5.663 -0.2726 -0.5409 -1.9168
10414TIP3    H252658   4.343   0.781   5.726 -0.2969  0.0930 -0.5099
10415TIP3   OH252659   3.943   1.511   5.277 -0.2539 -0.4695  0.2570
10415TIP3    H152660   3.931   1.472   5.364 -1.7089 -0.0616  0.2589
10415TIP3    H252661   3.880   1.465   5.221  1.4953 -1.6194 -0.9273
10416TIP3   OH252662   3.185   5.773  15.981  0.1058 -0.1155 -0.2263
10416TIP3    H152663   3.234   5.826  15.918  0.8546 -0.0386  0.3983
10416TIP3    H252664   3.238   5.693  15.991 -1.5439 -1.5201 -1.9674
10417TIP3   OH252665   0.181   1.980   6.242 -0.3668 -0.0726 -0.5024
10417TIP3    H152666   0.245   1.956   6.310  0.9787  3.3434 -0.3591
10417TIP3    H252667   0.231   1.977   6.161 -0.9563 -0.5438 -0.8522
10418TIP3   OH252668   3.764   5.244   5.699 -0.1208  0.0856 -0.0532
10418TIP3    H152669   3.719   5.288   5.627  2.1207  0.3238 -1.4025
10418TIP3    H252670   3.768   5.310   5.769 -0.1528  0.7167 -0.6388
10419TIP3   OH252671   1.599   4.230  11.889 -0.1768 -0.4442  0.0989
10419TIP3    H152672   1.609   4.323  11.868  0.5048 -0.6860 -0.7442
10419TIP3    H252673   1.538   4.228  11.963 -2.1878  0.5256 -1.4362
10420TIP3   OH252674   1.054   6.507  11.696  0.1972  0.6285 -0.7634
10420TIP3    H152675   0.963   6.501  11.727  0.9654  1.5194  1.9640
10420TIP3    H252676   1.083   6.417  11.689 -0.2100  0.3468  0.7349
10421TIP3   OH252677   0.786   1.054   1.958  0.0493 -0.0139  0.0580
10421TIP3    H152678   0.759   1.141   1.931 -1.9967 -0.3969  0.7413
10421TIP3    H252679   0.713   0.997   1.934  1.6917 -1.7338 -1.2063
10422TIP3   OH252680   1.306   1.990   2.914  0.2817  0.1453  0.3099
10422TIP3    H152681   1.231   1.999   2.972 -0.2890  0.3461 -0.4475
10422TIP3    H252682   1.274   1.936   2.842  0.5119  1.1975 -0.6053
10423TIP3   OH252683   1.222   6.411   4.457 -0.1609  0.0090  0.5707
10423TIP3    H152684   1.252   6.404   4.366  0.6714 -0.0857  0.8461
10423TIP3    H252685   1.283   6.356   4.506 -0.1885  0.6005  1.2806
10424TIP3   OH252686   5.323   3.302   1.169  0.0858 -0.6104 -0.3973
10424TIP3    H152687   5.240   3.348   1.179 -0.9300 -2.2493 -0.9272
10424TIP3    H252688   5.299   3.212   1.146  1.9469 -1.7884  1.8066
10425TIP3   OH252689   4.993   5.486  13.952 -0.1348  0.4891 -0.3052
10425TIP3    H152690   5.013   5.473  14.044 -0.4237  1.4797 -0.0928
10425TIP3    H252691   5.057   5.550  13.921  0.5424 -0.4921 -1.0423
10426TIP3   OH252692   0.607   1.445  14.601  0.4604 -0.2025  0.5044
10426TIP3    H152693   0.559   1.432  14.683  0.8934 -0.7111  0.6818
10426TIP3    H252694   0.626   1.356  14.570 -0.1617 -0.0244 -0.4235
10427TIP3   OH252695   3.162   4.992   2.711  0.2415  0.1719 -0.1284
10427TIP3    H152696   3.175   4.951   2.797  1.4821 -1.2314 -0.9217
10427TIP3    H252697   3.071   4.973   2.689 -0.2557  1.0370  1.1003
10428TIP3   OH252698   1.912   5.236  13.383 -0.1114 -0.5399  0.2084
10428TIP3    H152699   1.897   5.212  13.292  0.1983  0.3050 -0.0743
10428TIP3    H252700   1.892   5.156  13.432  1.9333 -1.7561 -0.7877
10429TIP3   OH252701   4.234   6.325   3.828 -0.4545  0.2149  0.2665
10429TIP3    H152702   4.158   6.376   3.856 -1.1758 -0.3891 -0.5397
10429TIP3    H252703   4.201   6.235   3.823  0.5404 -0.1836  0.7258
10430TIP3   OH252704   5.008   2.993  11.809 -0.3334  0.5948 -0.4212
10430TIP3    H152705   5.019   2.900  11.792  0.9009  0.6396  0.0512
10430TIP3    H252706   4.975   3.029  11.726 -0.2429 -0.1573 -0.7902
10431TIP3   OH252707   3.233   0.040   1.041  0.1816  0.0564  0.5058
10431TIP3    H152708   3.328   0.038   1.042  0.1794 -0.4051  0.0946
10431TIP3    H252709   3.207  -0.043   1.081 -0.0572  0.6228  1.5551
10432TIP3   OH252710   0.556   1.684  15.311  1.4416  0.8833  0.0984
10432TIP3    H152711   0.465   1.708  15.329  0.5371 -0.6834 -1.9498
10432TIP3    H252712   0.561   1.592  15.337  1.4004 -0.0527 -2.8504
10433TIP3   OH252713   2.173   6.537  11.216 -0.0445  0.3127  0.1321
10433TIP3    H152714   2.230   6.462  11.203 -1.7985 -0.6805 -3.0104
10433TIP3    H252715   2.225   6.612  11.189  0.9710 -0.0482  1.0469
10434TIP3   OH252716   5.968   1.291  14.815  0.4177  0.1155  0.5203
10434TIP3    H152717   5.953   1.311  14.907  0.6413 -1.7469  1.0048
10434TIP3    H252718   5.882   1.264  14.782 -0.4204  3.7024 -0.7333
10435TIP3   OH252719   3.114   1.333  11.418  0.8486 -0.0368  0.5990
10435TIP3    H152720   3.151   1.276  11.486  0.1121  0.1415  1.1660
10435TIP3    H252721   3.019   1.320  11.426  0.7832 -1.9951 -2.0903
10436TIP3   OH252722   1.696   6.134  12.681  0.1487  0.7040 -0.1995
10436TIP3    H152723   1.670   6.225  12.696 -0.3220  0.5825 -0.2610
10436TIP3    H252724   1.614   6.086  12.673  0.2886 -0.2473  2.8565
10437TIP3   OH252725   5.488   5.508  12.034 -0.2118  0.2843 -0.3229
10437TIP3    H152726   5.571   5.469  12.005 -0.8605  0.3330 -2.3853
10437TIP3    H252727   5.503   5.602  12.027 -0.2059  0.3146  0.0583
10438TIP3   OH252728   0.539   4.571   4.870  0.1298 -0.0403  0.0601
10438TIP3    H152729   0.444   4.570   4.883 -0.1747  1.2016 -1.7562
10438TIP3    H252730   0.565   4.479   4.880 -1.5730 -0.7343 -1.3592
10439TIP3   OH252731   0.478   4.538  12.218  0.2961 -0.5538  0.0621
10439TIP3    H152732   0.415   4.491  12.162 -1.5851 -2.2899  3.3405
10439TIP3    H252733   0.553   4.479  12.225  0.1380 -0.7545  0.0813
10440TIP3   OH252734   1.437   1.567  13.617 -0.0683  0.3003  0.5416
10440TIP3    H152735   1.398   1.628  13.679  1.3808  3.4638 -1.4030
10440TIP3    H252736   1.531   1.586  13.620  0.4749 -1.9194 -0.1585
10441TIP3   OH252737   0.801   3.872  13.327  0.4899 -0.5442  0.2975
10441TIP3    H152738   0.713   3.865  13.364 -0.4349 -0.6177 -1.7793
10441TIP3    H252739   0.788   3.916  13.243  2.5240 -0.1017  0.1603
10442TIP3   OH252740   5.092   2.350   0.343  0.0047  0.2396 -0.0231
10442TIP3    H152741   5.173   2.400   0.354  1.8653 -2.5583  0.2681
10442TIP3    H252742   5.103   2.274   0.401 -0.7973 -2.5112 -3.1529
10443TIP3   OH252743   3.213   0.923   3.252 -0.0189 -0.1908  0.2420
10443TIP3    H152744   3.231   0.982   3.325  1.7666 -0.8135  0.3318
10443TIP3    H252745   3.263   0.844   3.271  0.1230 -0.5366 -1.4322
10444TIP3   OH252746   4.668   3.393  16.468 -0.0547  0.5528  0.3484
10444TIP3    H152747   4.688   3.320  16.526  0.0347  0.4319  0.1661
10444TIP3    H252748   4.574   3.408  16.479 -0.5635 -1.0463 -1.2670
10445TIP3   OH252749   0.879   0.162   4.915  0.4376  0.0934 -0.0934
10445TIP3    H152750   0.821   0.131   4.845 -0.2572  0.1533  0.4369
10445TIP3    H252751   0.819   0.203   4.978  0.7725 -1.8917  1.6169
10446TIP3   OH252752   5.735   0.078  13.390 -0.4342 -0.0407 -0.1686
10446TIP3    H152753   5.650   0.100  13.352 -1.1990 -2.2200  0.1458
10446TIP3    H252754   5.755   0.152  13.447 -2.0156  0.6265 -0.4240
10447TIP3   OH252755   5.539   1.363   3.713  0.5471  0.4126 -0.1250
10447TIP3    H152756   5.602   1.396   3.648 -0.1454  0.5552 -0.7387
10447TIP3    H252757   5.471   1.320   3.661  0.3552 -0.1243  0.5573
10448TIP3   OH252758   2.049   4.690   4.876 -0.5886 -0.1059 -0.0691
10448TIP3    H152759   2.111   4.700   4.804  0.9954  0.4327  1.2924
10448TIP3    H252760   2.002   4.774   4.878 -2.3780 -0.9819 -1.9244
10449TIP3   OH252761   0.831   0.680  17.047  0.0647 -0.2805  0.2219
10449TIP3    H152762   0.805   0.606  17.101 -0.7952 -1.1755 -1.3441
10449TIP3    H252763   0.771   0.750  17.073  0.6165 -0.2285  1.4214
10450TIP3   OH252764   1.311   6.050  17.301  0.0417  0.4170 -0.3473
10450TIP3    H152765   1.302   6.117  17.234  1.1719 -1.0107 -2.0323
10450TIP3    H252766   1.280   5.969  17.259 -2.5374  0.0265  2.0319
10451TIP3   OH252767   2.251   1.219  13.705  0.3883  0.5264 -0.3935
10451TIP3    H152768   2.287   1.289  13.760  2.1225 -1.1677  0.7900
10451TIP3    H252769   2.165   1.201  13.742  0.0183  1.8507 -0.5734
10452TIP3   OH252770   0.640   0.624  12.503 -0.6950  0.7237 -0.1452
10452TIP3    H152771   0.589   0.562  12.451  0.8901 -0.1422 -0.7125
10452TIP3    H252772   0.728   0.620  12.467 -0.0345  1.6729  1.2591
10453TIP3   OH252773   2.484   2.331   0.068  0.1283  0.4924 -0.1867
10453TIP3    H152774   2.390   2.324   0.053  0.1851  0.8391 -0.7589
10453TIP3    H252775   2.498   2.295   0.155 -0.2527 -1.5042 -0.9153
10454TIP3   OH252776   4.929   2.005  15.774  0.0263 -0.3853  0.2839
10454TIP3    H152777   4.944   2.094  15.805 -1.2007 -0.9209  2.7086
10454TIP3    H252778   4.859   2.014  15.709  0.5322  0.4956 -0.1578
10455TIP3   OH252779   6.358   1.398   3.418  0.3218  0.2399  0.6681
10455TIP3    H152780   6.304   1.471   3.387  2.0762  0.7603 -1.3918
10455TIP3    H252781   6.445   1.436   3.431  1.3126 -1.4481 -0.5919
10456TIP3   OH252782   0.352   4.051   4.364 -1.0455  0.2505  0.1632
10456TIP3    H152783   0.418   4.022   4.301 -1.4464 -0.8113  0.1982
10456TIP3    H252784   0.280   4.083   4.310 -1.0159  0.2000  0.0933
10457TIP3   OH252785   1.342   6.208   3.975 -0.0415 -0.0093 -0.4142
10457TIP3    H152786   1.322   6.116   3.962  0.8307 -0.0338 -1.8327
10457TIP3    H252787   1.427   6.221   3.933 -0.8375  1.7345 -1.6500
10458TIP3   OH252788   5.153   3.951   1.498  0.4475 -0.2914  0.3549
10458TIP3    H152789   5.133   3.857   1.500 -1.1492 -0.0084 -0.7611
10458TIP3    H252790   5.133   3.977   1.408  2.5929  0.7855  0.1321
10459TIP3   OH252791   1.707   5.927   0.742 -0.5743  0.1653  0.0282
10459TIP3    H152792   1.794   5.912   0.780 -0.0079 -0.3064 -1.3786
10459TIP3    H252793   1.648   5.927   0.817  0.8240  2.3027  1.2379
10460TIP3   OH252794   2.409   4.612  16.308  0.0787  0.4160  0.0146
10460TIP3    H152795   2.456   4.602  16.225 -0.5688  0.3018 -0.3449
10460TIP3    H252796   2.441   4.540  16.362  1.0868  0.9434  0.1641
10461TIP3   OH252797   2.951   2.954  12.728 -0.0186  0.1415 -0.2458
10461TIP3    H152798   3.028   3.011  12.726 -0.4843  0.8002  0.4584
10461TIP3    H252799   2.924   2.947  12.637  0.2329  0.7816 -0.3716
10462TIP3   OH252800   1.916   3.906   4.749 -0.6298 -0.5778 -0.2792
10462TIP3    H152801   1.913   3.971   4.680 -2.7858 -0.9255 -0.5753
10462TIP3    H252802   1.911   3.822   4.704 -0.5260 -0.8598  0.2197
10463TIP3   OH252803   3.075   4.367   5.128  0.1020  0.2286 -0.1839
10463TIP3    H152804   3.041   4.403   5.210 -0.9946  1.1554 -1.0105
10463TIP3    H252805   3.147   4.310   5.155 -0.8273 -0.2292  1.4830
10464TIP3   OH252806   5.230   5.319   0.155  0.2640 -0.3963  0.6626
10464TIP3    H152807   5.265   5.231   0.164  1.1610 -0.1787 -0.5339
10464TIP3    H252808   5.142   5.306   0.120  0.1384 -0.8322  1.1200
10465TIP3   OH252809   6.694   6.003  15.644 -0.3915  0.2053  0.2868
10465TIP3    H152810   6.612   5.971  15.608  1.3189 -1.2520 -2.7148
10465TIP3    H252811   6.717   5.941  15.714 -2.0918  1.0598  1.6793
10466TIP3   OH252812   0.535   1.016   0.981  0.4291 -0.1745  0.1916
10466TIP3    H152813   0.538   1.111   0.965  1.9092 -0.2027  0.1657
10466TIP3    H252814   0.493   1.008   1.067 -2.8652  0.2693 -1.2445
10467TIP3   OH252815   4.378   4.181  13.593 -0.0738 -0.0562 -0.0563
10467TIP3    H152816   4.429   4.105  13.566  0.9971 -0.0982  1.9255
10467TIP3    H252817   4.443   4.251  13.601 -0.8302  0.7109 -0.4792
10468TIP3   OH252818   5.623   0.264   1.904  0.2178  0.2684 -0.4125
10468TIP3    H152819   5.537   0.305   1.915 -0.3770 -0.6022 -1.6192
10468TIP3    H252820   5.617   0.182   1.953  0.6553  0.6009  0.2004
10469TIP3   OH252821   5.126   0.943   2.637  0.2622  0.0531 -0.1161
10469TIP3    H152822   5.196   0.980   2.691  0.6023 -0.8926  0.1076
10469TIP3    H252823   5.059   0.917   2.700 -0.1200  0.5795 -0.2992
10470TIP3   OH252824   0.400   1.899   4.975 -0.2280  0.3822  0.0560
10470TIP3    H152825   0.488   1.889   5.013 -1.9268 -0.2737  4.3514
10470TIP3    H252826   0.373   1.988   4.999 -0.6495  0.7493 -1.6331
10471TIP3   OH252827   2.883   6.673  15.511 -0.6815 -0.3253 -0.2821
10471TIP3    H152828   2.814   6.708  15.567 -1.4838 -1.3165 -0.6308
10471TIP3    H252829   2.960   6.667  15.568 -0.4315  2.1153 -0.2323
10472TIP3   OH252830   6.140   3.332  14.602 -0.3419  0.3919  0.1727
10472TIP3    H152831   6.157   3.392  14.530  0.7306 -0.7731 -0.5950
10472TIP3    H252832   6.138   3.245  14.561  0.2153 -0.2985  1.5275
10473TIP3   OH252833   4.262   1.498   5.148 -0.0917 -0.2343  0.5368
10473TIP3    H152834   4.224   1.483   5.234  0.2423  0.9539  0.9135
10473TIP3    H252835   4.308   1.582   5.156 -0.9836  0.4627 -1.1028
10474TIP3   OH252836   3.728   6.755   1.630 -0.3362  0.4860 -0.4181
10474TIP3    H152837   3.672   6.677   1.629  0.1331  0.1307 -1.7671
10474TIP3    H252838   3.724   6.788   1.540  1.7115  0.3428 -0.6143
10475TIP3   OH252839   6.519   6.299  16.838 -0.0465 -0.4224  0.1408
10475TIP3    H152840   6.577   6.367  16.873 -1.0823 -0.0155  1.1675
10475TIP3    H252841   6.510   6.321  16.745  1.1154 -0.2720  0.0504
10476TIP3   OH252842   0.640   4.340  11.670  0.1228  0.3046  0.3720
10476TIP3    H152843   0.664   4.381  11.587  0.1682  3.6849  1.9035
10476TIP3    H252844   0.581   4.269  11.645  0.2328  1.1070 -2.5596
10477TIP3   OH252845   3.711   4.794  14.781  0.5094  0.1799 -0.5673
10477TIP3    H152846   3.787   4.803  14.723  2.2026  0.6962  1.6130
10477TIP3    H252847   3.647   4.857  14.745  0.8655 -0.5725 -2.6931
10478TIP3   OH252848   3.869   2.832   5.488 -0.2675  0.3202 -0.1308
10478TIP3    H152849   3.791   2.873   5.525  0.9204  1.7428  0.9099
10478TIP3    H252850   3.937   2.847   5.554  1.0606 -0.2332 -1.3348
10479TIP3   OH252851   4.806   4.957  11.507 -0.3135 -0.4208 -0.0854
10479TIP3    H152852   4.816   5.017  11.433  0.1397 -1.4565 -0.8865
10479TIP3    H252853   4.724   4.984  11.549 -0.2218  0.6191 -0.5490
10480TIP3   OH252854   3.285   5.726   3.988 -0.2346  0.0877  0.1810
10480TIP3    H152855   3.309   5.792   3.923  0.7593 -0.4250  0.0080
10480TIP3    H252856   3.300   5.642   3.945 -0.8636 -0.2605  0.6195
10481TIP3   OH252857   1.477   3.421  13.640 -0.5601 -0.0345 -0.2425
10481TIP3    H152858   1.456   3.507  13.603  1.4724  1.0785  0.9838
10481TIP3    H252859   1.399   3.369  13.625 -1.7818  1.9534 -1.2542
10482TIP3   OH252860   4.605   0.494  11.766  0.2758  0.2152  0.0911
10482TIP3    H152861   4.538   0.469  11.829  1.4633  1.7533  2.0986
10482TIP3    H252862   4.561   0.491  11.681 -1.6261 -1.1289  1.0410
10483TIP3   OH252863   0.933   2.504   5.192  0.0523 -0.1530  0.1213
10483TIP3    H152864   1.028   2.512   5.204  0.0200 -2.0150  2.3592
10483TIP3    H252865   0.924   2.465   5.105  1.1942  1.6796 -0.8817
10484TIP3   OH252866   0.916   2.868   4.328 -0.2392  0.5735 -0.3316
10484TIP3    H152867   0.845   2.930   4.317 -0.2544  0.3905 -1.3227
10484TIP3    H252868   0.873   2.784   4.344 -0.2187  0.8364  1.2922
10485TIP3   OH252869   5.154   2.553  15.806 -0.3290 -0.1444  0.0903
10485TIP3    H152870   5.153   2.625  15.869 -0.5227 -1.3763  1.5285
10485TIP3    H252871   5.076   2.501  15.826  1.3170 -2.4067  1.0795
10486TIP3   OH252872   1.729   6.282   2.115 -0.4985 -0.2463 -0.4667
10486TIP3    H152873   1.823   6.301   2.109 -0.3576 -0.8817 -0.3985
10486TIP3    H252874   1.705   6.305   2.205 -0.0361 -1.6056  0.0311
10487TIP3   OH252875   5.403   6.594  12.714 -0.3728 -0.2615  0.1839
10487TIP3    H152876   5.446   6.580  12.799 -0.3241 -0.7419  0.0864
10487TIP3    H252877   5.353   6.513  12.700  0.7217 -0.7758 -0.8878
10488TIP3   OH252878   2.842   0.879  16.356 -1.0022  0.3717 -0.5688
10488TIP3    H152879   2.886   0.896  16.439  0.9743 -0.3251 -1.3860
10488TIP3    H252880   2.861   0.956  16.302 -0.8421  0.1081 -0.8971
10489TIP3   OH252881   5.132   3.397  14.503 -0.3204 -0.0578  0.0860
10489TIP3    H152882   5.130   3.318  14.558 -0.7365  0.0511  0.2298
10489TIP3    H252883   5.222   3.427  14.509 -0.5414  0.4316  1.4074
10490TIP3   OH252884   3.484   5.995  13.524 -0.5860 -0.1328  0.4526
10490TIP3    H152885   3.534   6.073  13.547 -1.3525  0.7638 -0.8287
10490TIP3    H252886   3.531   5.956  13.450 -0.6150 -0.4808  0.6119
10491TIP3   OH252887   6.376   2.054  15.436 -0.2506  0.1424  0.3416
10491TIP3    H152888   6.467   2.023  15.437  0.2617  1.6053  0.6080
10491TIP3    H252889   6.346   2.036  15.347 -0.7892 -3.2475  1.0488
10492TIP3   OH252890   5.513   2.429  11.546 -0.0338  0.7091 -0.7366
10492TIP3    H152891   5.603   2.435  11.513  0.7477  1.0190  1.2981
10492TIP3    H252892   5.465   2.382  11.478  1.9485 -0.5187 -1.3546
10493TIP3   OH252893   4.717   5.519   2.230  0.0911  0.3152 -0.0417
10493TIP3    H152894   4.756   5.511   2.142  0.9081 -1.5443  0.4336
10493TIP3    H252895   4.792   5.524   2.289 -0.4379  0.2567  0.6444
10494TIP3   OH252896   1.507   0.939   2.905  0.4810  0.3846  0.0854
10494TIP3    H152897   1.576   0.992   2.865 -1.1853  3.7899  1.3051
10494TIP3    H252898   1.526   0.850   2.877  3.7418  1.5100 -1.8653
10495TIP3   OH252899   2.672   4.292   2.766  0.4652 -0.7901  0.0578
10495TIP3    H152900   2.683   4.371   2.713  2.9898 -1.0254  0.0708
10495TIP3    H252901   2.581   4.267   2.753 -0.5125  2.2227  0.2384
10496TIP3   OH252902   5.478   5.466   5.507  0.4526 -0.7474 -0.6353
10496TIP3    H152903   5.528   5.507   5.578 -1.0849  0.7554 -0.3649
10496TIP3    H252904   5.545   5.430   5.449  1.7875 -0.5983  0.7386
10497TIP3   OH252905   3.927   1.171  14.020 -0.4800  0.2307 -0.0811
10497TIP3    H152906   3.849   1.120  13.997 -1.0182  0.3839  1.3031
10497TIP3    H252907   3.921   1.250  13.966  0.3748 -1.1248 -2.2741
10498TIP3   OH252908   0.175   2.291  15.808  0.1732 -0.2858 -0.1335
10498TIP3    H152909   0.174   2.196  15.807 -1.3999 -0.3030 -0.0550
10498TIP3    H252910   0.151   2.317  15.719  0.1028  0.0182 -0.0284
10499TIP3   OH252911   3.701   5.633   2.057  0.3659  0.4044  0.4817
10499TIP3    H152912   3.755   5.685   2.116  2.3691 -2.2218  1.1520
10499TIP3    H252913   3.762   5.600   1.991 -0.8310 -0.9575  0.0044
10500TIP3   OH252914   1.058   2.105   2.400  0.1553  0.2093  0.2290
10500TIP3    H152915   1.008   2.171   2.352 -1.7504  0.8513  2.8485
10500TIP3    H252916   1.080   2.039   2.335 -3.0042  0.5592 -1.3742
10501TIP3   OH252917   2.526   3.994   4.193 -0.3538 -0.2018 -0.1411
10501TIP3    H152918   2.476   4.050   4.253  0.6089  0.1429  0.3678
10501TIP3    H252919   2.480   3.910   4.195 -0.1964 -0.2884  1.3134
10502TIP3   OH252920   1.243   2.606   3.286  0.2341  0.4659 -0.0790
10502TIP3    H152921   1.209   2.546   3.220 -0.7392  0.7713  0.1183
10502TIP3    H252922   1.184   2.681   3.282 -1.9789 -0.8353  3.3530
10503TIP3   OH252923   3.466   6.205  10.768  0.2452  0.1551  0.3741
10503TIP3    H152924   3.427   6.239  10.688 -1.6901 -0.2402  1.0780
10503TIP3    H252925   3.553   6.245  10.772  0.3440  0.2505 -1.8341
10504TIP3   OH252926   5.132   6.592   0.369 -0.5758  0.0498  0.2402
10504TIP3    H152927   5.090   6.539   0.437  0.4646  0.8521  1.5714
10504TIP3    H252928   5.059   6.632   0.322 -1.4087 -2.6302 -0.9467
10505TIP3   OH252929   1.902   6.247   4.336 -0.7091 -0.0483 -0.1926
10505TIP3    H152930   1.948   6.323   4.370 -2.3933  0.5070  0.9425
10505TIP3    H252931   1.894   6.188   4.411 -0.6735 -0.7277 -0.7104
10506TIP3   OH252932   1.894   2.450   0.420  0.3909  0.7280 -0.1569
10506TIP3    H152933   1.852   2.535   0.407 -2.0014 -0.6888 -2.8963
10506TIP3    H252934   1.960   2.445   0.351  1.3690  0.7770  0.7470
10507TIP3   OH252935   1.538   6.676   5.627 -0.4874  0.2464 -0.5712
10507TIP3    H152936   1.534   6.712   5.716  0.2708 -1.9719  0.4220
10507TIP3    H252937   1.451   6.641   5.611 -0.0698 -1.1918  0.1575
10508TIP3   OH252938   0.842   3.411  15.768  0.7547  0.1505  0.5097
10508TIP3    H152939   0.904   3.483  15.767  0.5546  0.3219  0.3117
10508TIP3    H252940   0.805   3.409  15.679  0.0249  0.4494  0.7941
10509TIP3   OH252941   4.918   4.767   1.197 -0.0523 -0.2638  0.1111
10509TIP3    H152942   4.840   4.816   1.170  0.1862  0.1006  0.0627
10509TIP3    H252943   4.920   4.774   1.292  0.6198  0.8411  0.0347
10510TIP3   OH252944   3.210   2.710  11.097 -0.6060  0.0440 -0.4835
10510TIP3    H152945   3.211   2.710  11.001  1.2117  0.5132 -0.5120
10510TIP3    H252946   3.205   2.803  11.121 -1.6114 -0.1022 -0.1151
10511TIP3   OH252947   1.205   3.403  14.718  0.5854  0.2254  0.4709
10511TIP3    H152948   1.247   3.374  14.800  0.5074  0.7943  0.7189
10511TIP3    H252949   1.149   3.330  14.693  1.7357 -0.5646  0.1226
10512TIP3   OH252950   3.904   6.116  14.825  1.0600 -0.0997  0.0628
10512TIP3    H152951   3.931   6.084  14.739  1.3507  0.6156 -0.1219
10512TIP3    H252952   3.815   6.150  14.811  1.2669  0.4039 -0.0623
10513TIP3   OH252953   3.563   2.588   6.019  0.0559 -0.1197 -0.5176
10513TIP3    H152954   3.586   2.625   5.934 -1.1572 -1.6563 -1.5595
10513TIP3    H252955   3.550   2.495   6.002 -0.8004 -0.3553  1.2324
10514TIP3   OH252956   0.148   3.181   2.941  0.6778  0.3991 -0.1470
10514TIP3    H152957   0.100   3.263   2.928  0.6304  0.3177 -0.5016
10514TIP3    H252958   0.237   3.208   2.962  0.3883  0.5621  0.9472
10515TIP3   OH252959   1.288   5.085  16.308 -0.2760 -0.7092 -0.3418
10515TIP3    H152960   1.199   5.113  16.333 -0.1399 -0.2799 -0.3357
10515TIP3    H252961   1.313   5.024  16.377  0.3418  0.9398  0.9616
10516TIP3   OH252962   0.382   1.236   1.210 -0.4901  0.1374 -0.2211
10516TIP3    H152963   0.398   1.282   1.128  0.6517  2.0947  1.0113
10516TIP3    H252964   0.345   1.303   1.268 -2.9903 -1.6164  0.3735
10517TIP3   OH252965   3.363   5.120  13.569  0.1231  0.3249  0.0751
10517TIP3    H152966   3.390   5.039  13.528 -2.2828  0.3352 -1.7546
10517TIP3    H252967   3.402   5.189  13.515 -1.6149  0.3282 -1.2686
10518TIP3   OH252968   5.237   1.197  11.119  0.4979  0.5527 -0.2023
10518TIP3    H152969   5.242   1.151  11.035 -1.3649 -1.0624  0.4899
10518TIP3    H252970   5.220   1.288  11.095  2.0189  0.5098 -1.5823
10519TIP3   OH252971   2.088   4.705   5.164  0.0950 -0.5019  0.0035
10519TIP3    H152972   2.165   4.761   5.150  0.9848 -1.4259  1.0055
10519TIP3    H252973   2.090   4.644   5.090  0.9740 -1.2082  0.5896
10520TIP3   OH252974   1.114   3.033  10.824 -0.3823  0.4490  0.1030
10520TIP3    H152975   1.196   2.986  10.838 -0.1347  0.8667  0.0911
10520TIP3    H252976   1.138   3.125  10.831 -1.0263  0.5613  1.0386
10521TIP3   OH252977   5.952   4.961  15.496  0.9653  0.1201 -1.0098
10521TIP3    H152978   5.889   4.909  15.547  1.1008 -0.6181 -1.5927
10521TIP3    H252979   5.959   5.044  15.545  1.5400 -0.7807  0.5077
10522TIP3   OH252980   5.213   2.508   1.590 -0.2466  0.1293 -0.7604
10522TIP3    H152981   5.153   2.433   1.585  0.1751 -0.1297 -2.5139
10522TIP3    H252982   5.161   2.582   1.559 -0.6441  0.5757  0.9113
10523TIP3   OH252983   3.480   0.938   4.956  0.3305  0.2219  0.0286
10523TIP3    H152984   3.402   0.974   4.999 -0.0326  0.3817 -0.7517
10523TIP3    H252985   3.514   1.011   4.903 -0.2891 -0.5018 -1.3993
10524TIP3   OH252986   1.159   2.714   0.490 -0.3123 -0.0082 -0.0821
10524TIP3    H152987   1.169   2.652   0.562  0.1434  1.2232  0.9482
10524TIP3    H252988   1.229   2.777   0.503  0.3459 -0.2283 -2.1324
10525TIP3   OH252989   5.435   2.401   4.817  0.0766  0.0056 -0.6463
10525TIP3    H152990   5.497   2.343   4.771  2.0857  0.0106  1.8509
10525TIP3    H252991   5.363   2.343   4.843  0.0246 -0.4594 -1.7714
10526TIP3   OH252992   4.476   1.550  13.096 -0.4000 -0.1200  0.0241
10526TIP3    H152993   4.443   1.563  13.186  3.4268 -0.0343  1.5959
10526TIP3    H252994   4.500   1.458  13.092  1.9030  0.4083  0.1292
10527TIP3   OH252995   3.144   5.957   6.293 -0.0830 -0.6808 -0.1889
10527TIP3    H152996   3.107   6.039   6.260  0.3506  0.0046  0.9537
10527TIP3    H252997   3.181   5.980   6.378 -1.0666 -2.3399  0.7453
10528TIP3   OH252998   2.263   2.747  14.501  0.1826 -0.5296 -0.4769
10528TIP3    H152999   2.248   2.702  14.584  0.0994  1.3979  0.5944
10528TIP3    H253000   2.343   2.798  14.516 -0.3109  0.4958 -1.3032
10529TIP3   OH253001   1.273   3.898  11.301 -0.0227  0.2253  0.0562
10529TIP3    H153002   1.248   3.875  11.212 -1.4671 -0.7279  0.6718
10529TIP3    H253003   1.364   3.870  11.309 -0.1729 -0.5404 -0.8313
10530TIP3   OH253004   0.950   6.349   2.738 -0.0122  0.1651 -0.1872
10530TIP3    H153005   1.025   6.291   2.737  0.7767  1.1635 -0.8754
10530TIP3    H253006   0.968   6.412   2.808  0.0844  0.7556 -0.7301
10531TIP3   OH253007   6.178   0.901   5.965 -0.1519 -0.1170  0.1909
10531TIP3    H153008   6.217   0.824   5.923 -0.5180 -0.1026 -0.1770
10531TIP3    H253009   6.152   0.957   5.892 -0.4093  0.0951  0.4457
10532TIP3   OH253010   4.806   2.489   3.582  0.1929 -0.2502 -0.2047
10532TIP3    H153011   4.885   2.436   3.571 -0.1669 -1.1195  1.2047
10532TIP3    H253012   4.822   2.537   3.663 -1.0887 -1.0902  0.5588
10533TIP3   OH253013   1.842   6.565   4.121  0.6991  0.1909 -0.2981
10533TIP3    H153014   1.843   6.644   4.175  0.7638  0.6501 -0.9606
10533TIP3    H253015   1.872   6.495   4.179 -1.0944  0.2919  0.8256
10534TIP3   OH253016   1.406   3.014  11.854 -0.0271 -0.6917  0.1008
10534TIP3    H153017   1.362   3.093  11.884  0.7913 -0.0163 -0.4318
10534TIP3    H253018   1.418   3.027  11.760 -2.4153 -2.6852 -0.5881
10535TIP3   OH253019   3.431   3.347  16.553  0.4772 -0.0898  0.6624
10535TIP3    H153020   3.514   3.391  16.566  0.5993 -0.3823  0.8975
10535TIP3    H253021   3.418   3.296  16.634  0.7343 -1.1135  0.0719
10536TIP3   OH253022   1.038   4.736  14.957  0.4048  0.2824 -0.2643
10536TIP3    H153023   0.980   4.709  15.029 -0.2550  0.1631 -0.8242
10536TIP3    H253024   1.024   4.669  14.890  2.0298 -0.3650  0.0045
10537TIP3   OH253025   3.777   5.811   4.860 -0.1068  0.6273 -0.0171
10537TIP3    H153026   3.733   5.754   4.923 -1.2256 -0.9689 -2.1013
10537TIP3    H253027   3.761   5.769   4.775  1.5894  2.4971 -1.3461
10538TIP3   OH253028   0.924   6.140  15.016 -0.6474  0.3379 -0.4304
10538TIP3    H153029   0.867   6.202  15.061 -1.7649  0.5191 -2.0386
10538TIP3    H253030   0.972   6.192  14.952 -1.5791 -0.4224 -1.7822
10539TIP3   OH253031   3.951   0.937   5.040  0.5538  0.2411  0.0138
10539TIP3    H153032   3.958   0.879   4.964  0.0525  0.5249 -0.2548
10539TIP3    H253033   3.857   0.940   5.060  0.5559  1.0642 -0.0601
10540TIP3   OH253034   6.367   0.397  11.122 -0.0908  0.3842  1.0645
10540TIP3    H153035   6.274   0.414  11.135 -0.5651  0.3314 -1.6661
10540TIP3    H253036   6.399   0.475  11.076  0.4421 -0.8443 -0.7787
10541TIP3   OH253037   3.610   1.514  12.714 -0.0714 -0.0711 -0.2402
10541TIP3    H153038   3.570   1.443  12.663  0.0049  1.0625 -1.9574
10541TIP3    H253039   3.538   1.574  12.733  0.3229  0.7009 -1.1191
10542TIP3   OH253040   2.952   2.953   3.730 -0.2073  0.9159 -0.4360
10542TIP3    H153041   2.951   2.944   3.635 -0.4652 -0.1067 -0.3413
10542TIP3    H253042   2.953   3.048   3.745 -0.2657  1.0838 -1.4515
10543TIP3   OH253043   4.214   5.883  11.724  0.3635  0.0860  0.0111
10543TIP3    H153044   4.256   5.811  11.676 -1.6137 -1.4196  0.4263
10543TIP3    H253045   4.273   5.958  11.710  2.1196 -1.3940 -1.0530
10544TIP3   OH253046   3.891   6.394   1.846 -0.1079 -0.0720 -0.1211
10544TIP3    H153047   3.983   6.374   1.829 -0.2439  0.9334 -2.2970
10544TIP3    H253048   3.849   6.308   1.855  1.0872 -0.5499  1.5654
10545TIP3   OH253049   1.212   0.665  13.689 -0.0964 -0.1489  1.0704
10545TIP3    H153050   1.119   0.686  13.675 -0.3640 -0.0976  2.7473
10545TIP3    H253051   1.221   0.576  13.655 -0.9774 -0.4911  1.6847
10546TIP3   OH253052   4.576   2.405   3.185 -0.2071  0.0757 -0.2037
10546TIP3    H153053   4.564   2.494   3.217 -0.9688 -0.4822  1.1614
10546TIP3    H253054   4.497   2.387   3.133 -0.4013 -0.0475  0.1316
10547TIP3   OH253055   1.460   0.460  14.656  0.4834  0.3340 -0.2297
10547TIP3    H153056   1.408   0.445  14.577 -1.1329  0.1440  0.8402
10547TIP3    H253057   1.526   0.525  14.629  1.0285 -0.9410 -2.1520
10548TIP3   OH253058   5.417   6.015   0.550 -0.0464  0.0866 -0.7121
10548TIP3    H153059   5.449   5.945   0.492 -0.9514 -0.8600 -0.1012
10548TIP3    H253060   5.328   5.989   0.572  0.2953  0.3587  1.1948
10549TIP3   OH253061   2.233   5.828   1.724 -0.1541  0.1886 -0.1736
10549TIP3    H153062   2.168   5.879   1.676 -0.1003  0.6068  0.1893
10549TIP3    H253063   2.314   5.841   1.676  0.1293  1.4656  0.5981
10550TIP3   OH253064   4.722   1.537  16.492 -0.1532  0.6122  0.0933
10550TIP3    H153065   4.689   1.448  16.501  3.1503 -0.7612  0.0159
10550TIP3    H253066   4.665   1.578  16.428 -1.7881 -1.4131  0.1603
10551TIP3   OH253067   2.877   5.874  10.680  0.2663 -0.3096 -0.2609
10551TIP3    H153068   2.885   5.955  10.730  0.9440  0.0443 -0.9172
10551TIP3    H253069   2.795   5.835  10.709  0.1487  0.3948  0.3753
10552TIP3   OH253070   2.885   2.697  11.212  0.3718  0.5184  0.0630
10552TIP3    H153071   2.961   2.638  11.213 -0.2216 -0.3005  1.7265
10552TIP3    H253072   2.923   2.785  11.210  1.3777  0.1134  0.6620
10553TIP3   OH253073   2.338   5.727   1.013  0.1695 -0.5914 -0.2450
10553TIP3    H153074   2.311   5.784   0.941 -0.3226  1.1795  1.2734
10553TIP3    H253075   2.273   5.657   1.014 -0.5208  0.0289 -0.7625
10554TIP3   OH253076   2.981   3.820  12.447 -0.2587 -0.0982 -0.2223
10554TIP3    H153077   2.964   3.891  12.508  2.0597  0.9411 -0.6792
10554TIP3    H253078   2.943   3.849  12.365 -0.1587  0.1762 -0.1714
10555TIP3   OH253079   0.876   1.901  15.243 -0.5829 -0.3034 -0.0807
10555TIP3    H153080   0.936   1.930  15.312 -2.0492  0.9178  0.7442
10555TIP3    H253081   0.849   1.982  15.200 -2.9210 -0.5940  0.7044
10556TIP3   OH253082   5.586   6.356  16.260 -0.9649  0.0506  0.3630
10556TIP3    H153083   5.535   6.428  16.296  0.3397  0.7132  0.9392
10556TIP3    H253084   5.546   6.338  16.175 -0.4758  2.3776 -0.4058
10557TIP3   OH253085   0.073   3.542  15.693 -0.1493 -0.3616  0.5384
10557TIP3    H153086   0.120   3.588  15.623 -0.5733 -1.0276 -0.1936
10557TIP3    H253087   0.115   3.573  15.773 -0.1026  0.9328  0.0423
10558TIP3   OH253088   0.916   1.274   5.295  0.1113  0.2435 -0.6476
10558TIP3    H153089   0.948   1.299   5.209  2.5397  0.5074  0.2620
10558TIP3    H253090   0.994   1.250   5.344 -1.2853 -0.7490  1.2307
10559TIP3   OH253091   4.051   6.380   5.464 -0.3137 -0.3937  0.0781
10559TIP3    H153092   4.008   6.318   5.523 -0.1896 -1.0099 -0.4608
10559TIP3    H253093   4.110   6.431   5.520 -0.7866 -0.4283  0.6064
10560TIP3   OH253094   5.266   3.023   1.105  0.8190  0.2016  0.5180
10560TIP3    H153095   5.263   2.959   1.176 -0.4053  1.2947  1.5143
10560TIP3    H253096   5.207   2.987   1.038  0.2327  0.2185  1.0169
10561TIP3   OH253097   2.609   6.718   3.867 -0.1058  0.3943 -0.1626
10561TIP3    H153098   2.582   6.629   3.847  1.0584  0.0915 -0.4807
10561TIP3    H253099   2.529   6.771   3.859 -1.5323 -1.0417  3.0437
10562TIP3   OH253100   2.904   1.657   2.120 -0.4019 -1.2221  0.0467
10562TIP3    H153101   2.878   1.661   2.027 -1.3242  0.0537  0.3309
10562TIP3    H253102   2.999   1.652   2.117 -0.0069  3.0529 -1.0284
10563TIP3   OH253103   6.155   2.759   4.822  0.3467  0.4392 -0.7814
10563TIP3    H153104   6.109   2.833   4.783 -0.9168  0.5818  0.8893
10563TIP3    H253105   6.244   2.791   4.836 -0.2637  1.8077  0.2440
10564TIP3   OH253106   5.859   3.655  14.342  0.3541  0.1209  0.8907
10564TIP3    H153107   5.874   3.604  14.422  0.6872 -0.4277  0.4816
10564TIP3    H253108   5.829   3.591  14.278 -0.0085  0.5785  0.5990
10565TIP3   OH253109   5.073   6.721  15.798  0.2897  0.7407  0.2529
10565TIP3    H153110   5.164   6.752  15.810  0.1761  1.0308  0.3858
10565TIP3    H253111   5.059   6.725  15.704  1.5981 -2.7020 -0.2407
10566TIP3   OH253112   4.128   5.245  12.581  0.0462  0.0589  0.6079
10566TIP3    H153113   4.049   5.195  12.561  0.1175 -0.1610  0.8770
10566TIP3    H253114   4.149   5.222  12.672 -1.0623  2.0593  1.4423
10567TIP3   OH253115   4.306   0.461  12.500  0.1253  0.3773 -0.5894
10567TIP3    H153116   4.293   0.457  12.595 -0.2877  0.2191 -0.6489
10567TIP3    H253117   4.373   0.528  12.487  0.2922  0.2962 -0.1770
10568TIP3   OH253118   3.081   5.151   5.151  0.1574 -0.1330 -0.0211
10568TIP3    H153119   3.076   5.062   5.183 -1.2922 -0.0015  0.1922
10568TIP3    H253120   3.175   5.170   5.145  0.4748 -1.6875 -0.1666
10569TIP3   OH253121   5.114   4.477   0.201  0.3908 -0.3631  0.4063
10569TIP3    H153122   5.123   4.382   0.197 -0.5156 -0.4011 -1.6559
10569TIP3    H253123   5.174   4.503   0.271  1.4085 -2.3449  0.3503
10570TIP3   OH253124   3.562   3.489   2.963  0.2072 -0.5811  0.2076
10570TIP3    H153125   3.632   3.539   3.005  0.6295 -1.0990  0.1300
10570TIP3    H253126   3.535   3.425   3.029  1.5227 -2.0274 -0.5973
10571TIP3   OH253127   4.205   0.576   0.438 -0.2200  0.5130 -0.0518
10571TIP3    H153128   4.245   0.496   0.473  0.7392  0.1405 -1.8340
10571TIP3    H253129   4.255   0.647   0.478 -1.9752  0.3877  2.6457
10572TIP3   OH253130   6.096   1.698   0.700 -0.0082  0.1035  0.5192
10572TIP3    H153131   6.119   1.722   0.790  1.4789 -0.3382  0.2852
10572TIP3    H253132   6.032   1.627   0.710  0.3876 -0.1649  1.2312
10573TIP3   OH253133   6.129   5.208   4.494  0.2400  0.1773  0.3214
10573TIP3    H153134   6.128   5.300   4.467 -1.1186  0.2720  0.6096
10573TIP3    H253135   6.096   5.160   4.419  1.0027 -0.0924  0.1507
10574TIP3   OH253136   3.193   4.225   1.220  0.0922 -0.0130  0.0487
10574TIP3    H153137   3.243   4.283   1.162  0.8475  0.0629  0.7596
10574TIP3    H253138   3.167   4.281   1.293 -2.1303  0.2683 -0.8729
10575TIP3   OH253139   1.200   4.450  12.058 -0.1036  0.8374 -0.2208
10575TIP3    H153140   1.123   4.415  12.012 -0.1265  1.1235 -0.4050
10575TIP3    H253141   1.247   4.499  11.991  0.6904 -0.0300 -0.3166
10576TIP3   OH253142   5.207   3.655   5.834  0.0789  0.8150  0.0951
10576TIP3    H153143   5.301   3.645   5.846 -0.3197 -2.8800  1.2950
10576TIP3    H253144   5.182   3.723   5.897  1.5100 -0.7457  2.4890
10577TIP3   OH253145   5.220   2.216   1.973  1.1619  0.1700 -0.1242
10577TIP3    H153146   5.260   2.301   1.959  0.7434  0.3334 -0.3523
10577TIP3    H253147   5.237   2.195   2.065 -1.5958  2.0024  0.8969
10578TIP3   OH253148   4.756   5.495   5.105 -0.2226  0.0423  0.6283
10578TIP3    H153149   4.687   5.437   5.138 -1.6577  2.0653  1.4167
10578TIP3    H253150   4.812   5.512   5.180  1.4873 -1.9196 -0.1059
10579TIP3   OH253151   6.443   3.377  11.745 -0.4460  0.0775  0.1755
10579TIP3    H153152   6.374   3.444  11.743 -0.5468 -0.0387 -0.7164
10579TIP3    H253153   6.496   3.399  11.821 -0.8390  0.8123  0.2451
10580TIP3   OH253154   2.250   5.404   3.990  0.0130 -0.3334 -0.0892
10580TIP3    H153155   2.298   5.467   3.937 -0.1707  0.2117  0.3836
10580TIP3    H253156   2.292   5.320   3.972  1.3837  0.1782  0.6076
10581TIP3   OH253157   1.911   3.769   5.794  0.0271 -0.1337  0.1312
10581TIP3    H153158   1.940   3.769   5.703 -1.0905 -0.3247 -0.2307
10581TIP3    H253159   1.867   3.685   5.806 -1.9454  0.8485  0.1472
10582TIP3   OH253160   0.487   4.011  12.829  0.1935 -0.0500  0.2595
10582TIP3    H153161   0.540   4.089  12.813 -2.0035  1.2825 -1.1477
10582TIP3    H253162   0.549   3.945  12.858  2.3360  1.8604  0.3046
10583TIP3   OH253163   2.683   4.825   5.283 -0.2125  0.0488  0.2279
10583TIP3    H153164   2.699   4.755   5.219  1.1877  0.1841  0.3958
10583TIP3    H253165   2.662   4.902   5.230 -2.4269 -0.6100  0.0556
10584TIP3   OH253166   0.114   5.051  14.919 -0.0553 -0.1129  0.2762
10584TIP3    H153167   0.099   4.960  14.946 -2.1096 -0.0887 -0.5940
10584TIP3    H253168   0.130   5.046  14.825 -0.0599  0.3975  0.2478
10585TIP3   OH253169   1.731   2.882   6.131 -0.1153  0.0015  0.7854
10585TIP3    H153170   1.786   2.960   6.122 -1.2572  0.7323 -0.1748
10585TIP3    H253171   1.641   2.917   6.132 -0.6139 -1.2508  1.1021
10586TIP3   OH253172   5.333   4.692  11.721 -0.2406  0.0789  0.4438
10586TIP3    H153173   5.267   4.624  11.710  0.5794 -0.7157  0.3794
10586TIP3    H253174   5.391   4.659  11.789  0.7645  0.2308 -0.3151
10587TIP3   OH253175   2.088   4.238   0.256  0.1284 -0.1002  0.7637
10587TIP3    H153176   1.997   4.224   0.229 -0.2095  2.0105  0.5933
10587TIP3    H253177   2.104   4.171   0.322 -1.2905 -1.0158  0.2283
10588TIP3   OH253178   2.727   0.118   4.298 -0.3246  0.4520  0.5657
10588TIP3    H153179   2.743   0.116   4.204 -3.7042 -0.8216 -0.1353
10588TIP3    H253180   2.670   0.195   4.311 -0.7521  0.0157  1.3706
10589TIP3   OH253181   3.499   4.740   0.286 -0.0594  0.2583 -0.0284
10589TIP3    H153182   3.413   4.782   0.285  0.1416  0.7613  1.4656
10589TIP3    H253183   3.559   4.810   0.310  1.0318  0.3020 -2.5970
10590TIP3   OH253184   4.978   4.377   6.008  0.1264  0.5517 -0.8205
10590TIP3    H153185   4.917   4.422   6.066 -0.4936  0.9054 -1.7229
10590TIP3    H253186   4.922   4.324   5.951  0.6095  1.2328 -1.9656
10591TIP3   OH253187   5.406   1.611  17.107 -0.1205 -0.4785 -0.0399
10591TIP3    H153188   5.446   1.572  17.185  0.9030 -1.7192 -1.1332
10591TIP3    H253189   5.410   1.705  17.122 -0.0572 -0.6979  1.4456
10592TIP3   OH253190   1.581   3.490   3.642  0.0291  0.1024  0.2669
10592TIP3    H153191   1.554   3.411   3.594  1.2587  0.6430 -1.3906
10592TIP3    H253192   1.642   3.534   3.584 -0.9477  2.5396  0.9602
10593TIP3   OH253193   0.983   2.583   1.422  0.2628 -0.6306  0.3083
10593TIP3    H153194   1.062   2.638   1.421 -0.3470  0.2955 -1.3374
10593TIP3    H253195   0.950   2.590   1.511  0.6331  1.1029  0.3463
10594TIP3   OH253196   3.663   0.075  14.176  0.2345  0.1112  0.6907
10594TIP3    H153197   3.636   0.006  14.238  0.4479 -0.8178 -0.2218
10594TIP3    H253198   3.582   0.120  14.154 -0.2188 -1.0112 -0.0569
10595TIP3   OH253199   3.932   0.290  14.088  0.8873 -0.1835  0.5159
10595TIP3    H153200   3.994   0.222  14.062  1.9985  0.3814  1.5859
10595TIP3    H253201   3.979   0.372  14.075 -0.6990  0.4786 -1.4819
10596TIP3   OH253202   6.224   6.271   2.041 -0.3554  0.4687  0.1896
10596TIP3    H153203   6.129   6.266   2.027 -0.4420 -0.1444  0.9687
10596TIP3    H253204   6.234   6.330   2.116 -0.1649 -0.0315  0.5620
10597TIP3   OH253205   3.312   6.092  11.688  0.4075  0.4541 -0.3083
10597TIP3    H153206   3.277   6.146  11.617  0.0970  1.6585  0.7166
10597TIP3    H253207   3.235   6.069  11.740  0.5998 -0.6288 -0.4792
10598TIP3   OH253208   0.303   0.649  15.340 -0.3092  0.5068 -0.0695
10598TIP3    H153209   0.358   0.654  15.418  0.5743  0.4163 -0.6749
10598TIP3    H253210   0.364   0.627  15.269 -1.2076 -0.1636 -0.6596
10599TIP3   OH253211   0.925   0.825   3.585 -0.4891 -0.1471 -0.2172
10599TIP3    H153212   0.967   0.826   3.499 -2.7722 -2.5056 -1.4894
10599TIP3    H253213   0.874   0.906   3.588 -0.1233  0.1182 -0.9233
10600TIP3   OH253214   1.834   1.389  15.556  0.3327 -0.0102  0.4805
10600TIP3    H153215   1.790   1.387  15.471 -0.9052  0.7369  1.0900
10600TIP3    H253216   1.789   1.457  15.605  2.6662  1.3520  0.8687
10601TIP3   OH253217   5.261   0.461   5.776  0.1386  0.4356  0.2216
10601TIP3    H153218   5.209   0.394   5.820 -1.3187 -0.2263 -2.2622
10601TIP3    H253219   5.198   0.529   5.753  0.3075 -0.2173 -2.5513
10602TIP3   OH253220   2.790   3.746  16.934  0.1275 -0.6337 -0.0258
10602TIP3    H153221   2.829   3.694  16.864  1.0270 -0.6022  0.4445
10602TIP3    H253222   2.802   3.693  17.013 -1.4494 -0.9623  0.0302
10603TIP3   OH253223   3.331   2.120  17.316  0.1484  0.0191 -0.0429
10603TIP3    H153224   3.386   2.179  17.264 -0.5837  0.7653 -0.0125
10603TIP3    H253225   3.307   2.172  17.393 -1.4194  0.1102 -0.5495
10604TIP3   OH253226   4.508   0.796   2.508  0.5528  0.2111  0.3980
10604TIP3    H153227   4.522   0.798   2.603 -0.6937 -1.4868  0.6716
10604TIP3    H253228   4.582   0.747   2.473  1.4920  1.6145  0.3528
10605TIP3   OH253229   5.212   4.425  13.908 -0.1712 -0.2051  0.3388
10605TIP3    H153230   5.194   4.518  13.913 -1.1368 -0.4058  0.9544
10605TIP3    H253231   5.303   4.416  13.934  0.8757  0.8389 -2.5824
10606TIP3   OH253232   2.567   5.068   6.226 -0.1661 -0.1736 -0.3044
10606TIP3    H153233   2.608   5.082   6.311  0.5114 -0.3533 -0.5915
10606TIP3    H253234   2.482   5.112   6.232 -0.2582 -0.4607  0.5630
10607TIP3   OH253235   0.166   0.483  16.110 -0.2061  1.0481 -0.4679
10607TIP3    H153236   0.236   0.521  16.163  0.5697 -0.6093 -0.2407
10607TIP3    H253237   0.206   0.407  16.068 -2.5279 -1.6738  1.8643
10608TIP3   OH253238   0.499   0.345  12.339 -0.4561  0.1317  0.1401
10608TIP3    H153239   0.590   0.345  12.308  0.3116  0.4567  2.2441
10608TIP3    H253240   0.471   0.436  12.330 -0.9518 -0.1440 -1.4304
10609TIP3   OH253241   2.137   2.124  16.581 -0.2124  0.1347 -0.1451
10609TIP3    H153242   2.194   2.049  16.598 -1.8232 -0.7747  1.7082
10609TIP3    H253243   2.178   2.196  16.629 -0.1069 -0.2828  0.4093
10610TIP3   OH253244   0.915   6.204   1.565  0.6197  0.4679 -0.3000
10610TIP3    H153245   0.858   6.163   1.631  0.8848  1.0783  0.3205
10610TIP3    H253246   0.877   6.177   1.481 -1.7161  2.3226  0.0477
10611TIP3   OH253247   2.650   6.067   0.350  0.6285 -0.4142  0.8944
10611TIP3    H153248   2.695   6.147   0.376  0.6055 -0.2866  0.5455
10611TIP3    H253249   2.600   6.041   0.428  0.8448 -0.2370  1.0924
10612TIP3   OH253250   4.574   2.166  11.893 -0.2761  0.2897  0.1346
10612TIP3    H153251   4.541   2.132  11.976 -0.3580 -1.2877 -0.4995
10612TIP3    H253252   4.504   2.146  11.830  0.0159  0.9616 -0.4098
10613TIP3   OH253253   4.745   3.919  12.909  1.2812  0.8208  0.3733
10613TIP3    H153254   4.694   3.906  12.990  0.2361  2.4373  0.0241
10613TIP3    H253255   4.772   3.831  12.884  0.6824  0.1651  1.8873
10614TIP3   OH253256   0.259   6.129  11.253  0.0412  0.0404  0.7154
10614TIP3    H153257   0.316   6.109  11.179 -1.6324 -1.1949 -0.3200
10614TIP3    H253258   0.221   6.214  11.233 -1.2775 -0.7848 -0.4896
10615TIP3   OH253259   4.675   6.215  15.634  0.5359 -0.0438  0.2424
10615TIP3    H153260   4.666   6.203  15.539 -0.1368  0.6878  0.2000
10615TIP3    H253261   4.593   6.258  15.660  2.0121  2.7210  0.6480
10616TIP3   OH253262   2.354   6.641  11.736  0.5138 -0.2836 -0.4422
10616TIP3    H153263   2.280   6.581  11.737 -0.4058  0.8186 -1.0962
10616TIP3    H253264   2.423   6.594  11.689  0.8259 -1.9523  1.5240
10617TIP3   OH253265   6.543   3.553   2.903 -0.0464 -0.4653 -0.0292
10617TIP3    H153266   6.514   3.588   2.987  0.2209 -1.6330  0.5764
10617TIP3    H253267   6.473   3.577   2.841 -0.9803 -0.8971  0.8342
10618TIP3   OH253268   0.997   0.704   0.322  0.2268 -0.9626  0.2916
10618TIP3    H153269   1.052   0.629   0.348 -1.4317 -2.1616  0.5270
10618TIP3    H253270   0.990   0.696   0.227 -0.5976 -1.5989  0.3975
10619TIP3   OH253271   6.476   2.270  11.794 -0.0419  0.0624  0.3374
10619TIP3    H153272   6.569   2.285  11.775 -0.0029 -0.4432  0.1167
10619TIP3    H253273   6.433   2.350  11.765  0.0141 -0.6709 -1.9987
10620TIP3   OH253274   6.759   2.008   5.753 -0.6321  0.5101 -0.0134
10620TIP3    H153275   6.754   1.967   5.666 -1.0958 -0.0267  0.2590
10620TIP3    H253276   6.853   2.009   5.774 -0.5614  0.1887 -0.3076
10621TIP3   OH253277   2.833   3.950  12.684 -0.0254 -0.6123 -0.3115
10621TIP3    H153278   2.834   3.922  12.775  1.8912  1.4867  0.4207
10621TIP3    H253279   2.740   3.953  12.661 -0.5525 -1.3016  1.5115
10622TIP3   OH253280   2.471   5.607   4.918  0.5137  0.0728 -0.5302
10622TIP3    H153281   2.515   5.540   4.972 -2.3054 -3.3716 -2.0802
10622TIP3    H253282   2.410   5.650   4.978 -0.1275 -1.2883 -0.1630
10623TIP3   OH253283   3.243   4.742  12.479  0.2144 -0.1540 -0.5626
10623TIP3    H153284   3.237   4.719  12.572 -2.5821  3.9247  0.5456
10623TIP3    H253285   3.337   4.741  12.461  0.8375 -1.5858  2.1194
10624TIP3   OH253286   4.285   2.670   1.583  0.5891  0.1268 -0.4092
10624TIP3    H153287   4.331   2.632   1.658  0.8195  0.3172 -0.4545
10624TIP3    H253288   4.216   2.723   1.622 -0.1399 -0.8420 -0.3529
10625TIP3   OH253289   2.261   4.617  12.614  0.4622  0.3025  0.4019
10625TIP3    H153290   2.200   4.680  12.576  1.3167  1.8986  1.5711
10625TIP3    H253291   2.265   4.640  12.707  3.1866  0.6223  0.3015
10626TIP3   OH253292   5.449   5.833  16.514 -0.0341  0.5032 -0.2489
10626TIP3    H153293   5.457   5.923  16.545  2.1782  0.2993 -0.0623
10626TIP3    H253294   5.520   5.786  16.559 -1.8043 -1.6163  0.5408
10627TIP3   OH253295   0.951   0.432   3.034 -0.3175 -0.5621  0.5389
10627TIP3    H153296   0.975   0.512   2.987  2.3606 -0.4201  1.9224
10627TIP3    H253297   0.901   0.463   3.110  1.1044 -0.0775  1.3228
10628TIP3   OH253298   1.967   1.959  16.829  0.1488 -0.2900 -0.0505
10628TIP3    H153299   2.038   1.993  16.775  0.5960  0.8658  1.1869
10628TIP3    H253300   1.994   1.870  16.852  1.8706  0.5691  1.4576
10629TIP3   OH253301   2.956   5.008   4.590 -0.7183  0.0192  0.3967
10629TIP3    H153302   3.051   5.015   4.595 -0.4930  0.5062 -2.6001
10629TIP3    H253303   2.931   4.956   4.667  1.8969  0.1965  1.4510
10630TIP3   OH253304   0.048   5.814  13.570 -0.7671 -0.1386  0.0702
10630TIP3    H153305   0.057   5.887  13.632 -1.5467  0.8561 -0.9383
10630TIP3    H253306   0.051   5.736  13.625  2.7348  0.4322  0.9553
10631TIP3   OH253307   1.387   2.450  11.379 -0.3550  0.0787 -0.2769
10631TIP3    H153308   1.309   2.501  11.357 -0.3904 -0.0800 -0.5297
10631TIP3    H253309   1.409   2.405  11.298 -0.2256 -0.1780 -0.0989
10632TIP3   OH253310   6.419   4.120   3.893  0.2663  0.3339 -0.0068
10632TIP3    H153311   6.420   4.025   3.909 -1.3865  0.4315  0.8940
10632TIP3    H253312   6.499   4.152   3.936  0.2393 -0.5222  0.7179
10633TIP3   OH253313   3.731   2.306  12.258 -0.2090  0.3994  0.3874
10633TIP3    H153314   3.641   2.284  12.283  0.2522  0.6613  2.5248
10633TIP3    H253315   3.784   2.235  12.293  0.5868  1.2433  0.9706
10634TIP3   OH253316   3.631   3.025   0.522  0.1445 -0.3620  0.7306
10634TIP3    H153317   3.702   3.084   0.547  0.3601 -0.0635 -0.4819
10634TIP3    H253318   3.668   2.937   0.533 -0.0122 -0.2821  2.0688
10635TIP3   OH253319   2.224   4.647  13.985  0.5679 -0.1118 -0.3967
10635TIP3    H153320   2.270   4.617  14.064 -0.3501 -1.6841 -0.4183
10635TIP3    H253321   2.180   4.569  13.952 -2.7339  1.3974  0.0221
10636TIP3   OH253322   4.042   1.338  11.581  0.0364  0.1818  0.1344
10636TIP3    H153323   3.980   1.399  11.622  0.4161 -0.2802  1.4517
10636TIP3    H253324   4.001   1.315  11.498 -1.1136  0.6006  0.5615
10637TIP3   OH253325   0.193   0.477  12.237 -0.3262  0.2741  0.3627
10637TIP3    H153326   0.279   0.516  12.221 -0.4247 -0.0281 -0.9755
10637TIP3    H253327   0.131   0.545  12.210 -0.5119 -0.9691 -2.7570
10638TIP3   OH253328   4.155   5.186   3.734  0.0646 -0.2334  0.1498
10638TIP3    H153329   4.166   5.248   3.805  0.3666  1.1264 -1.0524
10638TIP3    H253330   4.218   5.116   3.753  1.0539  0.7441  0.5411
10639TIP3   OH253331   1.736   1.875  15.865  0.1344 -0.4881  0.1813
10639TIP3    H153332   1.812   1.825  15.835  0.1124 -0.6210  0.3452
10639TIP3    H253333   1.714   1.932  15.792  1.0033  0.2726  0.4982
10640TIP3   OH253334   1.525   2.309   5.558  0.9345  0.4550  0.7569
10640TIP3    H153335   1.458   2.378   5.553  1.8652  1.4262  1.2999
10640TIP3    H253336   1.513   2.259   5.477 -0.4126  0.6302  0.8190
10641TIP3   OH253337   3.618   3.684   6.021  0.1142 -0.6218 -0.2579
10641TIP3    H153338   3.538   3.737   6.026 -0.4468 -1.4277 -0.4342
10641TIP3    H253339   3.684   3.735   6.068 -0.4107  0.2233 -0.4217
10642TIP3   OH253340   2.431   5.306   4.795  0.4450  0.1491 -0.0155
10642TIP3    H153341   2.522   5.298   4.824  0.7125  1.1423 -0.5468
10642TIP3    H253342   2.399   5.386   4.837  0.3708  0.7702 -1.1983
10643TIP3   OH253343   6.391   0.410   4.863 -0.1358  0.1587 -0.0267
10643TIP3    H153344   6.436   0.461   4.795  1.9060  0.3679  1.4160
10643TIP3    H253345   6.316   0.465   4.887  1.0687  1.7352  0.3037
10644TIP3   OH253346   4.598   2.024  10.401  0.4954 -0.3850  0.8896
10644TIP3    H153347   4.533   1.958  10.427  0.5958 -0.7005  0.3654
10644TIP3    H253348   4.656   1.977  10.341 -0.7001  0.7440 -1.2537
10645TIP3   OH253349   3.225   4.853   4.866  0.5748  0.8768 -0.4175
10645TIP3    H153350   3.184   4.784   4.918  1.2338  1.6728  1.2072
10645TIP3    H253351   3.318   4.849   4.889  0.7226  1.8911 -0.7902
10646TIP3   OH253352   5.071   5.796  13.874  0.0337 -0.3698 -0.5028
10646TIP3    H153353   5.000   5.820  13.815 -1.9471 -2.5194  0.8411
10646TIP3    H253354   5.081   5.873  13.931  0.3313  0.7738 -2.0116
10647TIP3   OH253355   5.507   0.438  10.692 -0.3508 -0.8348  0.0499
10647TIP3    H153356   5.443   0.508  10.704 -0.1811 -0.6704 -0.0165
10647TIP3    H253357   5.588   0.482  10.668 -0.4367 -1.0937 -0.7657
10648TIP3   OH253358   1.627   1.201   0.912 -0.1185  0.1954 -0.0245
10648TIP3    H153359   1.546   1.247   0.891 -1.1325 -0.7457  1.6329
10648TIP3    H253360   1.652   1.159   0.829 -0.5199  1.6240 -0.9148
10649TIP3   OH253361   6.036   1.051  12.899  0.4165 -0.5008 -0.3029
10649TIP3    H153362   6.010   1.011  12.981  0.7081 -0.3447 -0.1301
10649TIP3    H253363   6.126   1.081  12.914  0.7596 -1.1848 -0.9380
10650TIP3   OH253364   3.121   0.019  16.081 -0.0099  0.2515 -0.1172
10650TIP3    H153365   3.041  -0.012  16.125  0.3544 -1.4776 -0.5727
10650TIP3    H253366   3.100   0.013  15.987  0.7543 -0.5451 -0.2444
10651TIP3   OH253367   4.183   5.619   0.977 -0.4829  0.4417 -0.4833
10651TIP3    H153368   4.114   5.638   1.042 -0.4820  1.5091 -0.7767
10651TIP3    H253369   4.177   5.691   0.914  0.3956  0.1251 -0.9415
10652TIP3   OH253370   4.767   1.131   4.861 -0.9296 -0.2992 -0.1972
10652TIP3    H153371   4.794   1.047   4.823 -1.0591 -1.1159  1.4460
10652TIP3    H253372   4.777   1.119   4.955 -2.8445  0.8847  0.1966
10653TIP3   OH253373   2.959   3.677  13.951 -0.2074 -0.1445 -0.3118
10653TIP3    H153374   3.030   3.614  13.963  1.0631  0.4944 -3.3294
10653TIP3    H253375   3.000   3.762  13.970 -0.4625  0.1232 -0.9091
10654TIP3   OH253376   4.445   2.153   4.037  0.5798  0.7963 -0.2408
10654TIP3    H153377   4.459   2.212   3.962  0.0481  0.6356 -0.4680
10654TIP3    H253378   4.534   2.133   4.067  0.7650  1.9427  0.0242
10655TIP3   OH253379   1.623   0.507  12.672 -0.5027  0.2971 -0.0249
10655TIP3    H153380   1.687   0.485  12.604 -2.3074 -2.0265 -1.1165
10655TIP3    H253381   1.542   0.524  12.623 -2.2731 -2.9637  1.4564
10656TIP3   OH253382   0.219   6.770  13.694 -0.0067 -0.4216 -0.5508
10656TIP3    H153383   0.283   6.835  13.665 -0.5496  0.8503  0.9753
10656TIP3    H253384   0.134   6.811  13.678 -0.3788  0.7358  3.2244
10657TIP3   OH253385   6.003   2.850  16.352 -0.1884 -0.8177 -0.1244
10657TIP3    H153386   5.994   2.766  16.306  0.8903 -0.6140 -0.7383
10657TIP3    H253387   6.071   2.897  16.303  0.6982 -0.4258  1.4270
10658TIP3   OH253388   5.583   1.066   2.642  0.4345  0.2390  0.6277
10658TIP3    H153389   5.592   0.975   2.671  1.0065  0.6175  1.6935
10658TIP3    H253390   5.557   1.113   2.721 -0.4039  0.9209 -0.0359
10659TIP3   OH253391   1.071   1.890   2.241 -0.3733  0.0266 -0.2114
10659TIP3    H153392   1.048   1.948   2.168  0.7543 -0.3965 -0.9251
10659TIP3    H253393   0.987   1.851   2.267 -0.7125 -0.3285 -1.7299
10660TIP3   OH253394   1.919   4.978  13.851 -0.3334 -0.0672  0.4479
10660TIP3    H153395   1.957   5.065  13.846 -0.5650 -0.0488 -1.5897
10660TIP3    H253396   1.826   4.991  13.835 -0.0077 -0.8986 -2.8762
10661TIP3   OH253397   2.942   3.023   1.001 -0.3014  0.0743  0.3468
10661TIP3    H153398   2.966   3.115   1.004  0.4266 -0.0626 -0.8185
10661TIP3    H253399   2.880   3.016   0.928 -0.7070 -0.2952  0.7165
10662TIP3   OH253400   3.533   2.897  11.730  0.5309 -0.2278 -0.3130
10662TIP3    H153401   3.604   2.838  11.705  0.3240 -0.5610 -0.1248
10662TIP3    H253402   3.456   2.840  11.736  0.0024  0.2935 -1.5875
10663TIP3   OH253403   5.595   0.848  16.230 -0.3436 -0.0034 -0.8607
10663TIP3    H153404   5.606   0.767  16.281 -0.5279 -0.1305 -1.0230
10663TIP3    H253405   5.623   0.824  16.142 -1.4725 -0.2070 -1.1821
10664TIP3   OH253406   5.807   3.483   0.129 -0.1086  0.0864  0.4769
10664TIP3    H153407   5.804   3.565   0.179 -1.4332 -0.8124  1.9504
10664TIP3    H253408   5.900   3.459   0.128  0.1613  1.0503  0.9367
10665TIP3   OH253409   4.807   0.288   4.793 -0.0921 -0.4377  0.0717
10665TIP3    H153410   4.779   0.364   4.842  2.2435  0.9249 -0.5342
10665TIP3    H253411   4.775   0.303   4.704 -1.4640 -1.2647  0.4004
10666TIP3   OH253412   1.969   1.866   2.379  0.1690  0.1598  0.2242
10666TIP3    H153413   1.905   1.798   2.401  0.2149  0.0610  0.0522
10666TIP3    H253414   2.007   1.837   2.296 -1.9955  1.9165 -1.4918
10667TIP3   OH253415   4.341   5.165   0.238 -0.3783 -0.1642  0.5911
10667TIP3    H153416   4.375   5.076   0.244  0.9422  0.3624  1.2439
10667TIP3    H253417   4.407   5.213   0.188 -1.3135  0.3523 -0.1842
10668TIP3   OH253418   0.153   4.790  12.089  0.7220 -0.8625 -0.4706
10668TIP3    H153419   0.178   4.708  12.048 -0.4032 -0.2232 -2.6317
10668TIP3    H253420   0.080   4.822  12.036  0.0067  0.7132  1.3225
10669TIP3   OH253421   5.613   6.540   0.149  0.0344  0.5580  0.0527
10669TIP3    H153422   5.539   6.527   0.090  0.1047 -0.2307  0.1214
10669TIP3    H253423   5.677   6.474   0.123  0.4577  0.8245  0.3951
10670TIP3   OH253424   4.884   0.027   1.138  0.2815 -0.0562 -0.3381
10670TIP3    H153425   4.822   0.066   1.199 -1.2288 -1.3464 -0.9845
10670TIP3    H253426   4.837  -0.047   1.099  1.1315  0.7260 -3.0877
10671TIP3   OH253427   0.418   0.208   6.453 -0.5090  0.1090 -0.6302
10671TIP3    H153428   0.372   0.136   6.496 -0.9458  0.7886  0.0712
10671TIP3    H253429   0.430   0.179   6.363  0.6508 -1.4510 -0.0064
10672TIP3   OH253430   5.822   5.494   3.575  0.6153 -0.2215  0.6764
10672TIP3    H153431   5.741   5.459   3.538 -0.1981  1.7563  0.4713
10672TIP3    H253432   5.832   5.449   3.659 -0.6300 -0.5977  0.6396
10673TIP3   OH253433   4.387   2.146  13.549  0.1063 -0.3757  0.3148
10673TIP3    H153434   4.465   2.110  13.590  0.8520 -1.4140 -1.8270
10673TIP3    H253435   4.322   2.076  13.555  0.1817 -0.4894 -0.1126
10674TIP3   OH253436   6.005   3.494  16.675  0.0991 -0.2078  0.1245
10674TIP3    H153437   5.931   3.465  16.621  0.8567  0.7796 -1.5350
10674TIP3    H253438   6.029   3.417  16.726 -1.7233 -0.7028  0.3130
10675TIP3   OH253439   3.436   5.833   0.244  0.2473  0.2644 -0.1363
10675TIP3    H153440   3.493   5.865   0.315 -0.8808  0.9482  0.4919
10675TIP3    H253441   3.347   5.843   0.278 -0.3273  0.6231 -1.6642
10676TIP3   OH253442   1.013   4.787   4.877  0.2270  0.0417  0.3211
10676TIP3    H153443   0.999   4.701   4.838  2.7083 -0.1046 -0.3586
10676TIP3    H253444   1.025   4.770   4.970 -1.2280 -0.0888  0.5117
10677TIP3   OH253445   6.737   2.271   2.782 -0.9896 -0.1994 -0.1101
10677TIP3    H153446   6.794   2.202   2.814 -0.9746 -0.3157 -0.3868
10677TIP3    H253447   6.677   2.227   2.722 -1.4822 -0.1110  0.3072
10678TIP3   OH253448   5.519   3.301  16.437  0.5685  0.4579 -0.2306
10678TIP3    H153449   5.488   3.379  16.485  1.0194 -0.4138  1.5528
10678TIP3    H253450   5.464   3.298  16.359 -1.4088  0.9809  1.0688
10679TIP3   OH253451   3.655   2.416   4.327 -0.5340 -0.3083  0.3612
10679TIP3    H153452   3.597   2.490   4.308  0.1346 -0.0035 -0.5356
10679TIP3    H253453   3.626   2.346   4.269  0.7579  0.2493 -1.0422
10680TIP3   OH253454   1.408   1.943  16.384 -0.4466  0.7988 -0.3513
10680TIP3    H153455   1.475   1.893  16.431 -1.8251  1.4687  2.5449
10680TIP3    H253456   1.457   1.997  16.322  1.4765 -0.2426  0.1872
10681TIP3   OH253457   1.698   3.949  16.965 -0.1775  0.5123 -0.2933
10681TIP3    H153458   1.715   3.976  16.874  1.8449  1.4214  0.2856
10681TIP3    H253459   1.680   4.031  17.011 -0.3635  0.1496  0.2912
10682TIP3   OH253460   1.874   5.891  15.620 -0.8848  0.8487  0.1829
10682TIP3    H153461   1.940   5.824  15.599 -1.0120  0.5258  0.8030
10682TIP3    H253462   1.800   5.841  15.655 -1.2683  1.2548 -0.0431
10683TIP3   OH253463   0.799   3.814  15.019 -0.1230  0.2739 -0.1380
10683TIP3    H153464   0.829   3.863  14.943  0.4290  0.8600  0.4474
10683TIP3    H253465   0.858   3.739  15.025 -1.4095 -0.9136 -1.4621
10684TIP3   OH253466   1.514   2.411   0.661  0.2017  0.0968 -0.5400
10684TIP3    H153467   1.527   2.328   0.707  0.5563  1.0411  1.1486
10684TIP3    H253468   1.548   2.395   0.572 -0.0516 -1.6398 -0.3489
10685TIP3   OH253469   5.512   5.481  14.419  0.2396 -0.0056  0.6212
10685TIP3    H153470   5.559   5.523  14.347 -0.0146  0.3047  0.6349
10685TIP3    H253471   5.434   5.535  14.432 -0.0150 -0.3967  0.7392
10686TIP3   OH253472   0.546   3.993  12.122  0.1503  1.0682  0.1839
10686TIP3    H153473   0.604   3.940  12.176  0.5409  0.7684 -0.5257
10686TIP3    H253474   0.604   4.036  12.059 -0.4449  0.3169 -0.9103
10687TIP3   OH253475   0.611   5.671   3.779  0.1580 -0.1015  0.0424
10687TIP3    H153476   0.570   5.704   3.860  0.9826  0.5862  0.2050
10687TIP3    H253477   0.664   5.597   3.808 -0.0249 -0.2335  0.0362
10688TIP3   OH253478   1.235   3.868  10.843 -0.5927  0.1370  0.9969
10688TIP3    H153479   1.173   3.797  10.829  1.2405 -1.7198  1.6995
10688TIP3    H253480   1.274   3.883  10.756 -2.1165  1.4793  0.5033
10689TIP3   OH253481   2.465   1.605  14.577 -0.6185 -0.4086  0.1950
10689TIP3    H153482   2.484   1.601  14.483  0.1478  1.4577  0.2291
10689TIP3    H253483   2.463   1.514  14.605 -0.6474 -0.9955 -1.5881
10690TIP3   OH253484   4.234   6.146   5.081  0.5535  0.1148  0.1322
10690TIP3    H153485   4.245   6.195   5.162 -0.7895 -1.4099  1.2978
10690TIP3    H253486   4.169   6.079   5.102  0.5300 -0.6308 -2.0733
10691TIP3   OH253487   1.573   6.761   2.222  0.4487  0.4287  0.2596
10691TIP3    H153488   1.595   6.780   2.314 -0.0788  0.9363  0.2911
10691TIP3    H253489   1.554   6.667   2.221  0.6516  0.3804  0.6302
10692TIP3   OH253490   4.849   5.010  17.003 -0.3356  0.4792 -0.0524
10692TIP3    H153491   4.781   4.962  17.048  0.5167 -0.2909  0.4571
10692TIP3    H253492   4.916   4.944  16.983  0.7773  1.4071  0.4867
10693TIP3   OH253493   1.122   5.193   0.863 -0.1410 -0.6934  0.4729
10693TIP3    H153494   1.175   5.114   0.867  0.8941 -0.2047 -1.8970
10693TIP3    H253495   1.171   5.258   0.914  0.8232 -0.6614 -0.4593
10694TIP3   OH253496   0.512   3.719   4.386  0.1103  0.0130  0.1764
10694TIP3    H153497   0.603   3.734   4.361  0.1497  0.4927  0.5909
10694TIP3    H253498   0.484   3.645   4.331  0.4769  0.4228 -0.5746
10695TIP3   OH253499   3.979   1.007  14.637  0.0609 -0.2367  0.2162
10695TIP3    H153500   4.023   1.073  14.690 -0.3633  0.9226 -0.8039
10695TIP3    H253501   3.888   1.008  14.668  0.1890 -0.7984  0.6179
10696TIP3   OH253502   6.212   1.142  14.303  0.4837 -0.0725 -0.3200
10696TIP3    H153503   6.146   1.189  14.253 -1.7559 -1.0428  1.5245
10696TIP3    H253504   6.252   1.082  14.240 -0.8194  0.1379 -1.3849
10697TIP3   OH253505   4.588   0.100  16.053 -0.1634 -0.3014  0.3803
10697TIP3    H153506   4.528   0.146  15.994  0.5613  2.6266  1.7969
10697TIP3    H253507   4.533   0.071  16.126 -0.1611  0.8727  0.8548
10698TIP3   OH253508   5.182   1.328  11.359  0.2022  0.4057  0.4145
10698TIP3    H153509   5.209   1.280  11.280  0.7115  0.4607  0.5495
10698TIP3    H253510   5.176   1.419  11.330  1.2337  0.5527  0.6362
10699TIP3   OH253511   1.582   6.304  14.252  0.2386  0.0309 -0.7406
10699TIP3    H153512   1.638   6.378  14.277  0.9946 -0.8620  0.3032
10699TIP3    H253513   1.549   6.327  14.165  2.0804  0.6668 -1.3118
10700TIP3   OH253514   3.892   1.143  12.337  0.5939  0.3013  0.3926
10700TIP3    H153515   3.969   1.182  12.378  1.5830 -0.0008 -1.1070
10700TIP3    H253516   3.891   1.181  12.249 -1.4273  0.8912  0.6228
10701TIP3   OH253517   2.065   3.519  15.464 -0.2025 -0.2656  0.0522
10701TIP3    H153518   2.000   3.586  15.444  0.3407  0.3839  0.4256
10701TIP3    H253519   2.117   3.510  15.384 -0.2201 -0.1817  0.0317
10702TIP3   OH253520   1.869   5.348   1.858  0.5063  0.2103  0.2281
10702TIP3    H153521   1.955   5.312   1.837  0.3080  0.5939 -1.3123
10702TIP3    H253522   1.859   5.332   1.952  1.8614 -0.6685  0.2468
10703TIP3   OH253523   0.429   6.311   4.994  0.4428  0.2635 -0.0897
10703TIP3    H153524   0.507   6.355   5.027  1.1432 -0.9338 -0.0924
10703TIP3    H253525   0.461   6.255   4.924 -0.3156 -0.6937  0.3028
10704TIP3   OH253526   5.827   4.842  16.701  0.0336 -0.3971 -0.1420
10704TIP3    H153527   5.849   4.834  16.608 -0.1318 -2.9120 -0.0418
10704TIP3    H253528   5.764   4.771  16.716 -1.8562  1.5060  1.3833
10705TIP3   OH253529   2.782   1.540   0.621 -0.1763 -0.1911  0.3619
10705TIP3    H153530   2.857   1.567   0.568 -1.3212  0.7860 -0.8463
10705TIP3    H253531   2.738   1.473   0.569 -0.4916 -0.3076  0.7668
10706TIP3   OH253532   0.157   5.399  12.598 -0.0687 -0.2222  0.5019
10706TIP3    H153533   0.178   5.484  12.634 -0.1582  0.4251 -0.9014
10706TIP3    H253534   0.089   5.364  12.655 -0.6522  1.0260  0.5928
10707TIP3   OH253535   2.657   1.864  16.841 -0.5097  0.0454 -0.2226
10707TIP3    H153536   2.563   1.881  16.848 -0.6247 -0.1431 -1.1809
10707TIP3    H253537   2.698   1.938  16.887 -1.1327 -0.4138  1.1175
10708TIP3   OH253538   2.441   5.215  16.871 -0.2061 -0.5039 -0.2135
10708TIP3    H153539   2.354   5.179  16.890 -0.6338 -1.0796 -2.8017
10708TIP3    H253540   2.427   5.310  16.870 -1.1789 -0.6165 -1.8389
10709TIP3   OH253541   5.638   6.129   4.433  0.5526  0.1071  0.2456
10709TIP3    H153542   5.551   6.105   4.403  0.4493  0.5621  0.1760
10709TIP3    H253543   5.649   6.082   4.516  0.7971 -1.0777 -0.4245
10710TIP3   OH253544   3.406   1.300  13.427  0.4578  0.7489 -0.2113
10710TIP3    H153545   3.476   1.366  13.424  0.6562  0.5686  0.3334
10710TIP3    H253546   3.362   1.316  13.510  0.8741 -0.1806  0.1974
10711TIP3   OH253547   2.802   3.859   2.408 -0.3441  0.1331 -0.3195
10711TIP3    H153548   2.762   3.884   2.492 -0.7041  0.7550 -0.6675
10711TIP3    H253549   2.822   3.943   2.366  0.4502 -0.1748 -0.5644
10712TIP3   OH253550   5.961   0.016   3.750  0.7834 -0.1790  0.4682
10712TIP3    H153551   5.938  -0.064   3.702  0.5476 -0.4915  1.0818
10712TIP3    H253552   5.878   0.044   3.789  0.7102  0.8121 -0.3867
10713TIP3   OH253553   4.298   1.039   6.072  0.9646  1.2784  1.1054
10713TIP3    H153554   4.214   1.081   6.090  0.7393  0.9569  0.8335
10713TIP3    H253555   4.359   1.112   6.062  0.2974  1.6637 -0.8238
10714TIP3   OH253556   5.610   2.828  13.795 -0.1320 -0.1826  0.0858
10714TIP3    H153557   5.573   2.907  13.755  1.6664  0.1877 -0.9800
10714TIP3    H253558   5.681   2.861  13.851 -1.4028 -0.8423  2.1761
10715TIP3   OH253559   0.618   0.801  13.401  0.5238 -0.2154  0.2559
10715TIP3    H153560   0.702   0.770  13.368  0.6289  1.4990 -1.2149
10715TIP3    H253561   0.640   0.876  13.457 -0.0194  0.7285 -0.7435
10716TIP3   OH253562   0.292   4.772  16.555  0.8826 -0.2349 -0.0855
10716TIP3    H153563   0.276   4.853  16.507  0.5697 -1.0642 -1.4154
10716TIP3    H253564   0.233   4.776  16.630 -0.5547 -0.0981 -1.1853
10717TIP3   OH253565   4.172   1.110   1.531 -0.5613 -0.3651 -0.6868
10717TIP3    H153566   4.113   1.163   1.585 -0.9250 -0.8863 -0.5646
10717TIP3    H253567   4.134   1.022   1.534 -0.0355 -0.6043 -0.9909
10718TIP3   OH253568   0.948   4.438   6.485  0.1953  0.3799 -0.1371
10718TIP3    H153569   0.949   4.497   6.561  0.0738  1.1754 -0.7409
10718TIP3    H253570   0.992   4.359   6.516 -0.2992  0.4971  0.9157
10719TIP3   OH253571   6.742   0.652  16.043 -0.1864 -0.5070 -0.2785
10719TIP3    H153572   6.823   0.601  16.049  0.7817  0.9446 -0.4538
10719TIP3    H253573   6.685   0.615  16.110  0.5935 -1.6058 -0.1956
10720TIP3   OH253574   1.154   6.411   0.730 -0.0076  0.0971 -1.0761
10720TIP3    H153575   1.137   6.387   0.638 -1.8556  1.7270 -1.2271
10720TIP3    H253576   1.068   6.403   0.772  1.0172 -1.7903  0.8614
10721TIP3   OH253577   6.208   2.464  12.139 -0.4268  0.3970  0.2475
10721TIP3    H153578   6.202   2.373  12.168 -0.7161  0.2492 -0.2631
10721TIP3    H253579   6.149   2.469  12.064 -0.9914  1.1921  0.7289
10722TIP3   OH253580   3.597   4.230   0.374 -0.0678  0.1789  0.1184
10722TIP3    H153581   3.526   4.278   0.417  1.7149  1.4107  1.9319
10722TIP3    H253582   3.656   4.299   0.342  1.7052 -0.7121  1.2600
10723TIP3   OH253583   4.320   3.760   0.902  0.3785 -0.1489  0.2511
10723TIP3    H153584   4.387   3.735   0.838 -0.9632  0.1114 -1.3064
10723TIP3    H253585   4.260   3.685   0.904 -0.0654  0.2124  0.5622
10724TIP3   OH253586   2.617   4.185  14.148  0.1282 -0.1051  0.1005
10724TIP3    H153587   2.671   4.121  14.196  2.8432  0.0485 -2.4432
10724TIP3    H253588   2.587   4.137  14.071 -1.2505  0.5895  0.1868
10725TIP3   OH253589   6.071   3.854   0.956 -0.0903  0.9545  0.0593
10725TIP3    H153590   6.051   3.766   0.926 -0.3203  0.7538  0.7902
10725TIP3    H253591   5.988   3.902   0.945  0.1328  1.1917 -0.6921
10726TIP3   OH253592   4.010   2.545  14.291  0.1990  0.4056 -0.4260
10726TIP3    H153593   4.054   2.530  14.208 -0.7368  1.0262 -1.0495
10726TIP3    H253594   4.049   2.626  14.325  2.0920 -0.9284  0.8078
10727TIP3   OH253595   5.248   5.698   2.414  0.1012 -0.4731  0.2778
10727TIP3    H153596   5.230   5.657   2.330  0.7705 -1.4778  0.6101
10727TIP3    H253597   5.312   5.640   2.456  0.7507  0.6875  0.9382
10728TIP3   OH253598   6.339   2.385   4.019  0.3283  0.5123  0.1547
10728TIP3    H153599   6.365   2.303   4.062 -0.8349  0.5733  1.0408
10728TIP3    H253600   6.422   2.425   3.991  1.0913  0.0649  1.6439
10729TIP3   OH253601   1.385   4.826  14.607 -0.8297 -0.4393 -0.2695
10729TIP3    H153602   1.478   4.849  14.614 -0.6741 -1.2339  0.4175
10729TIP3    H253603   1.362   4.796  14.695 -2.1204  1.0941 -0.0341
10730TIP3   OH253604   0.569   1.391  15.365 -0.0832 -0.1664 -0.8041
10730TIP3    H153605   0.574   1.411  15.271  0.5114  0.1676 -0.7033
10730TIP3    H253606   0.572   1.295  15.369 -0.9241 -0.2214 -1.1701
10731TIP3   OH253607   4.148   5.792   0.780 -0.2279  0.0865  0.0961
10731TIP3    H153608   4.233   5.794   0.736 -0.2150  0.6650  0.1459
10731TIP3    H253609   4.085   5.774   0.710  0.0978 -2.3314  0.3278
10732TIP3   OH253610   6.098   1.854  16.275  0.3638 -0.2835  0.1946
10732TIP3    H153611   6.168   1.844  16.211 -1.3968  2.1413 -2.3303
10732TIP3    H253612   6.142   1.878  16.356  2.6173 -2.4363 -0.2831
10733TIP3   OH253613   0.576   1.974  14.487 -0.5874  0.3945  0.0065
10733TIP3    H153614   0.660   1.928  14.486 -0.8001 -0.0094  0.1675
10733TIP3    H253615   0.545   1.970  14.396 -0.6337  0.1584  0.0311
10734TIP3   OH253616   5.753   4.628  15.516  0.1890  0.6445 -0.1436
10734TIP3    H153617   5.725   4.555  15.572 -0.9756 -0.0791 -1.5855
10734TIP3    H253618   5.847   4.614  15.504  0.0913 -0.2880  0.0994
10735TIP3   OH253619   1.410   1.802  16.922 -0.1641  0.4848 -0.3367
10735TIP3    H153620   1.500   1.833  16.931  0.0728 -0.2076 -0.2284
10735TIP3    H253621   1.419   1.708  16.903 -0.8883 -0.1348  2.0590
10736TIP3   OH253622   4.770   4.530  11.871  0.0714 -0.2940  0.6508
10736TIP3    H153623   4.733   4.618  11.874 -0.1205 -0.3262 -0.4556
10736TIP3    H253624   4.748   4.498  11.784 -0.8666 -1.8833  1.4238
10737TIP3   OH253625   0.217   0.536   1.335 -0.2524 -0.3574 -0.7267
10737TIP3    H153626   0.268   0.457   1.350  0.7258  0.2007 -1.0860
10737TIP3    H253627   0.178   0.523   1.248  1.2070  0.2309 -1.5003
10738TIP3   OH253628   4.354   4.009   2.389 -0.6622  0.2825  0.3805
10738TIP3    H153629   4.396   4.043   2.468 -0.0062 -0.7141  0.4773
10738TIP3    H253630   4.389   3.920   2.379 -2.5683 -0.5159  0.3292
10739TIP3   OH253631   6.280   6.474   2.207  0.0862  0.2852  0.1910
10739TIP3    H153632   6.284   6.550   2.264  1.6891 -0.5259  1.2365
10739TIP3    H253633   6.371   6.445   2.199 -0.4936 -1.6030 -0.0334
10740TIP3   OH253634   2.343   3.373   2.059 -0.0301  0.5733 -0.0494
10740TIP3    H153635   2.356   3.323   2.139  2.1522  0.8193 -0.1901
10740TIP3    H253636   2.248   3.378   2.049 -0.3984 -2.8617  0.3700
10741TIP3   OH253637   3.925   5.526  15.293 -0.0190 -0.4292 -0.9032
10741TIP3    H153638   3.944   5.547  15.385  0.7386 -1.5275 -0.7909
10741TIP3    H253639   3.871   5.447  15.298 -3.7894  1.8788 -1.2666
10742TIP3   OH253640   3.521   6.352   6.193 -0.1441  0.1921 -0.2709
10742TIP3    H153641   3.455   6.296   6.152  0.8561 -0.6353 -0.8186
10742TIP3    H253642   3.526   6.320   6.284 -0.1032 -0.1188 -0.3815
10743TIP3   OH253643   6.495   1.601  14.002 -0.2001 -0.2085 -0.0344
10743TIP3    H153644   6.421   1.561  14.047  1.2550 -0.1682  2.5336
10743TIP3    H253645   6.552   1.527  13.979  0.2487 -0.0086  0.4380
10744TIP3   OH253646   4.777   3.812   6.121  0.7047  0.0349 -0.3400
10744TIP3    H153647   4.814   3.882   6.174  0.0172  1.1314 -1.2673
10744TIP3    H253648   4.686   3.803   6.151  0.8486 -0.6326 -0.0711
10745TIP3   OH253649   5.033   0.751  17.276 -0.1306 -0.1978  0.1748
10745TIP3    H153650   5.054   0.798  17.357 -0.2017 -0.1541  0.1677
10745TIP3    H253651   5.029   0.659  17.302  1.1319 -0.3309 -0.0261
10746TIP3   OH253652   6.194   4.227   4.080  0.5571 -0.3395  0.6683
10746TIP3    H153653   6.216   4.265   4.165  1.7290 -0.6133  0.5118
10746TIP3    H253654   6.278   4.225   4.033 -0.1792  0.3887 -0.7297
10747TIP3   OH253655   2.010   4.139  11.721  0.0586 -0.2574  0.5341
10747TIP3    H153656   1.970   4.142  11.808 -2.5703 -0.1678 -0.5800
10747TIP3    H253657   1.998   4.228  11.686  0.3619 -0.4945 -0.1972
10748TIP3   OH253658   5.920   5.962   1.233 -0.0270  0.3386 -0.1071
10748TIP3    H153659   5.964   6.047   1.229 -0.4150  0.5756  0.5773
10748TIP3    H253660   5.831   5.982   1.260  0.2289 -0.3918  1.3892
10749TIP3   OH253661   6.402   2.221   1.029 -0.2003 -0.0966 -0.7086
10749TIP3    H153662   6.455   2.269   1.093 -0.2065 -2.3169  1.0875
10749TIP3    H253663   6.312   2.245   1.050 -0.1239  0.3508 -0.8876
10750TIP3   OH253664   4.727   2.440  11.461 -0.0884  0.4290 -0.0509
10750TIP3    H153665   4.763   2.528  11.474  0.7864  0.0581  0.0812
10750TIP3    H253666   4.795   2.393  11.414  0.2632 -0.7435  1.5735
10751TIP3   OH253667   4.677   2.825  12.114 -0.5582 -0.0833 -0.0502
10751TIP3    H153668   4.744   2.773  12.069 -0.4256  0.1791 -0.1584
10751TIP3    H253669   4.626   2.761  12.163 -0.3663 -0.3106 -0.1445
10752TIP3   OH253670   5.093   6.746   4.804  0.1821 -0.2401  0.1519
10752TIP3    H153671   5.129   6.756   4.716 -3.3882  0.3526 -1.4417
10752TIP3    H253672   5.088   6.651   4.817 -0.0276 -0.3519 -0.6786
10753TIP3   OH253673   5.231   2.677  14.105 -0.0037  0.1954  0.1886
10753TIP3    H153674   5.179   2.630  14.041  0.3895 -2.6841  1.8255
10753TIP3    H253675   5.205   2.769  14.094 -3.6153 -0.7712 -0.6809
10754TIP3   OH253676   6.738   4.958   2.071 -0.3213  0.1257 -0.4327
10754TIP3    H153677   6.663   5.006   2.109  0.3570  0.0761  1.0186
10754TIP3    H253678   6.783   5.024   2.017 -2.0950 -0.1671 -2.4214
10755TIP3   OH253679   3.032   1.375  10.859  0.1559  0.3774 -0.1453
10755TIP3    H153680   2.970   1.442  10.830  2.0402  1.7164 -1.2705
10755TIP3    H253681   2.976   1.303  10.888 -1.9302  1.5992 -0.8696
10756TIP3   OH253682   2.080   3.938   2.082 -0.2214  0.0641  0.1328
10756TIP3    H153683   2.137   3.991   2.027  0.7062 -1.9303 -0.9532
10756TIP3    H253684   2.129   3.926   2.164 -0.8320  1.5664  0.7485
10757TIP3   OH253685   4.558   0.602   0.788 -0.7117  0.2515  0.1252
10757TIP3    H153686   4.637   0.634   0.744 -0.3469  0.3658  0.8438
10757TIP3    H253687   4.585   0.519   0.828 -1.8214 -1.3583 -2.2583
10758TIP3   OH253688   2.676   2.240   4.062 -0.1520 -0.7061  0.2897
10758TIP3    H153689   2.702   2.185   3.988 -0.3014 -1.0567  0.4937
10758TIP3    H253690   2.742   2.309   4.067 -0.3599 -0.4516 -0.4175
10759TIP3   OH253691   6.187   0.502  10.813 -0.5027 -0.1885  0.6698
10759TIP3    H153692   6.162   0.509  10.906 -0.2598  0.9596  0.6593
10759TIP3    H253693   6.281   0.517  10.812 -0.4778 -0.3563  0.2409
10760TIP3   OH253694   0.672   3.224   5.596 -0.2077 -0.3088 -0.1348
10760TIP3    H153695   0.767   3.239   5.593 -0.1131 -0.8446  0.0900
10760TIP3    H253696   0.649   3.202   5.506 -0.0018 -0.8498 -0.0586
10761TIP3   OH253697   0.036   3.770  12.211 -0.8149  0.0167 -0.7758
10761TIP3    H153698   0.086   3.823  12.150 -0.8810 -1.5685 -2.2934
10761TIP3    H253699   0.101   3.712  12.251 -0.5209  1.9610  1.8348
10762TIP3   OH253700   3.195   4.649  13.739  0.4686  0.7217 -0.0650
10762TIP3    H153701   3.129   4.718  13.732  1.0477  1.1266 -2.4353
10762TIP3    H253702   3.163   4.592  13.810 -0.4826  2.8843  1.3452
10763TIP3   OH253703   6.146   4.240   1.490  0.3505  0.2688  0.2149
10763TIP3    H153704   6.220   4.254   1.550  0.2017 -0.4307  0.5760
10763TIP3    H253705   6.089   4.178   1.536  0.2947 -0.3868 -0.7072
10764TIP3   OH253706   5.978   3.463  13.362  0.5028  0.5907  0.4386
10764TIP3    H153707   5.973   3.546  13.409  2.2980 -0.2263  2.2682
10764TIP3    H253708   5.916   3.471  13.290 -1.8872  2.2419  2.5249
10765TIP3   OH253709   5.014   0.328  12.638 -0.0804  0.3281 -0.2093
10765TIP3    H153710   5.108   0.316  12.625 -0.5634 -1.6416 -2.5146
10765TIP3    H253711   4.986   0.382  12.564 -0.5833  2.3801  1.3769
10766TIP3   OH253712   0.103   6.478   0.498  0.5492 -0.1393 -0.1783
10766TIP3    H153713   0.014   6.512   0.509  0.5689 -0.3532  0.6676
10766TIP3    H253714   0.096   6.386   0.522  1.5386  0.4321  2.7416
10767TIP3   OH253715   5.677   0.736  14.933  0.7138  0.2492  0.0353
10767TIP3    H153716   5.649   0.677  14.863 -0.6066  2.3973 -1.3706
10767TIP3    H253717   5.749   0.786  14.895  0.0651  1.3543  0.2007
10768TIP3   OH253718   1.539   2.133   5.834 -0.1229 -0.1755 -0.3162
10768TIP3    H153719   1.590   2.143   5.754  0.7575  0.3116  0.2841
10768TIP3    H253720   1.466   2.076   5.810  3.1053 -4.9367 -0.1661
10769TIP3   OH253721   2.607   1.481  15.503 -0.0578 -0.5345  0.8689
10769TIP3    H153722   2.611   1.394  15.543  1.3368 -1.3743 -0.9389
10769TIP3    H253723   2.518   1.487  15.469 -0.0613 -1.4026  0.6996
10770TIP3   OH253724   0.107   2.340   2.186 -0.3122  0.1342  0.0901
10770TIP3    H153725   0.139   2.316   2.099 -0.4696  0.5808 -0.0902
10770TIP3    H253726   0.104   2.435   2.186 -1.3814  0.1134  0.2040
10771TIP3   OH253727   1.612   5.717  16.154 -0.2011  0.3091  0.3179
10771TIP3    H153728   1.707   5.707  16.156 -0.2949 -0.7338  2.3346
10771TIP3    H253729   1.578   5.628  16.162 -1.3469  0.7510  0.5930
10772TIP3   OH253730   1.201   0.925  11.056  0.8549  0.1867  0.2994
10772TIP3    H153731   1.140   0.988  11.094 -0.0973  0.4760 -1.5904
10772TIP3    H253732   1.229   0.871  11.130 -3.1559 -1.2342  1.0637
10773TIP3   OH253733   4.234   0.119   4.886 -0.3622  0.0368  0.4012
10773TIP3    H153734   4.281   0.116   4.803 -2.1582 -0.7187 -0.6515
10773TIP3    H253735   4.149   0.079   4.867 -0.9484  0.1354  2.5334
10774TIP3   OH253736   1.217   2.108  10.305 -0.1790 -0.0307 -0.4757
10774TIP3    H153737   1.294   2.077  10.353 -2.2310 -0.4030  2.9040
10774TIP3    H253738   1.171   2.164  10.367 -1.5932  2.0049 -3.1350
10775TIP3   OH253739   2.337   0.869  15.518  0.1012 -0.2515 -0.5564
10775TIP3    H153740   2.246   0.844  15.539  0.3539 -1.6370 -1.0125
10775TIP3    H253741   2.328   0.941  15.456 -0.7031 -0.2563 -0.4581
10776TIP3   OH253742   3.723   5.077  13.805 -0.6353  0.5861 -0.1608
10776TIP3    H153743   3.816   5.058  13.817 -0.9838 -0.9361  0.4303
10776TIP3    H253744   3.711   5.078  13.710  0.2473  2.4017 -0.2932
10777TIP3   OH253745   4.215   0.329   5.079 -0.7219 -0.0163 -0.0610
10777TIP3    H153746   4.219   0.286   4.993  3.3735  0.2814 -0.1969
10777TIP3    H253747   4.148   0.397   5.069  0.3493  0.7155 -3.4163
10778TIP3   OH253748   6.445   4.522   2.551  0.0159  0.5790  0.3211
10778TIP3    H153749   6.419   4.589   2.488 -2.5342 -1.0805 -0.5766
10778TIP3    H253750   6.466   4.570   2.631 -1.0113  2.4871 -0.4936
10779TIP3   OH253751   1.398   3.373  14.505 -0.5261 -0.0762 -0.3684
10779TIP3    H153752   1.405   3.464  14.475 -0.9229  0.2677  0.5383
10779TIP3    H253753   1.339   3.378  14.581 -0.8511 -1.1452 -0.5438
10780TIP3   OH253754   2.389   4.357   0.948 -0.1271  0.2928  0.2998
10780TIP3    H153755   2.358   4.445   0.928 -1.7642 -0.7040 -1.9371
10780TIP3    H253756   2.319   4.299   0.918  0.8084 -1.7988  1.8898
10781TIP3   OH253757   3.847   3.921  15.425 -0.7728 -0.2888  0.3213
10781TIP3    H153758   3.827   3.977  15.349 -1.6569 -0.5208  0.3667
10781TIP3    H253759   3.922   3.869  15.397 -0.0846  0.7578  0.1935
10782TIP3   OH253760   0.616   5.142   5.066  0.0740 -0.1870  0.0672
10782TIP3    H153761   0.606   5.187   5.150  0.4865  1.1074 -0.5449
10782TIP3    H253762   0.596   5.050   5.085 -1.4529  0.3426  1.2382
10783TIP3   OH253763   5.451   4.623   1.699  0.6857 -0.2851  0.0538
10783TIP3    H153764   5.495   4.576   1.629  0.9954  1.9924 -1.3630
10783TIP3    H253765   5.521   4.664   1.749  0.3500  0.3141  0.0406
10784TIP3   OH253766   3.246   0.104  16.622 -0.3682 -0.3710 -0.0645
10784TIP3    H153767   3.332   0.105  16.580 -0.7406 -0.7829 -0.8625
10784TIP3    H253768   3.193   0.162  16.568 -0.3490  0.6725  0.9976
10785TIP3   OH253769   5.078   2.256  12.567  0.0322  0.9758 -0.2925
10785TIP3    H153770   5.041   2.252  12.655  1.4476 -1.4399  0.2688
10785TIP3    H253771   5.028   2.326  12.524 -0.2857  2.6887  2.5642
10786TIP3   OH253772   6.599   0.544   2.203 -0.4400 -0.1894  0.4588
10786TIP3    H153773   6.561   0.479   2.262 -2.4885 -0.6348 -1.2295
10786TIP3    H253774   6.541   0.620   2.212  1.7126  1.3850  2.1337
10787TIP3   OH253775   6.168   5.537  12.452 -0.1805  0.0480 -0.0777
10787TIP3    H153776   6.109   5.540  12.376  0.3163 -0.4072 -0.4849
10787TIP3    H253777   6.116   5.496  12.521 -0.1991 -0.7904 -0.5763
10788TIP3   OH253778   0.802   2.693  12.072  0.2386  0.7967 -0.2172
10788TIP3    H153779   0.711   2.705  12.098 -0.5342  3.7806 -3.6099
10788TIP3    H253780   0.805   2.605  12.033 -1.0859  0.5323  0.2377
10789TIP3   OH253781   1.276   6.032   5.235 -0.3281  0.1126  0.0328
10789TIP3    H153782   1.245   6.002   5.320 -0.3679  0.7211  0.2336
10789TIP3    H253783   1.346   6.094   5.255 -0.5089  0.4543 -0.3671
10790TIP3   OH253784   5.302   0.171  14.377  0.3165 -0.3434  0.4704
10790TIP3    H153785   5.393   0.200  14.379  0.3542 -0.3219 -0.8611
10790TIP3    H253786   5.264   0.206  14.458  1.7619 -1.3152  1.6187
10791TIP3   OH253787   5.973   4.905  12.479  0.2466 -0.6559  0.3054
10791TIP3    H153788   5.937   4.980  12.431  1.3427 -0.1875  0.1845
10791TIP3    H253789   5.911   4.890  12.550  0.0893  0.4950  0.4342
10792TIP3   OH253790   5.171   6.232   5.411 -0.4646  0.3716 -0.7942
10792TIP3    H153791   5.139   6.293   5.344 -0.4690  2.0579  0.6579
10792TIP3    H253792   5.123   6.256   5.490  1.7384  0.5775  0.5820
10793TIP3   OH253793   0.049   5.258  10.369 -0.1369  0.1483  0.7578
10793TIP3    H153794   0.015   5.347  10.377  0.1717  0.2147  1.3434
10793TIP3    H253795   0.069   5.231  10.458  0.1807 -0.3503  0.5422
10794TIP3   OH253796   3.212   3.410   2.304  0.2757 -0.3750  0.1283
10794TIP3    H153797   3.268   3.464   2.249  0.7901 -0.4229  0.6018
10794TIP3    H253798   3.145   3.376   2.245  0.6004 -0.1131 -0.3887
10795TIP3   OH253799   2.099   0.615   3.051 -0.1875  0.1609 -0.3339
10795TIP3    H153800   2.106   0.710   3.058 -0.6875  0.1389  0.6855
10795TIP3    H253801   2.014   0.595   3.091  1.7795 -1.1221  3.5923
10796TIP3   OH253802   2.444   6.015  15.717 -0.3652 -0.2278 -0.1321
10796TIP3    H153803   2.470   6.004  15.809  1.9761  1.0976 -0.5556
10796TIP3    H253804   2.416   6.106  15.711  3.1316  0.9279 -1.3942
10797TIP3   OH253805   3.725   6.050  14.440  0.0718 -0.3945  0.4735
10797TIP3    H153806   3.671   6.116  14.483 -0.8951  0.9382 -2.4766
10797TIP3    H253807   3.669   5.973  14.434 -0.5728  0.1022 -0.1654
10798TIP3   OH253808   5.501   4.007   4.357  0.3859 -0.1013  0.0615
10798TIP3    H153809   5.455   3.942   4.411  0.7337  0.0910  0.6056
10798TIP3    H253810   5.513   3.964   4.273  0.2056 -0.5737  0.2701
10799TIP3   OH253811   2.751   0.565   6.208 -0.0295  0.0637 -0.3095
10799TIP3    H153812   2.775   0.554   6.300 -3.1522  0.5933  0.7009
10799TIP3    H253813   2.692   0.492   6.190 -0.6391  0.8114 -1.4329
10800TIP3   OH253814   2.238   2.633   2.980 -0.0022 -0.3029 -0.1945
10800TIP3    H153815   2.163   2.622   3.037  0.6430 -2.2078  0.3651
10800TIP3    H253816   2.224   2.571   2.909  0.4967  0.1310 -0.6889
10801TIP3   OH253817   5.417   2.089   4.770  0.6343  0.5714  0.1645
10801TIP3    H153818   5.411   1.994   4.779 -1.3943  0.5548 -0.8126
10801TIP3    H253819   5.364   2.124   4.841 -0.1182  0.8882 -0.5260
10802TIP3   OH253820   0.730   6.611   1.599 -0.0941  0.2980  0.0959
10802TIP3    H153821   0.816   6.570   1.587 -1.2371 -2.7130  1.0904
10802TIP3    H253822   0.737   6.659   1.681  0.7468  0.4597 -0.0642
10803TIP3   OH253823   5.007   4.637   3.156 -0.1311 -0.0925  0.4689
10803TIP3    H153824   5.024   4.664   3.246  4.0011  3.8543 -1.0953
10803TIP3    H253825   4.960   4.710   3.116 -1.4315 -1.5249 -0.7568
10804TIP3   OH253826   2.659   3.893   0.497 -0.0864  0.7988  0.2038
10804TIP3    H153827   2.740   3.846   0.474 -0.4632  0.8532 -1.3263
10804TIP3    H253828   2.684   3.985   0.494 -0.5899  0.9262 -2.1417
10805TIP3   OH253829   5.385   2.782   4.286 -0.5051  0.8727  0.3626
10805TIP3    H153830   5.436   2.701   4.288 -1.7140  0.0962  2.4918
10805TIP3    H253831   5.442   2.844   4.241  1.1360 -0.7168  0.1231
10806TIP3   OH253832   3.054   0.863   3.853  0.0552  0.1816 -0.2268
10806TIP3    H153833   3.003   0.829   3.926 -1.0476  0.1045 -1.0170
10806TIP3    H253834   3.031   0.956   3.849  0.6599  0.3490 -0.0509
10807TIP3   OH253835   0.272   6.547  13.251 -0.0544  0.1768  0.2276
10807TIP3    H153836   0.184   6.584  13.255 -0.8736 -1.4216 -1.4375
10807TIP3    H253837   0.317   6.583  13.328 -2.6416 -0.2015  2.0640
10808TIP3   OH253838   5.713   3.689   0.584 -0.2478 -0.1456 -0.1706
10808TIP3    H153839   5.754   3.635   0.652  1.7374  1.0166 -0.3689
10808TIP3    H253840   5.748   3.655   0.502 -2.1564 -1.1373 -0.6125
10809TIP3   OH253841   1.202   6.124  13.267  0.3156 -0.0902 -0.6631
10809TIP3    H153842   1.115   6.106  13.303  0.3639  1.8240  0.5661
10809TIP3    H253843   1.261   6.071  13.321  0.0431 -0.3567 -0.6204
10810TIP3   OH253844   1.240   5.333  15.049  0.0529 -0.4496 -0.3884
10810TIP3    H153845   1.166   5.333  14.988 -1.2772 -1.6582  1.1633
10810TIP3    H253846   1.205   5.371  15.130  1.5825  0.4397 -0.1034
10811TIP3   OH253847   2.350   4.345   6.053  0.5601  0.0992 -0.2435
10811TIP3    H153848   2.284   4.381   6.113 -0.9772 -0.5844 -1.4727
10811TIP3    H253849   2.300   4.299   5.986  2.2495  0.2753 -1.7145
10812TIP3   OH253850   3.708   6.286  10.853 -0.5619  0.0206 -0.2648
10812TIP3    H153851   3.772   6.278  10.924 -0.0281 -0.9896 -0.8439
10812TIP3    H253852   3.747   6.350  10.793  0.0270 -0.7617 -0.7299
10813TIP3   OH253853   3.723   6.591   5.052  0.3104 -0.0967 -0.1654
10813TIP3    H153854   3.784   6.518   5.038  1.5734  1.2534 -2.1689
10813TIP3    H253855   3.666   6.590   4.975  1.7230  2.2427 -1.3362
10814TIP3   OH253856   4.146   2.681  16.804 -0.6946 -0.0081  0.5425
10814TIP3    H153857   4.162   2.594  16.841  0.9714 -0.6711 -1.5208
10814TIP3    H253858   4.118   2.664  16.714 -2.6723  1.5804  0.7815
10815TIP3   OH253859   1.951   1.342  12.081 -0.0737  0.4921  0.0315
10815TIP3    H153860   2.036   1.383  12.097  0.4498 -0.5118 -0.0443
10815TIP3    H253861   1.972   1.249  12.071 -1.2359  0.1715  0.4562
10816TIP3   OH253862   6.210   3.555   0.987 -0.5996 -0.0787 -0.0995
10816TIP3    H153863   6.154   3.582   0.914  1.1907 -1.0022 -1.9037
10816TIP3    H253864   6.150   3.517   1.051 -2.3393  1.7058 -0.5872
10817TIP3   OH253865   1.647   0.347   1.687 -0.1434 -0.7343  0.0408
10817TIP3    H153866   1.737   0.327   1.663 -0.5182 -1.7777 -0.5649
10817TIP3    H253867   1.652   0.374   1.778  0.7713 -0.8913  0.0466
10818TIP3   OH253868   3.539   4.552  13.438  0.8135  0.1487 -0.3433
10818TIP3    H153869   3.524   4.545  13.343 -0.5259  0.0072 -0.1359
10818TIP3    H253870   3.459   4.592  13.472  0.7117 -1.0546  0.9077
10819TIP3   OH253871   3.596   0.676  14.259 -0.1012  0.1051  0.3668
10819TIP3    H153872   3.646   0.594  14.265 -2.6634 -1.5464  0.5035
10819TIP3    H253873   3.511   0.655  14.296 -1.2031  2.5838 -0.5549
10820TIP3   OH253874   0.128   3.368   0.968  0.3552 -0.0632  0.4734
10820TIP3    H153875   0.042   3.329   0.955  0.0670  0.8131 -0.3790
10820TIP3    H253876   0.190   3.301   0.941 -0.1055 -0.2476 -0.1267
10821TIP3   OH253877   1.867   0.924   3.141  0.0089  0.3976 -0.1584
10821TIP3    H153878   1.777   0.957   3.148  0.4957  2.0701 -1.1749
10821TIP3    H253879   1.860   0.846   3.087 -1.0957 -0.8217  1.6593
10822TIP3   OH253880   6.138   2.344   3.042  0.6420 -0.1005  0.1866
10822TIP3    H153881   6.229   2.348   3.071 -0.1583 -0.3588  2.9902
10822TIP3    H253882   6.125   2.254   3.014  1.0301 -0.2593  0.5187
10823TIP3   OH253883   4.685   2.875  14.054  0.5434 -0.8783  0.2912
10823TIP3    H153884   4.645   2.797  14.091  0.1994 -1.2691 -0.8437
10823TIP3    H253885   4.768   2.845  14.017  0.6085 -0.6175  0.2190
10824TIP3   OH253886   2.795   4.686  12.300 -0.3199  0.5533  0.8908
10824TIP3    H153887   2.871   4.742  12.285 -0.0442 -0.0027  0.1859
10824TIP3    H253888   2.829   4.597  12.295 -1.2514  0.2683 -0.8432
10825TIP3   OH253889   5.790   0.270  15.432 -0.3655 -0.0899  0.0506
10825TIP3    H153890   5.752   0.192  15.393 -0.1499 -0.1922  0.0439
10825TIP3    H253891   5.865   0.290  15.376 -0.8413  0.5426 -0.3820
10826TIP3   OH253892   2.519   4.337   0.436 -0.0953  0.1385  0.0097
10826TIP3    H153893   2.557   4.408   0.488  1.0558 -0.4347 -0.0264
10826TIP3    H253894   2.511   4.264   0.497  2.7310 -1.0461 -0.9160
10827TIP3   OH253895   4.429   5.032   5.732  0.3600  0.3049  0.1691
10827TIP3    H153896   4.414   5.002   5.822 -3.3795 -1.6349 -0.9201
10827TIP3    H253897   4.506   4.983   5.703 -1.0693 -2.6666  0.9578
10828TIP3   OH253898   1.226   0.724   1.843  0.3804  0.1056  0.5462
10828TIP3    H153899   1.227   0.757   1.753  1.9872 -0.2089  0.4134
10828TIP3    H253900   1.274   0.641   1.838 -0.1983 -0.3051  1.5653
10829TIP3   OH253901   2.864   5.460  13.210 -0.5471  0.0286  0.1470
10829TIP3    H153902   2.807   5.395  13.169 -0.0173 -1.1555  1.2316
10829TIP3    H253903   2.844   5.453  13.304  0.2000  0.7704  0.3712
10830TIP3   OH253904   0.472   4.794  13.963  0.5100 -0.0019  0.3280
10830TIP3    H153905   0.425   4.876  13.951  0.6676  0.4236  2.3600
10830TIP3    H253906   0.404   4.728  13.972  0.3472  0.1913  0.5183
10831TIP3   OH253907   2.928   5.942  16.574 -0.1882  0.0858  0.4874
10831TIP3    H153908   2.918   6.019  16.630 -0.8138  0.6834 -0.4179
10831TIP3    H253909   3.014   5.952  16.533 -1.1974  1.5808 -1.4419
10832TIP3   OH253910   3.478   6.357   1.859  0.3651 -0.3446 -0.0263
10832TIP3    H153911   3.390   6.364   1.820  0.3960 -0.1655 -0.0637
10832TIP3    H253912   3.515   6.445   1.851  0.3174 -0.2678  0.5386
10833TIP3   OH253913   4.921   2.459   1.229 -0.1133 -0.0908  0.9446
10833TIP3    H153914   4.894   2.414   1.309 -0.0311 -0.2238  0.8982
10833TIP3    H253915   4.849   2.519   1.209 -0.0753  0.0407  1.1925
10834TIP3   OH253916   3.188   2.552  10.802  0.0761  0.1110 -0.6791
10834TIP3    H153917   3.262   2.612  10.791  1.0065 -0.8973 -0.0864
10834TIP3    H253918   3.146   2.551  10.716  1.4913 -0.2362 -1.3910
10835TIP3   OH253919   3.227   5.121   5.473 -0.2993 -0.1427  0.4371
10835TIP3    H153920   3.182   5.103   5.390  0.3046 -1.7694  0.4198
10835TIP3    H253921   3.192   5.056   5.534  0.2447  0.1647  1.0874
10836TIP3   OH253922   3.639   5.448   1.087  0.3673  0.5405  0.2812
10836TIP3    H153923   3.552   5.479   1.114  0.6165  1.6787 -0.1688
10836TIP3    H253924   3.667   5.391   1.158 -1.1076 -0.5564  0.0404
10837TIP3   OH253925   0.581   4.303   4.326 -0.3377  0.8319  0.4156
10837TIP3    H153926   0.570   4.252   4.246 -1.8090  1.1301  0.3967
10837TIP3    H253927   0.604   4.239   4.393 -0.9280  0.3145  0.1343
10838TIP3   OH253928   1.428   5.800   3.734 -0.4109 -0.0953  0.8004
10838TIP3    H153929   1.364   5.838   3.795 -0.5396 -0.0159  0.6172
10838TIP3    H253930   1.486   5.747   3.790 -0.2839  0.2984  1.0460
10839TIP3   OH253931   5.690   1.234   3.323 -0.2728  0.5019 -0.3867
10839TIP3    H153932   5.635   1.163   3.291 -1.2362  0.3826  1.4446
10839TIP3    H253933   5.731   1.200   3.403 -0.0732  1.7009  0.0551
10840TIP3   OH253934   3.604   0.518  13.692  0.6418  0.1957  0.0043
10840TIP3    H153935   3.634   0.608  13.702 -0.4939  0.5989 -0.0168
10840TIP3    H253936   3.554   0.500  13.772  1.5828 -0.7205  0.4010
10841TIP3   OH253937   0.268   3.048  11.325  0.0336 -0.0780 -0.4303
10841TIP3    H153938   0.184   3.002  11.319 -0.4873  0.6199  1.0265
10841TIP3    H253939   0.295   3.059  11.234 -0.4709 -2.0405 -0.8673
10842TIP3   OH253940   3.252   6.397   1.068  0.0547 -0.4028  0.0506
10842TIP3    H153941   3.310   6.331   1.030 -0.1462 -0.6008  0.0847
10842TIP3    H253942   3.280   6.479   1.028  0.2945 -0.5106 -0.0059
10843TIP3   OH253943   0.912   0.908   6.482 -0.4195 -0.0907 -0.5823
10843TIP3    H153944   0.889   1.000   6.475 -1.8498 -0.4693 -1.3342
10843TIP3    H253945   0.831   0.865   6.510  0.5834 -0.9611  1.1486
10844TIP3   OH253946   3.807   5.379   2.948  0.3246 -0.5673 -0.2812
10844TIP3    H153947   3.868   5.386   3.022  1.7934  1.1340 -1.5493
10844TIP3    H253948   3.735   5.327   2.981  1.9352 -1.6966  1.6770
10845TIP3   OH253949   3.327   2.452  13.464  0.0177  0.2030 -0.2940
10845TIP3    H153950   3.414   2.413  13.456 -1.1485 -2.7588  0.1473
10845TIP3    H253951   3.313   2.460  13.558 -0.1652  0.8022 -0.3663
10846TIP3   OH253952   3.831   2.699   4.233 -0.4369  0.1876  0.3123
10846TIP3    H153953   3.857   2.633   4.298 -0.8726  0.9546  1.2851
10846TIP3    H253954   3.846   2.783   4.276 -0.7397  0.7134 -0.5780
10847TIP3   OH253955   4.456   5.291   0.454 -0.1809 -0.0023  0.1621
10847TIP3    H153956   4.456   5.245   0.538 -0.1897 -1.2235 -0.4798
10847TIP3    H253957   4.381   5.255   0.407 -0.3674  0.9103 -0.2484
10848TIP3   OH253958   5.780   1.631  12.476 -0.9867  0.2160 -0.5414
10848TIP3    H153959   5.757   1.567  12.408  1.1475  0.5153 -1.6227
10848TIP3    H253960   5.874   1.623  12.487 -1.2760 -0.0036  2.6811
10849TIP3   OH253961   1.138   5.283   2.155  0.1382  0.0284  0.0454
10849TIP3    H153962   1.217   5.293   2.208  0.4579 -1.9637  0.0320
10849TIP3    H253963   1.168   5.238   2.076 -0.6778  1.1101 -0.9095
10850TIP3   OH253964   4.095   3.756  13.651 -0.2717  0.3333 -0.0670
10850TIP3    H153965   4.179   3.718  13.627  1.4563  3.4964  0.4145
10850TIP3    H253966   4.097   3.762  13.746 -1.2521  0.0915 -0.0145
10851TIP3   OH253967   4.559   4.324  15.120 -0.2109  0.3942 -0.5542
10851TIP3    H153968   4.605   4.326  15.204 -2.2225  3.0285  0.6297
10851TIP3    H253969   4.477   4.276  15.138  0.4209 -1.2577 -1.7543
10852TIP3   OH253970   0.807   0.039   5.205  0.5685  0.4830 -0.0640
10852TIP3    H153971   0.865  -0.019   5.154  0.3849 -0.6036  0.9352
10852TIP3    H253972   0.803   0.119   5.153 -0.1274 -0.7930 -2.1155
10853TIP3   OH253973   3.188   6.027   4.373 -0.2676 -0.0843  0.2945
10853TIP3    H153974   3.238   6.104   4.401 -0.8492  0.3956  0.0376
10853TIP3    H253975   3.113   6.024   4.432 -0.5372 -0.1251 -0.0412
10854TIP3   OH253976   6.501   2.458  12.743  0.2944 -0.2791 -0.1841
10854TIP3    H153977   6.438   2.527  12.721  1.2516  0.7050  0.0369
10854TIP3    H253978   6.566   2.503  12.798  2.9034 -0.4620 -2.8966
10855TIP3   OH253979   6.445   2.907  12.192 -0.1032 -0.4461 -0.0775
10855TIP3    H153980   6.382   2.838  12.214 -0.9606 -0.6999 -3.0014
10855TIP3    H253981   6.500   2.915  12.271 -2.4255 -1.6853  1.8064
10856TIP3   OH253982   1.006   2.319  16.528 -0.2120 -0.0055  0.0517
10856TIP3    H153983   0.981   2.286  16.614  1.9667 -4.2572 -0.7091
10856TIP3    H253984   1.096   2.352  16.540 -1.1706  2.9422  0.0328
10857TIP3   OH253985   1.069   1.095  14.311 -0.2790 -0.3463  0.0585
10857TIP3    H153986   1.084   1.126  14.221  1.3762 -1.1218  0.0376
10857TIP3    H253987   0.974   1.082  14.316 -0.6213  1.3604 -1.0072
10858TIP3   OH253988   4.946   3.554  11.615 -0.9093  0.1417  0.1990
10858TIP3    H153989   5.006   3.528  11.545 -0.5102  0.1399  0.5403
10858TIP3    H253990   4.949   3.481  11.677 -1.4129  0.0530  0.1294
10859TIP3   OH253991   3.121   3.841   3.374  0.3227 -0.3814 -0.1625
10859TIP3    H153992   3.079   3.783   3.310 -0.2118  0.2592 -0.4083
10859TIP3    H253993   3.153   3.783   3.443  0.0752 -0.9916 -0.5570
10860TIP3   OH253994   4.393   6.049   0.659 -0.0469 -0.0089 -0.3178
10860TIP3    H153995   4.384   6.127   0.604  1.3893  0.5419  0.1975
10860TIP3    H253996   4.368   6.079   0.746  1.9225  0.3221  0.1868
10861TIP3   OH253997   1.625   6.544  16.995  0.5382 -0.7349  0.4102
10861TIP3    H153998   1.635   6.499  17.079  1.4882 -2.6194 -0.6384
10861TIP3    H253999   1.677   6.491  16.933  0.4864  1.0021 -1.2206
10862TIP3   OH254000   0.211   1.959   4.299 -0.4514  0.6247  0.2524
10862TIP3    H154001   0.228   1.864   4.302  1.6707  0.9025 -0.6478
10862TIP3    H254002   0.273   1.991   4.233  0.0432  2.8667  1.7091
10863TIP3   OH254003   2.549   3.236  12.923  0.1611  0.4500  0.5293
10863TIP3    H154004   2.601   3.185  12.985  0.1533  1.0540  1.0438
10863TIP3    H254005   2.490   3.287  12.979 -0.6976  0.0773 -0.0284
10864TIP3   OH254006   4.460   2.730   5.147 -0.6306  0.0364 -0.4861
10864TIP3    H154007   4.498   2.651   5.187 -0.4743 -0.0557 -0.8172
10864TIP3    H254008   4.534   2.775   5.107 -0.7926  0.1187 -0.6936
10865TIP3   OH254009   1.699   2.541  17.044  0.0311  0.1373 -0.1567
10865TIP3    H154010   1.729   2.623  17.084 -1.7529  1.2759 -1.0119
10865TIP3    H254011   1.716   2.554  16.950 -0.0911 -0.5708 -0.2822
10866TIP3   OH254012   2.804   1.159  12.264  0.7475  0.3065  0.3388
10866TIP3    H154013   2.870   1.120  12.208  0.3164  0.3794 -0.2273
10866TIP3    H254014   2.754   1.217  12.206  0.8278  1.0248  0.9708
10867TIP3   OH254015   1.006   2.845   0.888  0.1591 -0.8647  0.1834
10867TIP3    H154016   0.958   2.765   0.908 -1.0650 -0.4548 -0.9569
10867TIP3    H254017   0.943   2.915   0.904  0.3043 -0.3233 -1.4120
10868TIP3   OH254018   3.044   5.426   6.093  0.5405  0.3668  0.1820
10868TIP3    H154019   3.132   5.462   6.100  1.1811 -1.0823 -0.2278
10868TIP3    H254020   3.015   5.449   6.005 -1.0051  4.0264  1.4127
10869TIP3   OH254021   3.191   2.083  15.822  0.4407  0.1864  0.3223
10869TIP3    H154022   3.103   2.075  15.860 -0.1068  0.9734 -0.7012
10869TIP3    H254023   3.180   2.148  15.753  1.7600  0.0092 -0.0674
10870TIP3   OH254024   2.360   2.490   1.504 -0.9799  0.0245 -0.3064
10870TIP3    H154025   2.367   2.399   1.532  2.3661 -0.0005 -0.8365
10870TIP3    H254026   2.325   2.486   1.415  4.1489 -1.4516 -2.6314
10871TIP3   OH254027   2.159   5.493   5.543  0.0503 -0.1514  0.2094
10871TIP3    H154028   2.100   5.442   5.487  1.1333 -2.3255  0.8970
10871TIP3    H254029   2.245   5.481   5.502  0.5171  0.0380  1.1110
10872TIP3   OH254030   3.968   2.265   2.575  0.0375 -0.0387  0.3399
10872TIP3    H154031   3.947   2.210   2.499 -1.3470 -2.1820  2.1569
10872TIP3    H254032   4.009   2.205   2.637 -2.7580  0.5481  2.9608
10873TIP3   OH254033   0.612   5.479  15.264  0.5150  0.9108  0.6332
10873TIP3    H154034   0.581   5.390  15.245  2.1822 -0.4614  3.5825
10873TIP3    H254035   0.560   5.535  15.207 -3.3565 -1.6167  1.2665
10874TIP3   OH254036   1.795   6.551  13.701 -0.8368  0.2326 -0.2007
10874TIP3    H154037   1.782   6.544  13.796 -0.1353 -0.0280 -0.1198
10874TIP3    H254038   1.711   6.522  13.664 -0.9291 -0.2077  0.3290
10875TIP3   OH254039   3.656   0.054   1.968 -0.1109  0.4079 -0.3424
10875TIP3    H154040   3.677   0.113   1.896 -0.0236 -0.0947 -0.7375
10875TIP3    H254041   3.727  -0.010   1.968 -1.8037 -1.5951 -2.0008
10876TIP3   OH254042   1.964   3.990  14.466 -0.1739 -0.3964 -0.4525
10876TIP3    H154043   2.042   3.951  14.426  0.5049  0.3899  0.0650
10876TIP3    H254044   1.901   3.918  14.471  0.7259 -1.2016 -0.3413
10877TIP3   OH254045   0.307   3.535   2.406  0.2571  0.3299  0.2151
10877TIP3    H154046   0.375   3.511   2.469  0.1791 -0.8197 -0.1261
10877TIP3    H254047   0.351   3.597   2.347  1.7307 -1.9686 -1.2840
10878TIP3   OH254048   3.266   4.698  11.855 -0.1009  0.3494  0.0377
10878TIP3    H154049   3.225   4.732  11.934  0.0152 -0.5726  0.5175
10878TIP3    H254050   3.196   4.699  11.789 -0.4878  0.1810  0.4387
10879TIP3   OH254051   2.615   0.631  12.040  0.0414 -0.0376  0.0256
10879TIP3    H154052   2.597   0.715  11.998  1.1595  0.3171  0.2208
10879TIP3    H254053   2.573   0.566  11.983 -3.3054  0.7692  1.3070
10880TIP3   OH254054   1.347   0.539  11.763  0.2431 -0.1935 -0.3282
10880TIP3    H154055   1.293   0.500  11.832  0.6612  1.0394  0.7397
10880TIP3    H254056   1.408   0.469  11.738  0.7411 -0.3899  1.2859
10881TIP3   OH254057   2.494   4.578  16.052 -0.0182 -0.0629 -0.2094
10881TIP3    H154058   2.571   4.630  16.031 -0.4475  0.5421 -0.3279
10881TIP3    H254059   2.455   4.557  15.967  1.8773 -3.3767 -0.4337
10882TIP3   OH254060   5.339   5.128   1.609  0.3843 -0.0973  0.0872
10882TIP3    H154061   5.273   5.067   1.576  1.1764 -0.9508  0.0354
10882TIP3    H254062   5.404   5.072   1.652  1.4646  0.6497 -0.5324
10883TIP3   OH254063   0.831   0.419   5.284 -0.1048 -0.2272 -0.9049
10883TIP3    H154064   0.738   0.444   5.283 -0.5020 -1.6441 -1.3385
10883TIP3    H254065   0.838   0.360   5.359  0.3832 -0.3609 -1.0574
10884TIP3   OH254066   4.038   6.723   4.802 -0.0837 -0.2790 -0.2315
10884TIP3    H154067   4.005   6.660   4.737  0.3641 -0.1091 -0.6244
10884TIP3    H254068   3.996   6.806   4.779  3.2342  0.8641 -3.0058
10885TIP3   OH254069   0.667   5.768   2.260  0.3301  0.0106  0.2542
10885TIP3    H154070   0.601   5.834   2.239 -0.1450 -0.2423  0.9196
10885TIP3    H254071   0.633   5.687   2.225 -0.5284 -0.4388  2.0192
10886TIP3   OH254072   2.543   6.485  12.861  0.5524 -0.0970 -0.1356
10886TIP3    H154073   2.492   6.411  12.894  1.2525 -0.4712  0.1446
10886TIP3    H254074   2.489   6.562  12.879  0.8358 -0.2921  1.7761
10887TIP3   OH254075   1.022   1.918  15.486 -0.3255  0.2989  0.1597
10887TIP3    H154076   1.003   1.994  15.540  1.2479  1.1298 -0.3897
10887TIP3    H254077   1.111   1.932  15.455  0.4681 -2.3377  0.9761
10888TIP3   OH254078   6.101   1.285  15.930 -0.2088 -0.4268  0.2355
10888TIP3    H154079   6.110   1.346  16.003  1.1164  0.8832 -0.9375
10888TIP3    H254080   6.012   1.250  15.938  0.5707 -2.0933  3.7336
10889TIP3   OH254081   0.625   4.039  14.344  0.2867  0.5588  0.2638
10889TIP3    H154082   0.689   4.030  14.272 -0.4263 -1.0362 -0.2246
10889TIP3    H254083   0.672   4.007  14.421  0.8104  1.5835  0.3979
10890TIP3   OH254084   1.022   0.169  11.947  0.2105 -0.5560 -0.1055
10890TIP3    H154085   1.047   0.200  11.860  2.0075  0.0556  0.5961
10890TIP3    H254086   1.044   0.076  11.947 -0.1770 -0.6522 -0.4235
10891TIP3   OH254087   6.362   5.778   1.592 -0.5709  0.0726  0.0382
10891TIP3    H154088   6.385   5.846   1.529  0.6957  0.2084  0.6146
10891TIP3    H254089   6.409   5.700   1.561  0.1441  0.1664  0.8320
10892TIP3   OH254090   0.465   4.755  15.330 -0.1195 -0.0981  0.5311
10892TIP3    H154091   0.447   4.689  15.397 -1.8031  0.2669  0.4905
10892TIP3    H254092   0.495   4.832  15.379  1.5349 -0.7426  0.5996
10893TIP3   OH254093   2.734   4.624   6.126 -0.3327  0.0665 -0.4465
10893TIP3    H154094   2.708   4.644   6.036 -2.1580  1.2806  0.3060
10893TIP3    H254095   2.702   4.535   6.141 -2.2989  0.7664 -0.2272
10894TIP3   OH254096   3.156   3.604   1.980  0.5853 -0.1764  0.1186
10894TIP3    H154097   3.248   3.607   2.006  0.1634  0.5497  1.6272
10894TIP3    H254098   3.109   3.647   2.052 -0.9979 -1.0567 -0.3437
10895TIP3   OH254099   5.274   3.986  14.472  0.2937 -0.1444  0.0145
10895TIP3    H154100   5.222   4.066  14.468  1.4040  0.5537 -0.8819
10895TIP3    H254101   5.335   3.993  14.399 -0.0570 -2.1496 -0.5428
10896TIP3   OH254102   4.393   3.361   0.717 -0.0068 -0.1510 -0.4647
10896TIP3    H154103   4.465   3.303   0.690  0.3762  0.2908 -0.4015
10896TIP3    H254104   4.437   3.438   0.754 -0.5052 -0.6122  1.1880
10897TIP3   OH254105   4.940   5.704   3.700 -0.1723  0.6411 -0.0816
10897TIP3    H154106   5.030   5.684   3.675  0.4397  1.7200  1.1392
10897TIP3    H254107   4.948   5.751   3.783 -1.8167  1.4371 -0.3330
10898TIP3   OH254108   3.462   3.665  15.219  0.1084 -0.1788 -0.1787
10898TIP3    H154109   3.408   3.706  15.287  1.5333 -0.2046  1.0333
10898TIP3    H254110   3.551   3.692  15.241  0.6885 -0.9418 -1.5300
10899TIP3   OH254111   6.258   0.636  11.829  0.5186 -0.9284 -0.6576
10899TIP3    H154112   6.201   0.639  11.905  0.6421  0.0481 -0.5904
10899TIP3    H254113   6.231   0.557  11.782 -1.2342 -0.2428 -0.8897
10900TIP3   OH254114   5.101   0.509   5.344  0.0522 -0.0039  0.3023
10900TIP3    H154115   5.055   0.537   5.265  1.5585  0.9609 -0.2563
10900TIP3    H254116   5.030   0.483   5.404 -1.1238 -0.6555 -1.2883
10901TIP3   OH254117   4.804   0.871  11.283  0.4250 -0.2697 -0.6690
10901TIP3    H154118   4.741   0.804  11.310  0.0785 -0.4184 -1.8113
10901TIP3    H254119   4.886   0.844  11.323  0.3745 -1.5748 -1.3898
10902TIP3   OH254120   5.617   1.456  15.560 -0.1519  0.3328 -0.4175
10902TIP3    H154121   5.596   1.531  15.615  0.7344  1.3831 -1.4733
10902TIP3    H254122   5.533   1.426  15.526 -0.5734  0.4513  0.4997
10903TIP3   OH254123   5.534   4.328   0.105  0.2746  0.2054  0.3096
10903TIP3    H154124   5.584   4.279   0.171 -0.7895 -1.8091 -0.2948
10903TIP3    H254125   5.443   4.315   0.129 -0.0820  0.9227 -0.5829
10904TIP3   OH254126   1.226   4.907  15.144  0.0940  0.1973  0.0504
10904TIP3    H154127   1.219   4.997  15.177 -1.8796  0.3933 -0.7252
10904TIP3    H254128   1.136   4.875  15.144  0.6103 -1.3551 -0.8583
10905TIP3   OH254129   6.334   3.164   0.441 -0.3075 -0.1998  0.3415
10905TIP3    H154130   6.322   3.071   0.464  1.7851 -0.2200  1.5667
10905TIP3    H254131   6.383   3.200   0.514 -1.1236  1.9269 -0.1003
10906TIP3   OH254132   0.711   5.452   2.268  0.4173  0.2579  0.3620
10906TIP3    H154133   0.676   5.438   2.355 -0.9757  0.0601 -0.2127
10906TIP3    H254134   0.698   5.369   2.223  1.5256  0.2183  0.0810
10907TIP3   OH254135   0.671   5.382  12.148 -0.4249  0.1848  0.5819
10907TIP3    H154136   0.597   5.334  12.110 -0.6709  2.1473 -1.6675
10907TIP3    H254137   0.650   5.390  12.241 -2.0293 -1.0228  0.3580
10908TIP3   OH254138   3.231   1.318  13.640  0.0193 -0.0999  0.2125
10908TIP3    H154139   3.150   1.366  13.623 -0.3156 -0.6251  0.2864
10908TIP3    H254140   3.279   1.372  13.702 -0.4377  0.0435  0.4428
10909TIP3   OH254141   1.812   4.706  12.554  0.1054  0.8376 -0.3436
10909TIP3    H154142   1.877   4.637  12.569 -1.3344 -0.6024 -0.3479
10909TIP3    H254143   1.754   4.669  12.486 -0.1752  2.4523 -1.0206
10910TIP3   OH254144   2.527   2.681  14.375  0.4928  0.0626  1.1686
10910TIP3    H154145   2.479   2.603  14.404 -0.1369 -0.2779 -0.6856
10910TIP3    H254146   2.470   2.722  14.310  1.3746  1.3918  1.1895
10911TIP3   OH254147   1.179   4.048   2.205 -0.6911  0.6339 -0.1941
10911TIP3    H154148   1.250   4.110   2.185 -2.0474  1.8079 -1.5627
10911TIP3    H254149   1.099   4.095   2.183 -1.8850 -0.9305  0.6303
10912TIP3   OH254150   4.433   0.538   2.699 -0.0686  0.0869  0.2450
10912TIP3    H154151   4.436   0.497   2.612  0.0227 -0.8313  0.6612
10912TIP3    H254152   4.524   0.541   2.727  0.0541  1.6397 -0.2331
10913TIP3   OH254153   2.417   3.129   3.561  0.7744 -0.7798 -0.7649
10913TIP3    H154154   2.455   3.207   3.600 -2.6471  0.3822  0.6809
10913TIP3    H254155   2.462   3.119   3.478  2.1242  2.0573 -0.5005
10914TIP3   OH254156   1.002   6.484  13.641 -0.7196  0.3745 -0.2631
10914TIP3    H154157   0.919   6.502  13.596 -1.4760 -1.2594  0.4165
10914TIP3    H254158   1.050   6.427  13.580  0.0914  1.6027 -0.8120
10915TIP3   OH254159   2.839   0.313  10.836 -0.1732  0.2003  0.6330
10915TIP3    H154160   2.901   0.277  10.772 -0.5385  0.8086 -0.0863
10915TIP3    H254161   2.838   0.249  10.907 -1.0519 -1.4001 -0.7440
10916TIP3   OH254162   4.711   1.343   3.502 -0.3689 -0.4073  0.0036
10916TIP3    H154163   4.671   1.326   3.587  0.2360 -0.8658  0.2005
10916TIP3    H254164   4.735   1.257   3.468 -2.1618 -0.4072 -1.4256
10917TIP3   OH254165   1.423   5.984   2.061  0.0709  0.3940 -0.2356
10917TIP3    H154166   1.413   6.073   2.092 -0.2743 -0.0088  0.8268
10917TIP3    H254167   1.337   5.960   2.026 -0.2486 -0.0203  0.8172
10918TIP3   OH254168   0.555   6.741   5.912 -0.5164 -0.2903  0.1154
10918TIP3    H154169   0.514   6.655   5.913 -1.1438 -0.0464 -1.4433
10918TIP3    H254170   0.615   6.739   5.837 -1.1264  0.8586 -0.4364
10919TIP3   OH254171   2.390   1.099   3.225 -0.0968 -0.3839 -0.0117
10919TIP3    H154172   2.396   1.149   3.143 -0.3839  1.5648  1.0862
10919TIP3    H254173   2.308   1.129   3.264  0.3856 -0.7527  1.3062
10920TIP3   OH254174   3.436   4.402   4.312  0.3285 -0.9090  0.0114
10920TIP3    H154175   3.504   4.447   4.262 -0.2713 -0.9707 -0.8739
10920TIP3    H254176   3.481   4.328   4.352  0.7106 -1.1643 -0.8698
10921TIP3   OH254177   2.041   6.144   3.289  0.1795 -0.6220 -0.4161
10921TIP3    H154178   1.978   6.204   3.330  1.6884  1.2103 -0.6113
10921TIP3    H254179   2.024   6.059   3.330 -1.3070  0.1844  0.7309
10922TIP3   OH254180   4.869   3.956   5.180 -0.0599 -0.2505  0.5644
10922TIP3    H154181   4.879   4.012   5.256  2.5303  0.3516 -0.1506
10922TIP3    H254182   4.902   3.871   5.208 -0.1841 -0.3413  0.4397
10923TIP3   OH254183   1.239   4.019  13.753 -0.3729 -0.2826  0.1959
10923TIP3    H154184   1.145   4.004  13.757 -0.5163  0.4855 -0.0591
10923TIP3    H254185   1.251   4.076  13.677  0.4919 -1.7236 -0.7951
10924TIP3   OH254186   1.211   5.122  15.746  0.3161  0.6332  0.7123
10924TIP3    H154187   1.263   5.142  15.824  0.3924 -2.0010  1.4578
10924TIP3    H254188   1.270   5.136  15.672  0.8013  1.4982  1.2607
10925TIP3   OH254189   6.351   0.791  12.262  0.6848 -0.5770 -0.6861
10925TIP3    H154190   6.347   0.698  12.240  0.7091 -0.4685 -1.1540
10925TIP3    H254191   6.303   0.835  12.191  0.0239 -0.2932 -0.0821
10926TIP3   OH254192   2.357   5.084   1.238  0.4037  0.8058 -0.2410
10926TIP3    H154193   2.269   5.048   1.228  0.1388  1.5741 -0.7863
10926TIP3    H254194   2.390   5.046   1.319  0.9643 -2.3402 -1.7972
10927TIP3   OH254195   2.271   5.836  12.098  0.0389 -0.1613  0.0921
10927TIP3    H154196   2.336   5.894  12.059  0.2710 -0.9756 -0.7519
10927TIP3    H254197   2.191   5.852  12.046 -1.1128  2.3091  2.3368
10928TIP3   OH254198   0.010   6.049  12.530  0.5644 -0.1678  0.7187
10928TIP3    H154199   0.019   6.079  12.439  2.3048  1.8628  1.4896
10928TIP3    H254200   0.051   5.963  12.531 -0.8714 -0.9327 -0.6995
10929TIP3   OH254201   4.934   6.281   4.954  0.5360 -0.3151 -0.1101
10929TIP3    H154202   4.902   6.218   5.019  1.6441 -2.6459 -1.6962
10929TIP3    H254203   4.859   6.298   4.898  0.5070 -1.0933 -0.3116
10930TIP3   OH254204   3.515   0.927   5.638  0.0154  0.0292 -0.1441
10930TIP3    H154205   3.466   0.847   5.654  0.0925  0.1179  0.5692
10930TIP3    H254206   3.587   0.901   5.581 -0.4998 -0.2210 -0.6935
10931TIP3   OH254207   1.042   6.259   2.100  0.5913  0.6287  0.3154
10931TIP3    H154208   1.036   6.258   2.005 -1.9680  0.5675  0.4270
10931TIP3    H254209   1.078   6.173   2.123  1.1976  0.6320 -0.5671
10932TIP3   OH254210   4.900   1.637  13.876  0.1779 -0.2553 -0.4790
10932TIP3    H154211   4.946   1.710  13.919 -0.2763 -0.3563  0.1867
10932TIP3    H254212   4.835   1.608  13.940 -0.1742 -0.7401 -1.0449
10933TIP3   OH254213   0.871   3.536  14.337  0.2671 -0.7146  0.3518
10933TIP3    H154214   0.800   3.557  14.276  0.9506 -1.6716 -0.7907
10933TIP3    H254215   0.828   3.487  14.407 -0.3241 -0.6146  0.0646
10934TIP3   OH254216   2.045   4.155   3.428  0.1644  0.1825 -0.3121
10934TIP3    H154217   2.051   4.244   3.392  2.2221  0.4975  0.6886
10934TIP3    H254218   2.061   4.166   3.521 -1.8506 -1.0204  0.2466
10935TIP3   OH254219   4.052   6.234   0.166 -0.0653 -0.1385  0.1861
10935TIP3    H154220   4.057   6.139   0.155 -1.7888 -0.4942  1.9255
10935TIP3    H254221   4.066   6.248   0.260  3.0207  1.6397 -0.3986
10936TIP3   OH254222   6.504   0.162   3.371 -0.2117 -0.6198 -0.1630
10936TIP3    H154223   6.453   0.081   3.367 -0.0142 -0.9587  2.4262
10936TIP3    H254224   6.593   0.133   3.387 -0.1431  0.0647  0.8102
10937TIP3   OH254225   4.968   0.094   1.887  0.6617 -0.6949 -0.1441
10937TIP3    H154226   5.001   0.168   1.939 -1.0190  0.2177 -0.2985
10937TIP3    H254227   5.003   0.017   1.930  0.8222  0.1140  1.2322
10938TIP3   OH254228   0.406   5.047  13.576 -0.5112 -0.9772 -0.3931
10938TIP3    H154229   0.340   5.016  13.638 -0.4224  1.1776  0.8572
10938TIP3    H254230   0.438   5.129  13.613  1.0367 -0.6574 -2.2736
10939TIP3   OH254231   5.431   6.268   5.498 -0.4511 -0.0717 -0.7620
10939TIP3    H154232   5.338   6.260   5.478 -0.6206  0.3939 -0.1909
10939TIP3    H254233   5.435   6.265   5.593  0.0820  0.2879 -0.7697
10940TIP3   OH254234   3.588   2.142  13.002  0.2195 -0.0317  0.7043
10940TIP3    H154235   3.532   2.083  13.054  0.8484 -0.3470  1.0394
10940TIP3    H254236   3.557   2.132  12.912  1.6308 -2.4682  0.4136
10941TIP3   OH254237   4.099   2.001  14.043 -0.5020  0.4462 -0.0643
10941TIP3    H154238   4.106   1.906  14.050  1.3735  0.3523 -2.0370
10941TIP3    H254239   4.017   2.023  14.087 -0.3142 -1.9021  1.6214
10942TIP3   OH254240   0.790   0.096  12.716  0.3903  0.4815  0.4962
10942TIP3    H154241   0.762   0.185  12.691  1.5848  0.3793 -1.2990
10942TIP3    H254242   0.721   0.039  12.682  0.2521  0.6182  0.5446
10943TIP3   OH254243   2.950   1.699  14.201  0.3944 -0.8207  0.3123
10943TIP3    H154244   3.005   1.659  14.268  1.4165  0.4116  0.2462
10943TIP3    H254245   3.008   1.710  14.125 -0.1647 -0.2800 -0.0534
10944TIP3   OH254246   5.610   2.399  13.747  0.0949  0.1840 -0.4382
10944TIP3    H154247   5.550   2.383  13.820 -1.3032 -1.0608 -1.7941
10944TIP3    H254248   5.624   2.313  13.708  0.9135  0.8087 -1.5622
10945TIP3   OH254249   0.289   1.771   0.453  0.1969 -0.5245 -0.0245
10945TIP3    H154250   0.291   1.728   0.539  0.2354 -1.4719 -0.4962
10945TIP3    H254251   0.274   1.700   0.391 -0.1258  0.1965 -0.7835
10946TIP3   OH254252   2.964   0.184   5.386 -0.1255 -0.0831  0.2577
10946TIP3    H154253   2.898   0.185   5.317  0.4846 -2.6155 -0.4886
10946TIP3    H254254   3.039   0.138   5.347  2.4695  3.2467  0.7938
10947TIP3   OH254255   1.894   0.511  11.541 -0.4549 -0.0333  0.3294
10947TIP3    H154256   1.913   0.531  11.450  2.2114 -1.7855  0.3740
10947TIP3    H254257   1.856   0.591  11.577  2.4305  2.2143 -1.2807
10948TIP3   OH254258   2.487   0.643  12.841  0.5270  0.0476 -0.1595
10948TIP3    H154259   2.422   0.586  12.801  1.3711 -0.4874 -0.8105
10948TIP3    H254260   2.535   0.680  12.767  1.5123 -0.2469  0.3112
10949TIP3   OH254261   6.002   6.493  16.944 -0.2946 -0.9301  0.3766
10949TIP3    H154262   6.066   6.506  17.014 -0.6083 -2.0152  0.8872
10949TIP3    H254263   5.923   6.465  16.989 -1.5236  1.4743 -0.1373
10950TIP3   OH254264   3.900   5.260   1.641  0.2964 -0.2078  0.8100
10950TIP3    H154265   3.987   5.297   1.624  0.3523 -0.5547  0.3004
10950TIP3    H254266   3.840   5.333   1.624  0.4500 -0.1351  0.5649
10951TIP3   OH254267   0.440   4.336  15.291  0.0697 -0.1582 -0.5119
10951TIP3    H154268   0.417   4.379  15.374  1.0470  2.1844 -1.3719
10951TIP3    H254269   0.474   4.250  15.318  1.0719  0.8075  1.6274
10952TIP3   OH254270   2.494   1.406  12.955  0.9940  0.3235 -0.1834
10952TIP3    H154271   2.491   1.383  13.048  1.9206 -3.2450 -0.8754
10952TIP3    H254272   2.587   1.420  12.937  0.8770  0.4856 -0.6755
10953TIP3   OH254273   3.621   0.891  17.284  0.0498 -0.5439 -0.2471
10953TIP3    H154274   3.710   0.925  17.282  0.7664 -2.3633 -0.8883
10953TIP3    H254275   3.604   0.862  17.194 -1.0550 -0.5604 -0.0540
10954TIP3   OH254276   4.693   4.381   2.425 -0.8398 -0.6112 -0.4047
10954TIP3    H154277   4.701   4.377   2.521 -0.7131 -0.8951 -0.4283
10954TIP3    H254278   4.608   4.424   2.411  0.2063  1.7026 -0.1732
10955TIP3   OH254279   3.861   4.329  14.419  0.3446 -0.1386  0.7590
10955TIP3    H154280   3.916   4.289  14.352  0.7390 -0.6109  1.3569
10955TIP3    H254281   3.810   4.395  14.372  0.8365 -0.2530  0.0513
10956TIP3   OH254282   1.702   4.251   4.871 -0.0028 -0.2682  0.1519
10956TIP3    H154283   1.763   4.319   4.844 -0.4061  0.8746  1.9825
10956TIP3    H254284   1.650   4.233   4.792  0.6842  0.9163 -0.5982
10957TIP3   OH254285   0.933   6.058   2.834  0.3427 -0.4179 -0.1022
10957TIP3    H154286   1.008   6.074   2.777  0.4511  1.0241  0.3989
10957TIP3    H254287   0.961   5.988   2.892  2.2449  1.6187  1.6123
10958TIP3   OH254288   4.538   3.350  16.149  0.2500 -0.6522  0.6038
10958TIP3    H154289   4.547   3.392  16.063  1.6157  0.2447  1.1619
10958TIP3    H254290   4.514   3.420  16.208 -4.6091 -1.8244  0.4224
10959TIP3   OH254291   5.202   2.660  16.087  0.3318 -0.7504 -0.3977
10959TIP3    H154292   5.223   2.656  16.181 -2.1006 -1.0308  0.1985
10959TIP3    H254293   5.219   2.751  16.063  0.0798 -0.4248  0.5783
10960TIP3   OH254294   0.292   2.572  15.301  0.6375 -0.0231  0.3726
10960TIP3    H154295   0.285   2.484  15.263  1.9733  0.9299 -2.3819
10960TIP3    H254296   0.210   2.615  15.275  2.1796  1.1441 -3.3351
10961TIP3   OH254297   6.226   3.274  14.886  0.1999  0.5612 -0.1144
10961TIP3    H154298   6.247   3.273  14.793  1.1806  0.8224  0.0948
10961TIP3    H254299   6.254   3.187  14.917  1.7416  1.1865  0.3185
10962TIP3   OH254300   1.730   2.845  12.630  0.2826 -0.1280 -0.3277
10962TIP3    H154301   1.673   2.914  12.664 -0.9928 -2.5951  3.1163
10962TIP3    H254302   1.689   2.819  12.547 -0.9729  1.1707 -0.1604
10963TIP3   OH254303   4.715   3.269  13.411  0.2123  0.3508  0.1618
10963TIP3    H154304   4.752   3.289  13.496  1.1309 -0.7159  0.0286
10963TIP3    H254305   4.678   3.352  13.381  0.4521  0.8873  1.3000
10964TIP3   OH254306   1.507   4.273  12.254 -0.5450  0.4443 -0.1248
10964TIP3    H154307   1.593   4.303  12.224  0.1745 -0.8779  0.5273
10964TIP3    H254308   1.508   4.179  12.240 -0.2261 -0.2844  3.6142
10965TIP3   OH254309   2.430   3.892   2.862 -0.4957  0.2537  0.1105
10965TIP3    H154310   2.354   3.891   2.921 -0.8490 -0.7306 -0.3381
10965TIP3    H254311   2.419   3.814   2.808  0.9917 -0.0498  0.2210
10966TIP3   OH254312   4.101   5.159  14.789 -0.0251 -0.5069 -0.7276
10966TIP3    H154313   4.122   5.136  14.699  1.8365 -0.7397 -0.2953
10966TIP3    H254314   4.153   5.238  14.805 -0.5960 -0.2787  0.0396
10967TIP3   OH254315   5.932   3.315   3.344 -0.0238 -0.0183  0.2142
10967TIP3    H154316   5.893   3.388   3.297 -1.8608 -1.0359  0.0368
10967TIP3    H254317   5.865   3.288   3.407 -0.5328 -3.1194 -1.4376
10968TIP3   OH254318   4.460   2.960  10.548  0.1053  0.5943  0.6737
10968TIP3    H154319   4.502   2.908  10.480  2.4114  1.5583  1.2740
10968TIP3    H254320   4.405   2.898  10.596 -0.1999 -0.4519 -0.9677
10969TIP3   OH254321   2.279   3.769  11.115 -0.0363  0.7137 -0.2935
10969TIP3    H154322   2.245   3.846  11.068  1.2841  1.0861 -0.6743
10969TIP3    H254323   2.205   3.709  11.118 -0.7610  1.5340 -1.0101
10970TIP3   OH254324   2.305   0.055   0.405  0.5834  0.1970  0.3106
10970TIP3    H154325   2.336   0.142   0.379 -1.0847  0.9460  0.6708
10970TIP3    H254326   2.300   0.005   0.323  2.4977  0.0939  0.2303
10971TIP3   OH254327   3.291   6.224  15.241  0.0826  0.5324 -0.9603
10971TIP3    H154328   3.209   6.182  15.213 -1.2060 -0.4610  3.4387
10971TIP3    H254329   3.270   6.317  15.247 -0.8409  0.2718  0.2274
10972TIP3   OH254330   0.253   5.883   5.108  0.1005  0.5238  0.4954
10972TIP3    H154331   0.320   5.948   5.128  1.5384 -0.5361 -0.6079
10972TIP3    H254332   0.300   5.799   5.112 -0.6977 -0.1343 -2.0388
10973TIP3   OH254333   0.304   3.262   4.006 -0.5383  0.4474  0.9895
10973TIP3    H154334   0.363   3.188   3.992 -0.7537  0.2989  0.8471
10973TIP3    H254335   0.314   3.284   4.098 -0.1268  0.5394  0.9208
10974TIP3   OH254336   6.559   4.877   2.938 -0.0220  0.0141 -0.1870
10974TIP3    H154337   6.575   4.783   2.939  0.4205 -0.0301 -2.9983
10974TIP3    H254338   6.467   4.885   2.914 -0.2832  0.3381  0.8537
10975TIP3   OH254339   1.053   4.111   3.526 -0.3380  0.3526 -0.0689
10975TIP3    H154340   1.027   4.019   3.530 -0.0102  0.2760  0.3785
10975TIP3    H254341   1.131   4.112   3.470  0.5194  0.1452  1.0746
10976TIP3   OH254342   3.112   3.756  15.089 -0.0707  0.1136  0.2345
10976TIP3    H154343   3.028   3.778  15.049 -2.4698 -2.4122  3.4262
10976TIP3    H254344   3.106   3.663  15.110  2.6515  0.3010  2.4625
10977TIP3   OH254345   0.440   2.779  12.477  0.3864  0.6104  0.1127
10977TIP3    H154346   0.366   2.725  12.450  1.2214 -0.3176 -0.3804
10977TIP3    H254347   0.435   2.781  12.573 -1.3376  2.1189  0.0385
10978TIP3   OH254348   0.621   4.602   5.604 -0.0846  0.0422 -0.0682
10978TIP3    H154349   0.540   4.650   5.621  0.5496  0.8928  0.6413
10978TIP3    H254350   0.674   4.614   5.683  1.2235  0.5213 -0.9793
10979TIP3   OH254351   3.456   1.504  16.990 -0.1812  0.7217  0.2675
10979TIP3    H154352   3.515   1.563  17.038  4.3193 -0.9431 -2.6267
10979TIP3    H254353   3.480   1.416  17.020 -1.2029 -0.0360 -1.0347
10980TIP3   OH254354   6.466   5.740  11.205  0.0849  0.2836 -0.5504
10980TIP3    H154355   6.549   5.702  11.232 -0.2919  0.8505  1.6242
10980TIP3    H254356   6.459   5.719  11.112  2.6151  0.1925 -0.7925
10981TIP3   OH254357   4.421   3.705   1.685  0.1643 -0.1843 -0.3436
10981TIP3    H154358   4.489   3.773   1.687 -0.2252  0.2040  0.2303
10981TIP3    H254359   4.387   3.708   1.596  0.4145  0.1159 -0.4317
10982TIP3   OH254360   0.837   5.904   3.970  0.5464 -0.3423  0.3276
10982TIP3    H154361   0.760   5.882   3.918 -2.1524  0.2697  3.6735
10982TIP3    H254362   0.847   5.829   4.030  0.0568  1.1984  2.4583
10983TIP3   OH254363   6.160   1.155   6.093  0.3315  0.9891 -0.1825
10983TIP3    H154364   6.097   1.195   6.034 -1.7534  0.9547  1.8434
10983TIP3    H254365   6.189   1.075   6.048 -0.4999  1.3973 -1.4810
10984TIP3   OH254366   0.796   3.661   0.837 -0.5156 -0.0524 -0.7286
10984TIP3    H154367   0.824   3.750   0.859  0.2507 -0.2149 -1.0161
10984TIP3    H254368   0.731   3.673   0.767  0.4208  0.2404 -1.5732
10985TIP3   OH254369   2.470   0.171  13.123  0.5945 -0.2454  0.3130
10985TIP3    H154370   2.444   0.203  13.036 -1.2250 -1.2485  0.4384
10985TIP3    H254371   2.459   0.246  13.181 -0.6601 -0.2566  0.0968
10986TIP3   OH254372   5.434   5.173   0.809  0.1045  0.1539 -0.6768
10986TIP3    H154373   5.396   5.261   0.809  1.3840  0.7423  0.0651
10986TIP3    H254374   5.455   5.156   0.901  0.6743 -0.5634 -0.9269
10987TIP3   OH254375   1.452   5.042  13.380  0.5905  0.1279  0.2852
10987TIP3    H154376   1.447   4.946  13.379  1.1923  0.0885 -0.7708
10987TIP3    H254377   1.364   5.070  13.405 -0.5650 -0.6819 -2.4231
10988TIP3   OH254378   5.389   1.348  15.301 -0.3037  0.3649  0.0460
10988TIP3    H154379   5.296   1.327  15.288 -0.3427  0.1343  0.6886
10988TIP3    H254380   5.423   1.362  15.212 -0.9808  0.5750 -0.1863
10989TIP3   OH254381   3.706   0.852   2.746  0.2882  0.2169  0.5878
10989TIP3    H154382   3.704   0.758   2.760 -0.4039  0.1408 -0.0143
10989TIP3    H254383   3.615   0.880   2.755  0.4072  0.7401  0.1939
10990TIP3   OH254384   0.836   2.393  17.053 -0.5088 -0.1747  0.0442
10990TIP3    H154385   0.826   2.474  17.102 -0.0941 -0.9938  1.5682
10990TIP3    H254386   0.749   2.354  17.053 -0.7194  0.2866 -0.7360
10991TIP3   OH254387   2.238   1.786   3.692 -0.3176 -0.7465 -0.1770
10991TIP3    H154388   2.156   1.737   3.704 -0.0660 -0.6014  3.1151
10991TIP3    H254389   2.303   1.736   3.742  1.4973 -0.4283 -2.0510
10992TIP3   OH254390   3.875   0.726  11.738 -0.3673 -0.0631  0.0426
10992TIP3    H154391   3.869   0.763  11.650 -0.3981 -1.1858 -0.4504
10992TIP3    H254392   3.868   0.801  11.797  0.5722  0.8084 -0.9240
10993TIP3   OH254393   4.641   5.311  13.117 -0.6623  0.1923  0.1118
10993TIP3    H154394   4.582   5.364  13.171 -1.1199  0.1404 -0.3251
10993TIP3    H254395   4.593   5.229  13.102 -0.4219  0.0920 -0.1289
10994TIP3   OH254396   3.118   5.862  17.076  0.4788 -0.1103 -0.1428
10994TIP3    H154397   3.191   5.868  17.014  0.4646 -2.1708 -0.4129
10994TIP3    H254398   3.115   5.770  17.100 -1.9015 -0.0277  0.0364
10995TIP3   OH254399   2.947   4.982   2.044 -0.6162  0.0603  0.4777
10995TIP3    H154400   2.978   5.070   2.064  0.4842 -0.4514  1.1037
10995TIP3    H254401   2.976   4.967   1.954 -2.2531  0.9346 -0.2355
10996TIP3   OH254402   3.920   5.098   6.340 -0.2856  0.1979 -0.0468
10996TIP3    H154403   3.943   5.011   6.372 -1.4420 -1.0001 -2.1948
10996TIP3    H254404   3.828   5.109   6.363 -0.5950  0.1220 -1.1557
10997TIP3   OH254405   2.191   2.078   4.284  0.8962 -0.1182  0.2325
10997TIP3    H154406   2.278   2.042   4.272  1.0865 -0.0578  1.3431
10997TIP3    H254407   2.168   2.058   4.375 -0.4912 -0.6600 -0.2077
10998TIP3   OH254408   4.420   6.351  16.340 -0.2066  0.3597 -0.3981
10998TIP3    H154409   4.499   6.397  16.367 -0.4458 -0.1070  1.1896
10998TIP3    H254410   4.450   6.265  16.310 -0.0752  0.3228 -0.1594
10999TIP3   OH254411   1.595   3.261   1.290  0.4935  0.5260 -0.1716
10999TIP3    H154412   1.568   3.169   1.292 -1.3243  1.0433  0.2871
10999TIP3    H254413   1.686   3.258   1.260  0.8799 -1.4965  1.0325
11000TIP3   OH254414   1.326   2.141  14.936 -0.4347  0.1075 -0.5869
11000TIP3    H154415   1.381   2.186  15.001 -2.6374  1.0213  0.7366
11000TIP3    H254416   1.357   2.050  14.938  0.2004  0.3222  1.0412
11001TIP3   OH254417   4.147   0.985   2.298 -0.2971 -0.1330 -0.0370
11001TIP3    H154418   4.242   0.982   2.300 -0.2147  1.6666  1.3517
11001TIP3    H254419   4.119   0.894   2.314  1.1775 -0.5102  0.5006
11002TIP3   OH254420   0.017   3.420   2.962 -0.5584  0.0532 -0.0160
11002TIP3    H154421  -0.070   3.439   2.929 -0.6954 -0.1800  0.2050
11002TIP3    H254422   0.027   3.476   3.039 -0.1810  0.7082 -0.5237
11003TIP3   OH254423   2.843   2.168  11.504 -0.0506  0.4354  0.5647
11003TIP3    H154424   2.810   2.231  11.440 -0.5144 -0.1807  0.1969
11003TIP3    H254425   2.918   2.127  11.460 -1.0473 -0.7897 -0.0419
11004TIP3   OH254426   0.686   0.465  17.189  0.0677  0.0212  0.0319
11004TIP3    H154427   0.606   0.503  17.154  0.8284  1.1328 -0.5826
11004TIP3    H254428   0.703   0.389  17.133  2.0982  2.6235 -3.2622
11005TIP3   OH254429   1.993   3.980  16.692 -0.2215 -0.5210 -0.0455
11005TIP3    H154430   2.067   4.011  16.743 -1.3151  2.6154 -0.1443
11005TIP3    H254431   1.978   3.891  16.722  3.3970 -1.2286  0.1073
11006TIP3   OH254432   1.831   2.072   4.558 -0.0829 -0.0046 -0.0010
11006TIP3    H154433   1.791   2.149   4.517  0.7594 -0.3870 -1.6232
11006TIP3    H254434   1.809   2.081   4.651 -0.8103  1.6845 -0.2869
11007TIP3   OH254435   0.448   6.735  16.210 -0.2629  0.3148  0.1565
11007TIP3    H154436   0.426   6.822  16.242 -2.3214 -0.4340  0.9739
11007TIP3    H254437   0.478   6.688  16.288  1.2500  0.3964 -0.3593
11008TIP3   OH254438   4.235   3.792   5.117  0.3844  0.4630  0.7290
11008TIP3    H154439   4.270   3.704   5.128  0.7982 -0.0832 -3.3093
11008TIP3    H254440   4.312   3.848   5.110  0.2678  0.4948 -0.4778
11009TIP3   OH254441   0.548   3.618  16.588 -0.2393  0.0807  0.2427
11009TIP3    H154442   0.502   3.581  16.663  0.5245  1.6982  1.5958
11009TIP3    H254443   0.479   3.632  16.522 -1.3605  0.6301  1.4725
11010TIP3   OH254444   5.611   5.823   4.317 -0.1489  0.4046  0.2219
11010TIP3    H154445   5.637   5.904   4.361 -1.3380  0.2664  1.2329
11010TIP3    H254446   5.574   5.851   4.234 -0.2112  0.8720  0.4070
11011TIP3   OH254447   0.769   4.766  10.572 -0.1656  0.0474  0.2495
11011TIP3    H154448   0.747   4.859  10.571 -0.9306 -0.1224 -1.3680
11011TIP3    H254449   0.689   4.722  10.541  0.1999 -1.1552  0.9383
11012TIP3   OH254450   3.470   3.672   3.204 -0.4041  0.2922  0.8099
11012TIP3    H154451   3.483   3.610   3.276  1.2604  0.1390  0.4350
11012TIP3    H254452   3.559   3.703   3.183 -0.7663 -0.0295 -1.4870
11013TIP3   OH254453   4.829   1.636   2.036  1.0203 -0.3362 -0.2918
11013TIP3    H154454   4.897   1.640   1.968  0.1427 -1.4059 -1.2592
11013TIP3    H254455   4.783   1.554   2.020  1.0163 -0.8216  1.8408
11014TIP3   OH254456   3.419   1.298   0.074 -0.3472  0.1066 -0.2695
11014TIP3    H154457   3.496   1.288   0.130  0.0539 -0.1599 -0.8658
11014TIP3    H254458   3.397   1.391   0.080 -0.8405 -0.0659  1.0154
11015TIP3   OH254459   4.333   3.545  12.213 -0.0847  0.1140  0.5223
11015TIP3    H154460   4.379   3.573  12.134 -0.8120  1.7646  0.6550
11015TIP3    H254461   4.259   3.604  12.221 -1.5988 -1.7588  0.9642
11016TIP3   OH254462   3.996   0.730   4.321  0.1225  0.0217  0.5225
11016TIP3    H154463   4.038   0.698   4.241  0.6754  1.4063  0.2267
11016TIP3    H254464   3.904   0.738   4.298  0.3004  0.5564 -0.0529
11017TIP3   OH254465   1.980   5.150   4.464  0.0902  0.5586 -0.1159
11017TIP3    H154466   1.945   5.140   4.553 -0.9652 -0.7581 -0.6417
11017TIP3    H254467   1.986   5.244   4.451  0.4157  0.7740  1.4082
11018TIP3   OH254468   3.013   0.799  13.818  0.1454  0.0584 -0.1238
11018TIP3    H154469   3.091   0.841  13.856 -0.2896  0.0711  0.7608
11018TIP3    H254470   2.998   0.722  13.872  0.8161 -1.1903 -1.6194
11019TIP3   OH254471   6.114   4.527  11.563 -0.3101  0.2802 -0.0149
11019TIP3    H154472   6.105   4.613  11.520  2.3267 -0.4009 -2.1820
11019TIP3    H254473   6.179   4.542  11.631 -1.5386  0.4519  1.1563
11020TIP3   OH254474   0.023   1.947  16.627  0.2486 -0.1086 -0.6286
11020TIP3    H154475   0.100   1.968  16.576  0.7120  0.9328  0.4586
11020TIP3    H254476  -0.050   1.989  16.580  0.6443  0.7152 -0.5181
11021TIP3   OH254477   6.717   0.503   0.413 -0.3084 -0.2745 -0.3755
11021TIP3    H154478   6.769   0.566   0.364 -1.4192  0.4492 -0.6518
11021TIP3    H254479   6.778   0.466   0.477  0.3692  1.0306 -0.2450
11022TIP3   OH254480   5.870   0.664   0.957  0.1299 -0.1334  0.1152
11022TIP3    H154481   5.962   0.653   0.933  0.2677  1.8616 -0.4263
11022TIP3    H254482   5.832   0.711   0.883 -1.1430 -0.2067  0.7056
11023TIP3   OH254483   1.538   4.677   1.143 -0.0615 -0.3882  0.2179
11023TIP3    H154484   1.594   4.605   1.173  0.8368  0.1558 -0.0994
11023TIP3    H254485   1.454   4.662   1.185  1.0958  0.3047  3.0515
11024TIP3   OH254486   5.537   5.214  11.824  0.3394 -0.1254 -0.3282
11024TIP3    H154487   5.595   5.182  11.893 -0.3704 -0.5870  0.0571
11024TIP3    H254488   5.451   5.221  11.865  0.3882  1.9693 -0.4933
11025TIP3   OH254489   2.047   4.058   1.109 -0.3292 -0.4401  0.1709
11025TIP3    H154490   2.062   3.964   1.098  1.1955 -0.1945 -0.0778
11025TIP3    H254491   2.088   4.078   1.193 -0.0228  0.1298 -0.1129
11026TIP3   OH254492   1.494   5.283  14.498 -0.1247  0.4964  0.0111
11026TIP3    H154493   1.424   5.287  14.563  0.3065  3.3997  0.4118
11026TIP3    H254494   1.545   5.206  14.523 -1.4143  0.0851  1.5514
11027TIP3   OH254495   4.528   4.259  12.460 -0.8140 -0.3575  0.5120
11027TIP3    H154496   4.450   4.244  12.513 -0.2121 -0.6734  1.3249
11027TIP3    H254497   4.596   4.209  12.503  0.4503  1.8878  1.3127
11028TIP3   OH254498   2.432   1.404   3.605  0.4081 -0.1391  0.0782
11028TIP3    H154499   2.447   1.346   3.531  0.6669 -0.3286  0.2788
11028TIP3    H254500   2.519   1.428   3.636  0.3332 -1.1448  1.1662
11029TIP3   OH254501   1.062   1.456   1.868 -0.2834  0.1075 -0.5822
11029TIP3    H154502   1.023   1.466   1.781  0.0470 -1.2981 -0.9238
11029TIP3    H254503   1.153   1.484   1.857 -0.4406  0.6417 -0.5074
11030TIP3   OH254504   4.256   4.053  13.023  0.0424  0.0641 -0.2894
11030TIP3    H154505   4.180   4.101  12.991  2.3566  2.3242 -2.9239
11030TIP3    H254506   4.249   3.967  12.981 -1.3573 -0.0278  0.0842
11031TIP3   OH254507   4.829   3.262  11.888 -0.4385 -0.2809  0.0707
11031TIP3    H154508   4.818   3.205  11.812 -1.6791 -2.7620  1.9440
11031TIP3    H254509   4.802   3.208  11.963  0.1509  2.1925  2.2413
11032TIP3   OH254510   5.182   3.688  15.641 -0.2652  0.3687  0.3429
11032TIP3    H154511   5.131   3.625  15.693 -0.3206  0.2214  0.1097
11032TIP3    H254512   5.256   3.711  15.698 -0.5571  0.5398  0.6613
11033TIP3   OH254513   5.184   4.348  12.783  0.7955  0.4602 -0.2224
11033TIP3    H154514   5.278   4.338  12.802  0.8930  0.9513 -0.4256
11033TIP3    H254515   5.145   4.372  12.867  0.6387 -1.0259  0.1558
11034TIP3   OH254516   3.372   5.031  12.695  0.0991 -0.2351 -0.1725
11034TIP3    H154517   3.307   5.024  12.625 -0.6502 -1.2365  0.5863
11034TIP3    H254518   3.322   5.014  12.775  0.9842  0.6139  0.5913
11035TIP3   OH254519   2.462   5.913   5.463 -0.4326 -0.3083  0.1441
11035TIP3    H154520   2.490   6.001   5.486  0.1072 -0.7481  1.2086
11035TIP3    H254521   2.399   5.888   5.532 -0.5017 -0.7967 -0.0861
11036TIP3   OH254522   1.428   0.026   1.278  0.4434  0.4347  0.0169
11036TIP3    H154523   1.513   0.070   1.268  1.1086 -0.8933 -0.4290
11036TIP3    H254524   1.415  -0.020   1.195 -0.9377  0.9729 -0.0851
11037TIP3   OH254525   4.752   2.858  11.374 -0.2977 -0.2502  0.5828
11037TIP3    H154526   4.758   2.845  11.279 -1.1677 -0.0695  0.4908
11037TIP3    H254527   4.803   2.787  11.411 -0.5774 -0.7773 -0.0138
11038TIP3   OH254528   2.418   0.231  13.456  0.4336 -0.0846  0.1575
11038TIP3    H154529   2.385   0.237  13.545 -0.8774  1.4207 -0.3889
11038TIP3    H254530   2.340   0.223  13.401  1.2506 -2.3364 -0.8204
11039TIP3   OH254531   6.158   5.365   4.786 -0.2352 -0.0466  0.6487
11039TIP3    H154532   6.213   5.288   4.788 -0.6774 -0.3674  0.5642
11039TIP3    H254533   6.212   5.432   4.743 -0.5031 -0.8306 -1.0062
11040TIP3   OH254534   4.149   2.894   0.825 -0.0073  0.0722  0.6011
11040TIP3    H154535   4.095   2.822   0.858 -0.5704  0.3929  0.4095
11040TIP3    H254536   4.085   2.956   0.789  0.6012 -0.5686 -1.7106
11041TIP3   OH254537   0.156   3.837   6.080 -0.3482  0.2341 -0.6036
11041TIP3    H154538   0.180   3.911   6.137  1.6335 -0.2868 -0.6761
11041TIP3    H254539   0.108   3.778   6.137  1.2666 -0.0960  0.5010
11042TIP3   OH254540   2.779   4.383   0.755 -0.0002 -0.4040 -0.0523
11042TIP3    H154541   2.829   4.321   0.702 -1.1605 -2.1592  0.8267
11042TIP3    H254542   2.688   4.357   0.744 -0.4380  0.5103  1.1527
11043TIP3   OH254543   4.764   4.967  15.490 -0.4245  0.7801 -0.3378
11043TIP3    H154544   4.716   4.965  15.573 -0.9410  1.8207 -0.6026
11043TIP3    H254545   4.730   4.891  15.442  1.3758 -1.1175  1.1718
11044TIP3   OH254546   3.028   1.502  15.888 -0.2249 -0.5842 -0.7657
11044TIP3    H154547   3.102   1.507  15.827 -0.9898  0.0094 -1.6761
11044TIP3    H254548   2.998   1.593  15.895 -0.0507 -0.6177  0.6471
11045TIP3   OH254549   2.182   1.819  16.463  0.0487  0.6506  0.5737
11045TIP3    H154550   2.087   1.834  16.467 -0.0456  1.3528 -2.0833
11045TIP3    H254551   2.193   1.726  16.484 -1.1346  0.6983  1.5211
11046TIP3   OH254552   6.181   0.692  16.257 -0.4797 -0.4921 -0.4595
11046TIP3    H154553   6.166   0.777  16.299 -1.3541  0.4687 -2.5605
11046TIP3    H254554   6.159   0.707  16.165 -4.1946 -3.8831 -0.3707
11047TIP3   OH254555   5.718   0.304   2.936 -0.4994  0.3511 -0.4916
11047TIP3    H154556   5.645   0.347   2.980 -1.3710 -0.2306 -1.3283
11047TIP3    H254557   5.681   0.222   2.903  0.7876 -0.4067 -0.0981
11048TIP3   OH254558   0.254   0.844  12.780  0.5726  0.3034 -0.5940
11048TIP3    H154559   0.313   0.800  12.841 -1.3357 -2.8010 -0.7673
11048TIP3    H254560   0.279   0.812  12.694 -2.0929 -2.3055 -0.5582
11049TIP3   OH254561   2.396   4.888   2.427  0.0322  0.3758 -0.5567
11049TIP3    H154562   2.312   4.842   2.420 -0.2454  1.0421 -1.7918
11049TIP3    H254563   2.373   4.974   2.462  0.2902  0.3255 -0.2594
11050TIP3   OH254564   3.996   3.393   4.530 -0.0993  0.2059 -0.1027
11050TIP3    H154565   3.924   3.362   4.474 -0.8353  1.8989 -0.1729
11050TIP3    H254566   4.060   3.429   4.469  0.1407  0.0273  0.0414
11051TIP3   OH254567   6.568   4.664  12.081 -0.7467  0.1183  0.2153
11051TIP3    H154568   6.550   4.573  12.105  0.7087  0.0277  1.0745
11051TIP3    H254569   6.631   4.694  12.146 -0.4006  1.4215 -0.6772
11052TIP3   OH254570   0.949   3.857   3.432 -0.3212  0.5857 -0.0404
11052TIP3    H154571   0.859   3.831   3.452 -0.1511  1.2412  1.7551
11052TIP3    H254572   1.000   3.823   3.505  1.2661 -1.5942 -2.0299
11053TIP3   OH254573   1.365   4.162   4.778  0.5115 -0.1461  0.0478
11053TIP3    H154574   1.375   4.071   4.807  0.3871 -0.5832 -1.2203
11053TIP3    H254575   1.279   4.165   4.736  1.1038  0.1834 -1.1915
11054TIP3   OH254576   0.100   2.647  16.822  0.3680  0.0823 -0.0034
11054TIP3    H154577   0.133   2.669  16.909 -0.5803 -0.4743  0.5174
11054TIP3    H254578   0.111   2.727  16.771  3.0806 -0.2623 -0.0722
11055TIP3   OH254579   5.548   1.791  12.303 -0.0562  0.0196  0.0679
11055TIP3    H154580   5.607   1.864  12.285  0.3835 -0.2480  0.3850
11055TIP3    H254581   5.595   1.714  12.271 -0.2082 -0.2045  0.3819
11056TIP3   OH254582   1.381   1.634  13.143 -0.7257  0.9852 -0.0412
11056TIP3    H154583   1.429   1.552  13.128 -2.5821 -0.1026 -0.3820
11056TIP3    H254584   1.427   1.675  13.217  0.4427 -0.2022 -0.0611
11057TIP3   OH254585   2.904   3.125  14.878 -0.5812  0.0145 -0.4451
11057TIP3    H154586   2.940   3.047  14.837  0.4034 -0.9510  2.0820
11057TIP3    H254587   2.980   3.169  14.916 -1.3940  1.1178 -0.0415
11058TIP3   OH254588   0.874   1.507   2.106  0.4315  0.3349 -0.1406
11058TIP3    H154589   0.792   1.482   2.062  1.7344 -3.1764 -0.8289
11058TIP3    H254590   0.940   1.450   2.068  2.6750  0.9285  2.5903
11059TIP3   OH254591   4.517   5.870  13.136  0.2482 -0.1015 -0.4992
11059TIP3    H154592   4.470   5.792  13.168  0.0449 -0.2095 -1.0313
11059TIP3    H254593   4.609   5.848  13.145  0.1914 -0.2996 -0.3949
11060TIP3   OH254594   0.367   0.719   0.411 -0.0873  0.1124 -0.0240
11060TIP3    H154595   0.452   0.688   0.381 -1.1446 -1.0814 -2.0936
11060TIP3    H254596   0.371   0.715   0.506  2.0292 -0.2779 -0.0975
11061TIP3   OH254597   1.223   1.421   3.635  0.3534 -0.0961 -0.3756
11061TIP3    H154598   1.295   1.368   3.668  0.4962 -0.5100 -1.3510
11061TIP3    H254599   1.170   1.361   3.582 -1.1878 -0.0157  0.9850
11062TIP3   OH254600   3.921   1.968  12.065  0.3424  0.2118  0.4865
11062TIP3    H154601   3.943   1.877  12.083  0.5866 -0.0688 -1.0809
11062TIP3    H254602   3.989   2.019  12.108  0.5014 -0.3624  0.9219
11063TIP3   OH254603   5.820   5.743  15.634 -0.0713  0.3751 -1.1218
11063TIP3    H154604   5.852   5.711  15.550  0.5305  1.9796 -1.5460
11063TIP3    H254605   5.729   5.766  15.617 -0.1469  0.0621 -1.1460
11064TIP3   OH254606   6.150   0.144   1.342  0.2254  0.1684 -0.2677
11064TIP3    H154607   6.135   0.142   1.437 -0.9013 -0.3670 -0.4420
11064TIP3    H254608   6.210   0.071   1.327 -0.1907 -0.2284 -0.0508
11065TIP3   OH254609   0.434   5.021  14.735 -0.5541  0.2771  0.1460
11065TIP3    H154610   0.511   5.009  14.679  0.1489  1.0750  0.8980
11065TIP3    H254611   0.369   5.061  14.678 -0.8115 -1.4087 -0.7821
11066TIP3   OH254612   6.385   0.675  16.928  0.0111 -0.2745  0.7553
11066TIP3    H154613   6.344   0.761  16.927 -0.5525 -0.5416  0.0034
11066TIP3    H254614   6.435   0.672  16.846 -0.4994 -0.9019  0.4592
11067TIP3   OH254615   6.689   5.387   2.990 -0.3270 -0.8478 -0.4788
11067TIP3    H154616   6.716   5.297   2.973 -0.2938 -0.8396 -0.4717
11067TIP3    H254617   6.714   5.402   3.082 -0.9226 -1.0454 -0.2801
11068TIP3   OH254618   3.928   0.262   3.204 -0.0073  0.3810 -0.2750
11068TIP3    H154619   3.938   0.320   3.128 -1.7268 -1.5628 -2.1018
11068TIP3    H254620   3.956   0.176   3.172 -0.8551 -0.5116  1.2848
11069TIP3   OH254621   2.027   3.615  15.779  0.2358 -0.3917 -0.2875
11069TIP3    H154622   2.034   3.610  15.684 -1.1056 -1.4889 -0.3555
11069TIP3    H254623   1.962   3.549  15.802  1.9959 -1.6308  1.5813
11070TIP3   OH254624   6.327   4.090  13.281  0.4469 -0.1965 -0.6044
11070TIP3    H154625   6.260   4.074  13.214  0.5183 -2.4878 -0.2175
11070TIP3    H254626   6.310   4.024  13.348  2.2110  0.0968  0.1979
11071TIP3   OH254627   2.406   4.889  17.132  0.0524 -0.6590 -0.2326
11071TIP3    H154628   2.394   4.984  17.143  0.2299 -0.5446 -0.9811
11071TIP3    H254629   2.317   4.854  17.132  0.0153 -0.6371  1.1452
11072TIP3   OH254630   4.126   0.596  15.669  0.1698  1.0206  0.2491
11072TIP3    H154631   4.065   0.595  15.595  0.4794  0.3684 -0.0039
11072TIP3    H254632   4.078   0.552  15.739  0.2808  0.6723  0.1066
11073TIP3   OH254633   4.283   5.391   3.885 -0.0878  0.1069  0.0032
11073TIP3    H154634   4.330   5.433   3.813  0.4781 -1.0384 -0.3245
11073TIP3    H254635   4.352   5.361   3.944 -0.2718 -2.4522 -0.9557
11074TIP3   OH254636   3.919   4.718  12.076 -0.6185 -0.9318 -0.4584
11074TIP3    H154637   3.970   4.648  12.116 -0.3408  0.5331  1.9148
11074TIP3    H254638   3.870   4.674  12.006  1.4706 -2.9756 -0.7737
11075TIP3   OH254639   5.423   1.162   2.396 -0.0458 -0.5546  0.3107
11075TIP3    H154640   5.388   1.073   2.394  1.6336 -1.2487 -0.3201
11075TIP3    H254641   5.437   1.180   2.489 -0.4229 -0.9407  0.4456
11076TIP3   OH254642   4.239   0.902   4.010  0.1756 -0.1185  0.7944
11076TIP3    H154643   4.199   0.973   4.061 -1.8494  2.8316 -4.1724
11076TIP3    H254644   4.328   0.932   3.993 -0.0980  0.3978  0.2223
11077TIP3   OH254645   3.652   3.759   2.393  0.1191 -0.3671  0.0727
11077TIP3    H154646   3.644   3.663   2.397 -0.0139 -0.3484  0.2449
11077TIP3    H254647   3.747   3.775   2.390  0.2296 -0.4180  2.1018
11078TIP3   OH254648   3.636   0.107   3.278 -0.0427  0.2357 -0.1953
11078TIP3    H154649   3.696   0.180   3.296  0.0178  0.5130 -1.4781
11078TIP3    H254650   3.596   0.089   3.363 -1.1637  2.7479 -0.0775
11079TIP3   OH254651   4.561   4.793   2.246  0.1853  0.3557  0.1265
11079TIP3    H154652   4.576   4.881   2.281  1.2750 -0.0768  0.7793
11079TIP3    H254653   4.561   4.805   2.151  0.0150  1.1046  0.2160
11080TIP3   OH254654   0.235   1.372  15.565 -0.2562 -0.0739  0.4431
11080TIP3    H154655   0.210   1.370  15.473 -0.7023  3.3057  0.3712
11080TIP3    H254656   0.315   1.318  15.569 -0.3593 -0.4923 -1.8464
11081TIP3   OH254657   3.991   2.724   2.215 -0.0972 -0.0311 -0.2987
11081TIP3    H154658   3.958   2.637   2.193  1.0353 -0.5858  0.1092
11081TIP3    H254659   4.083   2.722   2.189  0.5787  0.2087  1.8929
11082TIP3   OH254660   0.214   1.216  14.891  0.2335  0.0726 -0.3669
11082TIP3    H154661   0.235   1.173  14.974 -1.1109 -2.6905 -1.3405
11082TIP3    H254662   0.120   1.235  14.897  0.3285  0.7336 -0.8702
11083TIP3   OH254663   1.106   5.040   4.373  0.1111  0.3761  0.6372
11083TIP3    H154664   1.110   5.046   4.278  0.1432 -2.2341  0.4093
11083TIP3    H254665   1.068   4.954   4.390  0.0924  0.7925  3.0006
11084TIP3   OH254666   3.229   4.409   2.402 -0.4943 -0.2369  0.3266
11084TIP3    H154667   3.153   4.355   2.421 -0.5225 -0.2437  0.1989
11084TIP3    H254668   3.229   4.476   2.470 -0.1704 -0.6973  0.7871
11085TIP3   OH254669   1.861   5.769  17.164 -0.5740 -0.0557 -0.8407
11085TIP3    H154670   1.912   5.848  17.181 -0.5808  0.0386 -1.2457
11085TIP3    H254671   1.858   5.763  17.069 -0.7237 -0.4481 -0.8114
11086TIP3   OH254672   5.057   1.328  11.974 -0.0359  0.3590 -0.5942
11086TIP3    H154673   4.962   1.311  11.972 -0.0428  0.4399 -2.0812
11086TIP3    H254674   5.063   1.422  11.993 -0.3437  0.7503 -2.2635
11087TIP3   OH254675   3.877   3.079  10.664  0.1821 -0.2161 -0.3494
11087TIP3    H154676   3.790   3.119  10.656  0.9803  1.9900  1.1380
11087TIP3    H254677   3.930   3.123  10.598  0.3696 -1.0530 -0.7724
11088TIP3   OH254678   3.628   1.679  11.750 -0.1330  0.3210  0.7397
11088TIP3    H154679   3.596   1.739  11.817  0.3031 -0.6878  1.8870
11088TIP3    H254680   3.565   1.606  11.751 -0.3855  0.4987 -0.2917
11089TIP3   OH254681   6.599   0.585   3.861  0.2257  0.1734  0.0891
11089TIP3    H154682   6.509   0.573   3.890  0.1199  1.6255  0.4614
11089TIP3    H254683   6.646   0.614   3.939  1.0324 -0.5583 -0.1008
11090TIP3   OH254684   4.170   1.421  11.208  0.0689  0.5115  0.1368
11090TIP3    H154685   4.227   1.433  11.283  0.7844 -1.6301  0.0071
11090TIP3    H254686   4.202   1.341  11.165 -2.7242 -0.5735 -0.1837
11091TIP3   OH254687   5.941   2.910  11.290 -0.0646 -0.4998  0.2401
11091TIP3    H154688   5.902   2.988  11.329  1.1218 -0.0680  0.5905
11091TIP3    H254689   5.965   2.936  11.201 -0.4679 -0.7357  0.0581
11092TIP3   OH254690   6.489   6.369  16.269  0.0917  0.5640 -0.3891
11092TIP3    H154691   6.533   6.291  16.234 -0.7130 -0.4220  0.7335
11092TIP3    H254692   6.537   6.442  16.230  1.6681 -0.4741 -0.5034
11093TIP3   OH254693   2.880   3.300   1.711  0.0549  0.2473  0.4190
11093TIP3    H154694   2.882   3.379   1.657  1.2165 -0.3379 -0.4423
11093TIP3    H254695   2.853   3.231   1.650 -0.4750 -0.1120  1.0524
11094TIP3   OH254696   5.226   0.843  16.034  0.4388 -0.4569  0.9235
11094TIP3    H154697   5.217   0.890  16.117 -0.4695  1.5669 -0.2370
11094TIP3    H254698   5.291   0.894  15.985 -1.3051  0.2874 -0.7591
11095TIP3   OH254699   1.795   0.678  15.632  0.5368  0.0961 -0.0419
11095TIP3    H154700   1.708   0.717  15.646  0.5835  0.0990  0.2569
11095TIP3    H254701   1.821   0.708  15.545  0.6358  0.8671  0.2387
11096TIP3   OH254702   2.144   6.282   1.840  0.1758 -0.1531 -0.1360
11096TIP3    H154703   2.088   6.208   1.862  0.6491 -0.3398  0.4661
11096TIP3    H254704   2.083   6.354   1.823 -0.2816 -0.6559 -0.6539
11097TIP3   OH254705   6.087   5.629  16.918  0.3892  0.2315 -0.0359
11097TIP3    H154706   6.128   5.601  17.000  0.3288  1.6257  0.4962
11097TIP3    H254707   6.078   5.724  16.927 -0.6491  0.2637 -1.1948
11098TIP3   OH254708   5.075   1.744  13.155  0.8131  0.3425  0.3759
11098TIP3    H154709   5.022   1.815  13.191  0.8340  0.7786 -0.4494
11098TIP3    H254710   5.129   1.716  13.229 -0.3120  0.1038  1.1571
11099TIP3   OH254711   2.991   5.260   0.088 -0.0431  0.0736  0.2516
11099TIP3    H154712   3.067   5.304   0.051 -0.2053  0.6138  0.5567
11099TIP3    H254713   3.020   5.232   0.175 -0.4958  1.1595  0.7682
11100TIP3   OH254714   3.369   6.440  13.538  0.3990  0.1328 -0.0431
11100TIP3    H154715   3.376   6.536  13.530  1.2190  0.2330  1.4938
11100TIP3    H254716   3.320   6.427  13.620  5.5722 -0.6711  3.3770
11101TIP3   OH254717   4.401   2.244   1.860 -0.1677  0.0129  0.5017
11101TIP3    H154718   4.393   2.244   1.956 -2.8418 -0.7075  0.3571
11101TIP3    H254719   4.318   2.282   1.830  0.8802  0.8188 -1.5579
11102TIP3   OH254720   5.812   6.632   2.134 -0.1741 -0.3737  0.1112
11102TIP3    H154721   5.878   6.700   2.118  0.7911 -1.4909 -0.8600
11102TIP3    H254722   5.747   6.675   2.190 -0.3020  1.7658 -1.5237
11103TIP3   OH254723   2.660   3.585  15.655  0.4089 -0.5902 -0.0094
11103TIP3    H154724   2.629   3.545  15.574  0.8599 -0.4416 -0.2627
11103TIP3    H254725   2.581   3.602  15.706 -0.1805  2.0231 -1.6502
11104TIP3   OH254726   2.578   4.613   2.321  1.1199  0.3044 -0.1105
11104TIP3    H154727   2.645   4.673   2.289  1.3892  0.6138  0.9952
11104TIP3    H254728   2.610   4.584   2.406  0.8237 -1.1400 -0.4633
11105TIP3   OH254729   5.843   4.526  16.165  0.3584  0.1686  0.1502
11105TIP3    H154730   5.776   4.492  16.106  0.8083  1.2254 -1.0134
11105TIP3    H254731   5.847   4.620  16.145  3.0460 -0.0450 -0.7258
11106TIP3   OH254732   2.503   6.735   0.775  0.1328 -0.0438  0.1438
11106TIP3    H154733   2.420   6.766   0.738  1.0091  0.2362 -1.7032
11106TIP3    H254734   2.507   6.643   0.751 -0.2527 -0.4188  1.4427
11107TIP3   OH254735   0.924   0.446  12.701  0.7351 -0.0847 -0.9758
11107TIP3    H154736   0.831   0.434  12.720  0.5894  1.0721 -0.8645
11107TIP3    H254737   0.926   0.522  12.641  1.6817  0.6812 -0.0118
11108TIP3   OH254738   5.449   4.044  12.182 -0.1226  0.2325  0.0748
11108TIP3    H154739   5.370   4.063  12.231 -1.2359 -1.1543 -1.0755
11108TIP3    H254740   5.444   3.950  12.165  1.6716  0.1569 -0.2123
11109TIP3   OH254741   4.452   2.007  14.953  0.7864 -0.1129 -0.1304
11109TIP3    H154742   4.371   1.964  14.926  1.3888 -0.5133 -1.3510
11109TIP3    H254743   4.516   1.936  14.960  1.4128  0.3894 -0.6683
11110TIP3   OH254744   6.125   3.751   2.631  0.2542 -0.1947  0.1117
11110TIP3    H154745   6.056   3.745   2.697  1.7226  0.6406  1.8293
11110TIP3    H254746   6.079   3.771   2.549 -1.7922 -2.9203  0.4431
11111TIP3   OH254747   4.453   2.165  11.513 -1.0637  0.9065 -0.5939
11111TIP3    H154748   4.516   2.094  11.508 -0.8315  1.0013  0.7823
11111TIP3    H254749   4.400   2.156  11.433 -0.5797 -0.3597 -0.7853
11112TIP3   OH254750   4.495   2.477  13.447 -0.2507 -0.1701 -1.0265
11112TIP3    H154751   4.559   2.411  13.473 -0.2173 -0.2721 -1.3669
11112TIP3    H254752   4.411   2.441  13.475  0.0042  0.9084  1.3743
11113TIP3   OH254753   4.101   5.410   6.425 -0.3186  0.1009 -0.3159
11113TIP3    H154754   4.159   5.335   6.409 -1.2317 -0.8922  0.9300
11113TIP3    H254755   4.080   5.442   6.337  1.4498 -0.0082 -0.8262
11114TIP3   OH254756   5.892   0.750   1.716  0.0365 -0.8363 -0.0421
11114TIP3    H154757   5.826   0.707   1.662  0.6900 -1.6255 -0.2277
11114TIP3    H254758   5.909   0.834   1.672 -3.2108  0.9657  1.7432
11115TIP3   OH254759   2.248   5.168  15.645  0.2066 -0.1599 -0.1315
11115TIP3    H154760   2.333   5.211  15.638 -0.5636  1.2941 -0.9245
11115TIP3    H254761   2.266   5.087  15.693  2.2943 -0.6291 -1.5769
11116TIP3   OH254762   4.814   3.477   0.450  0.3036 -0.4369 -0.3026
11116TIP3    H154763   4.735   3.530   0.444  0.0285 -0.9156 -1.0160
11116TIP3    H254764   4.812   3.422   0.372  0.5802 -1.5067  0.4283
11117TIP3   OH254765   0.894   5.345   5.071 -0.4770  0.2110  0.2674
11117TIP3    H154766   0.900   5.294   5.151  1.3404  0.8231  0.5574
11117TIP3    H254767   0.885   5.279   5.002  0.3343 -0.4499  0.7655
11118TIP3   OH254768   5.948   6.674  13.417  0.0529  0.4057 -0.0126
11118TIP3    H154769   5.878   6.730  13.451 -0.5133 -1.4138  2.1047
11118TIP3    H254770   6.007   6.734  13.371 -1.9205  2.2733 -0.2559
11119TIP3   OH254771   6.496   1.735   2.429 -0.3716 -0.1993  0.1470
11119TIP3    H154772   6.425   1.787   2.467  0.5416  0.2474  1.2895
11119TIP3    H254773   6.467   1.644   2.438 -1.1030  0.0100 -0.0510
11120TIP3   OH254774   4.232   6.087   2.547 -0.1458 -0.4445 -0.3386
11120TIP3    H154775   4.251   6.180   2.536  0.0783 -0.2890  1.1951
11120TIP3    H254776   4.137   6.081   2.537  0.0562 -0.4557 -2.8705
11121TIP3   OH254777   4.330   2.844  16.095 -0.4201  0.2780 -0.6673
11121TIP3    H154778   4.424   2.862  16.099  0.1685 -2.4290 -0.2465
11121TIP3    H254779   4.292   2.899  16.164  1.1403  0.0512  0.4267
11122TIP3   OH254780   5.316   2.467  10.745 -0.1509 -0.6175  0.6752
11122TIP3    H154781   5.385   2.414  10.703 -0.0672 -0.3386  0.4580
11122TIP3    H254782   5.257   2.402  10.783 -1.3018 -0.9675 -1.5509
11123TIP3   OH254783   4.493   3.564  12.010 -0.1344  0.2988 -0.4240
11123TIP3    H154784   4.530   3.606  11.933 -1.6564  1.8406 -0.3525
11123TIP3    H254785   4.524   3.473  12.005 -1.9753 -0.2776 -4.0702
11124TIP3   OH254786   6.452   3.730  14.428  0.3765 -0.1373  0.2387
11124TIP3    H154787   6.487   3.667  14.490 -0.7244 -1.6876 -0.6446
11124TIP3    H254788   6.362   3.745  14.457 -0.1746 -0.9384 -0.9911
11125TIP3   OH254789   4.913   0.817  16.121  0.0408  0.1568 -0.0742
11125TIP3    H154790   4.856   0.881  16.164 -0.4797 -0.9175  0.8852
11125TIP3    H254791   4.925   0.851  16.032  1.1040  2.4129  0.8597
11126TIP3   OH254792   5.810   2.105  12.863 -0.1089 -0.0583 -0.6456
11126TIP3    H154793   5.835   2.014  12.849  0.7452  0.0306  0.1957
11126TIP3    H254794   5.723   2.113  12.824 -0.8586 -1.6228  0.6131
11127TIP3   OH254795   1.491   3.823   2.987  0.5886  0.0130 -0.5522
11127TIP3    H154796   1.571   3.773   3.004  1.9518  1.7434 -1.5830
11127TIP3    H254797   1.434   3.803   3.062  1.7481 -1.6747 -0.0668
11128TIP3   OH254798   2.923   4.955  12.078 -0.2026  0.3616 -0.0239
11128TIP3    H154799   2.915   4.988  11.989 -1.2427 -1.1894 -0.5441
11128TIP3    H254800   2.980   4.878  12.070  0.6214  0.8727  0.8355
11129TIP3   OH254801   1.772   3.326  14.122  0.8904 -0.1099  0.6162
11129TIP3    H154802   1.774   3.422  14.119  3.2236 -0.1244 -0.2502
11129TIP3    H254803   1.788   3.304  14.214 -0.4637  0.2914  0.9731
11130TIP3   OH254804   2.956   4.285  13.637  0.0099 -0.2334 -0.4515
11130TIP3    H154805   3.045   4.269  13.671 -0.6463 -0.1002  1.4585
11130TIP3    H254806   2.901   4.221  13.681 -1.0833  0.7034 -0.3911
11131TIP3   OH254807   2.039   0.756   3.383  0.4159  0.4402 -0.2864
11131TIP3    H154808   2.015   0.797   3.300 -0.4831  0.2550 -0.1328
11131TIP3    H254809   2.087   0.824   3.430  2.7049 -0.0674 -1.7148
11132TIP3   OH254810   4.655   4.403  11.633 -0.0211  0.2323 -0.6012
11132TIP3    H154811   4.661   4.308  11.619  0.1097  0.2114 -0.4027
11132TIP3    H254812   4.606   4.435  11.557 -1.0724 -0.1429 -0.1149
11133TIP3   OH254813   0.990   6.196  16.386  0.5420  0.5765 -0.1542
11133TIP3    H154814   1.068   6.150  16.418  0.6374 -0.1264 -1.3232
11133TIP3    H254815   0.926   6.185  16.456  0.5924 -1.2914 -0.3316
11134TIP3   OH254816   4.888   4.060   5.993  0.6098 -0.4712  0.0337
11134TIP3    H154817   4.824   4.083   6.060  1.2492 -0.1510  0.5476
11134TIP3    H254818   4.850   3.984   5.949  0.2614 -0.8108  0.8837
11135TIP3   OH254819   1.679   3.754  13.516 -0.5337 -0.3800  0.3969
11135TIP3    H154820   1.740   3.719  13.450 -0.1433 -1.2437  1.1864
11135TIP3    H254821   1.716   3.839  13.539 -1.7453  0.8540 -1.8901
11136TIP3   OH254822   0.679   4.907   5.183 -0.2295  0.2402 -0.0355
11136TIP3    H154823   0.709   4.823   5.147  1.9517  0.8247  0.2479
11136TIP3    H254824   0.675   4.892   5.277  0.7601  0.5911  0.0754
11137TIP3   OH254825   6.045   4.755  17.066 -0.2230 -0.3081 -0.3172
11137TIP3    H154826   5.967   4.810  17.069  0.4545  0.7410 -1.1642
11137TIP3    H254827   6.013   4.667  17.082 -1.7262 -0.0421 -1.6409
11138TIP3   OH254828   5.310   0.928  13.444  0.1517 -0.1890 -0.1287
11138TIP3    H154829   5.376   0.942  13.376  0.0613 -1.7917 -0.5836
11138TIP3    H254830   5.360   0.916  13.524  0.2698  1.3864  0.0726
11139TIP3   OH254831   1.683   5.523  16.958  0.1578 -0.3017  0.0041
11139TIP3    H154832   1.755   5.570  16.915  0.5637  0.6514  1.6526
11139TIP3    H254833   1.652   5.583  17.026  0.2590 -2.1432  1.7735
11140TIP3   OH254834   3.752   3.917   4.907 -0.1996 -0.0414 -0.5323
11140TIP3    H154835   3.839   3.885   4.934  0.1601  1.1402 -0.2141
11140TIP3    H254836   3.700   3.913   4.987 -0.6085 -1.2489 -0.8433
11141TIP3   OH254837   5.300   1.232   5.111  0.1741  0.3939  0.4943
11141TIP3    H154838   5.305   1.150   5.063 -0.3131  0.8319 -0.3291
11141TIP3    H254839   5.232   1.282   5.066  0.8702  1.4795  0.6147
11142TIP3   OH254840   4.521   2.435  11.668 -0.5107  0.2944  0.1741
11142TIP3    H154841   4.479   2.357  11.633  0.6892 -1.3928  2.2379
11142TIP3    H254842   4.605   2.440  11.622 -0.9262  0.8559 -0.5314
11143TIP3   OH254843   3.593   5.894   1.945  0.2259  0.2265  0.1925
11143TIP3    H154844   3.609   5.973   1.894  0.3425 -0.3841 -0.7472
11143TIP3    H254845   3.668   5.837   1.927  0.1121 -0.1313  0.7966
11144TIP3   OH254846   2.460   2.436  16.152 -0.1647  0.2939  0.2087
11144TIP3    H154847   2.398   2.385  16.100  1.2431 -1.6333  0.3068
11144TIP3    H254848   2.483   2.380  16.225  2.3722  0.5166 -0.3192
11145TIP3   OH254849   1.064   2.057  14.377  0.1932  0.2706  0.2863
11145TIP3    H154850   1.085   1.965  14.361  2.2402  0.7796 -0.3352
11145TIP3    H254851   0.998   2.078  14.312  2.0802  0.0280 -1.8409
11146TIP3   OH254852   2.819   1.774  13.743  0.9535 -0.2481  0.1599
11146TIP3    H154853   2.857   1.759  13.656  1.3689  1.8715 -0.0881
11146TIP3    H254854   2.728   1.797  13.725  1.0320  0.1611  0.2673
11147TIP3   OH254855   3.524   2.642  11.934 -0.1522 -0.1737 -0.3167
11147TIP3    H154856   3.575   2.699  11.992  0.2579 -1.3897  0.5533
11147TIP3    H254857   3.434   2.669  11.948  0.1735  1.7579 -1.5959
11148TIP3   OH254858   4.519   5.441  16.526 -0.4956 -0.3691 -0.4814
11148TIP3    H154859   4.537   5.379  16.597 -0.1937 -0.9760 -1.0783
11148TIP3    H254860   4.467   5.510  16.567  1.6574  0.5339  0.8847
11149TIP3   OH254861   4.797   3.989  14.063 -0.8593  0.1802 -0.3486
11149TIP3    H154862   4.745   4.029  13.995  0.6367  0.0100 -1.6454
11149TIP3    H254863   4.817   4.060  14.124 -1.1814  0.6049 -0.7353
11150TIP3   OH254864   4.932   0.253   0.878 -0.5561 -0.3848  0.1370
11150TIP3    H154865   4.877   0.331   0.882  0.7746  0.5581  2.6157
11150TIP3    H254866   4.929   0.217   0.967  1.0738 -1.5388 -0.2223
11151TIP3   OH254867   0.243   3.916  12.062  0.1772 -0.1177 -0.7908
11151TIP3    H154868   0.307   3.979  12.096 -1.0430  0.2663  0.9261
11151TIP3    H254869   0.294   3.839  12.040  1.1862 -0.0373  1.1147
11152TIP3   OH254870   2.923   5.394  13.722  0.6168  0.3997 -0.1342
11152TIP3    H154871   2.985   5.353  13.662 -1.4430 -0.9742 -1.4478
11152TIP3    H254872   2.924   5.338  13.800  1.7071  0.9757  0.3016
11153TIP3   OH254873   6.710   5.659   1.127 -0.3891 -0.3489  0.1150
11153TIP3    H154874   6.772   5.668   1.199 -0.6857  2.9342  0.1403
11153TIP3    H254875   6.763   5.627   1.054  1.2776  1.6170  0.3479
11154TIP3   OH254876   6.564   4.872  11.277  0.3201  0.4421  0.2512
11154TIP3    H154877   6.627   4.903  11.342 -1.0628 -0.0134  1.8920
11154TIP3    H254878   6.602   4.792  11.242  1.8641  1.5649 -0.7841
11155TIP3   OH254879   2.153   3.544   4.708  0.1088  0.3169  0.3119
11155TIP3    H154880   2.212   3.608   4.669  1.6918 -1.1771  0.1593
11155TIP3    H254881   2.065   3.575   4.684  0.8443  2.0224 -0.3303
11156TIP3   OH254882   6.549   1.244  15.662 -0.5635  0.0726  0.7056
11156TIP3    H154883   6.644   1.253  15.655 -0.6236  0.8253  0.7455
11156TIP3    H254884   6.532   1.245  15.756 -0.5647 -0.7176  0.7242
11157TIP3   OH254885   3.958   1.296  12.606  0.1995  0.3787 -0.5195
11157TIP3    H154886   3.975   1.379  12.560 -0.1814 -0.6000 -2.5504
11157TIP3    H254887   3.889   1.255  12.555 -0.9550 -0.3831  1.5512
11158TIP3   OH254888   4.679   1.693  12.956  0.2472 -0.8248 -0.6956
11158TIP3    H154889   4.610   1.629  12.939 -0.5627  0.4665 -2.6831
11158TIP3    H254890   4.697   1.685  13.049 -0.2827 -3.4533 -0.7501
11159TIP3   OH254891   2.505   3.874   1.354  0.1711  0.6593 -0.0732
11159TIP3    H154892   2.491   3.960   1.394 -1.9436  1.2357 -1.8827
11159TIP3    H254893   2.564   3.890   1.281  0.4420  0.3986  0.0826
11160TIP3   OH254894   2.351   0.495   3.421 -0.3324 -0.4115  0.1721
11160TIP3    H154895   2.347   0.524   3.329  0.5024 -0.1086  0.2262
11160TIP3    H254896   2.360   0.400   3.416 -1.1458 -0.4822 -0.0417
11161TIP3   OH254897   5.612   3.386  16.838 -0.0316 -0.0443  0.1118
11161TIP3    H154898   5.659   3.357  16.760  0.6275 -1.2070  0.9216
11161TIP3    H254899   5.630   3.480  16.843  2.8204 -0.5541  0.7627
11162TIP3   OH254900   2.205   0.098  11.315  0.0668  0.2768  0.6873
11162TIP3    H154901   2.268   0.077  11.246 -0.6459  2.1547 -0.6152
11162TIP3    H254902   2.121   0.104  11.270 -0.6234  0.4240  1.9376
11163TIP3   OH254903   5.353   5.439  13.962  0.4380 -0.0602 -0.0938
11163TIP3    H154904   5.438   5.454  13.921  0.8619 -0.3222  0.6720
11163TIP3    H254905   5.337   5.518  14.013  0.4178 -0.1815  0.0882
11164TIP3   OH254906   5.520   1.272  17.111  0.9983 -0.0174 -0.8337
11164TIP3    H154907   5.608   1.241  17.091  0.4842 -1.3292 -1.1900
11164TIP3    H254908   5.466   1.193  17.111  0.1393  0.4928  1.2157
11165TIP3   OH254909   4.752   0.665  11.916 -0.1454  0.5128 -0.4427
11165TIP3    H154910   4.711   0.601  11.858 -0.3687 -1.0901  1.4037
11165TIP3    H254911   4.779   0.736  11.858 -2.0689 -0.1337 -2.2369
11166TIP3   OH254912   3.840   1.830  11.815  0.4683 -0.4132 -0.2584
11166TIP3    H154913   3.848   1.811  11.721 -0.3653  0.6214 -0.5549
11166TIP3    H254914   3.804   1.749  11.853 -0.5499 -0.3650 -1.0708
11167TIP3   OH254915   6.445   0.603  16.145 -0.6565  0.3925  0.2929
11167TIP3    H154916   6.373   0.648  16.189 -0.4675 -0.8738  1.9737
11167TIP3    H254917   6.481   0.543  16.211  2.0401  1.0673 -0.4271
11168TIP3   OH254918   4.722   3.142  11.338  0.0209  0.1325 -0.2797
11168TIP3    H154919   4.691   3.057  11.369  1.0771 -0.1059  0.1589
11168TIP3    H254920   4.700   3.143  11.245 -0.7647 -0.2608 -0.1078
11169TIP3   OH254921   3.780   3.061  11.885  0.1683 -0.9015 -0.4372
11169TIP3    H154922   3.816   2.990  11.831 -1.4941  0.4816 -3.5939
11169TIP3    H254923   3.852   3.124  11.891  1.1259 -2.0511  1.0522
11170TIP3   OH254924   3.503   5.607  15.694 -0.4413  0.6924 -0.3088
11170TIP3    H154925   3.558   5.604  15.615 -0.9255 -0.4774 -0.6189
11170TIP3    H254926   3.444   5.532  15.686 -2.1582  1.9511 -0.0119
11171TIP3   OH254927   0.921   0.202   4.498  0.1775  0.4992  0.3809
11171TIP3    H154928   0.840   0.151   4.497  0.8745 -0.8143  2.7513
11171TIP3    H254929   0.986   0.146   4.455  0.4428  0.3648  0.9543
11172TIP3   OH254930   1.361   2.054  15.539 -0.8594  0.4402 -0.1434
11172TIP3    H154931   1.332   2.033  15.628 -1.0151  1.0866 -0.0368
11172TIP3    H254932   1.308   2.130  15.513 -0.5399  0.5029 -0.6377
11173TIP3   OH254933   2.541   3.991   0.806  0.4089  0.3212 -0.4346
11173TIP3    H154934   2.635   4.002   0.794  0.2694  0.9659 -0.9791
11173TIP3    H254935   2.531   3.969   0.899  1.3200 -2.4888 -0.8901
11174TIP3   OH254936   5.907   0.513  15.743  0.2566  0.3007  1.0569
11174TIP3    H154937   5.884   0.421  15.730 -2.5501  0.8845  1.2617
11174TIP3    H254938   6.000   0.518  15.719 -0.1130 -2.0767 -1.4038
11175TIP3   OH254939   4.257   6.559   5.026  0.3900  1.2267 -0.0025
11175TIP3    H154940   4.307   6.516   5.095 -0.1298  1.8725  0.7885
11175TIP3    H254941   4.322   6.581   4.959  0.6601 -0.8689 -0.5085
11176TIP3   OH254942   5.086   4.073   1.233  0.2111  0.3807  0.4801
11176TIP3    H154943   5.004   4.076   1.184 -0.7746 -0.2606  2.0478
11176TIP3    H254944   5.114   4.165   1.238 -0.9373  0.7297  0.8054
11177TIP3   OH254945   3.360   6.258   3.279  0.1510 -0.3110  0.6303
11177TIP3    H154946   3.453   6.279   3.268 -0.2750  0.5340 -2.1795
11177TIP3    H254947   3.344   6.186   3.218 -1.0110 -0.5264  1.1686
11178TIP3   OH254948   1.348   3.935   5.518 -0.2301  0.3549  0.6228
11178TIP3    H154949   1.345   3.843   5.544  2.6955 -0.0333 -0.0233
11178TIP3    H254950   1.414   3.974   5.575  2.9252  0.5573 -2.7486
11179TIP3   OH254951   0.968   1.599   1.182  0.0730  0.2875 -0.7148
11179TIP3    H154952   0.911   1.631   1.112 -1.7219  0.1902  0.6246
11179TIP3    H254953   0.923   1.522   1.215  2.1211 -1.1298 -1.0006
11180TIP3   OH254954   4.334   2.194  11.755 -0.4047 -0.0921 -0.8065
11180TIP3    H154955   4.388   2.183  11.676  2.1240 -0.3286  0.8406
11180TIP3    H254956   4.275   2.119  11.754  1.3497 -1.5115 -1.1698
11181TIP3   OH254957   1.984   0.760   5.642 -0.7380 -0.1393  0.2377
11181TIP3    H154958   1.959   0.712   5.563  1.3110  0.0158 -0.5652
11181TIP3    H254959   1.996   0.692   5.709 -0.8403 -0.4412 -0.0486
11182TIP3   OH254960   4.323   5.605   4.700 -0.1347 -0.8249  0.6280
11182TIP3    H154961   4.291   5.667   4.635 -0.7239 -1.7603 -0.0052
11182TIP3    H254962   4.307   5.519   4.661 -0.6600 -1.4228  2.0685
11183TIP3   OH254963   0.450   5.721  14.105  0.1121  0.5388  0.3515
11183TIP3    H154964   0.402   5.737  14.024  0.6606 -0.1541 -0.1095
11183TIP3    H254965   0.523   5.783  14.102  0.6525 -0.1174 -0.1183
11184TIP3   OH254966   2.269   2.610  12.223  0.3053 -0.3059 -0.0788
11184TIP3    H154967   2.175   2.598  12.219  0.3575 -1.0525  0.6588
11184TIP3    H254968   2.305   2.522  12.235  0.9725  0.1422  1.4355
11185TIP3   OH254969   1.596   1.316   2.623  0.0297  0.2715 -0.1850
11185TIP3    H154970   1.542   1.302   2.700 -0.6772  1.7111 -0.3848
11185TIP3    H254971   1.534   1.312   2.549  0.7496 -1.4770 -0.7483
11186TIP3   OH254972   2.079   4.627   4.241  0.1866  0.1934  0.0438
11186TIP3    H154973   2.024   4.665   4.172 -0.8680  0.2754  0.9068
11186TIP3    H254974   2.093   4.698   4.303  0.1803 -0.1792  0.4820
11187TIP3   OH254975   6.726   0.523   4.348 -0.2066 -0.2179  0.0629
11187TIP3    H154976   6.662   0.594   4.355 -0.9829 -0.8687 -0.1927
11187TIP3    H254977   6.796   0.548   4.408 -2.6126 -1.4575  3.8055
11188TIP3   OH254978   5.454   6.134   1.219  0.3031  0.3436  0.1068
11188TIP3    H154979   5.467   6.218   1.263  3.3984  0.0528 -0.0296
11188TIP3    H254980   5.422   6.076   1.288  2.3270  0.6282  1.3870
11189TIP3   OH254981   3.813   1.020   3.912  0.3799  0.4138  0.3128
11189TIP3    H154982   3.864   1.030   3.832  0.0587 -0.9737 -0.1033
11189TIP3    H254983   3.731   1.064   3.895 -0.7099 -1.9799 -1.1513
11190TIP3   OH254984   6.019   4.730  12.099 -0.0736  0.0933 -0.3202
11190TIP3    H154985   5.959   4.679  12.045 -0.0657 -0.6302  0.3419
11190TIP3    H254986   6.106   4.697  12.077  0.0795  0.9501 -1.0736
11191TIP3   OH254987   5.601   0.772   2.727 -0.1968 -0.4932 -0.1010
11191TIP3    H154988   5.549   0.732   2.657  0.1439 -0.9059 -0.1224
11191TIP3    H254989   5.684   0.724   2.726  0.4228  0.5501 -0.4575
11192TIP3   OH254990   0.098   2.455   4.786 -0.5490  0.1666 -0.1960
11192TIP3    H154991   0.154   2.513   4.838 -0.7950  0.4850 -0.2884
11192TIP3    H254992   0.120   2.367   4.817  0.2410  0.2616 -0.4569
11193TIP3   OH254993   4.931   4.938   0.898 -0.5706  0.6162  0.6035
11193TIP3    H154994   4.981   4.988   0.963 -0.4452  2.2276 -0.6594
11193TIP3    H254995   4.992   4.872   0.866 -0.4113  0.2593  1.6097
11194TIP3   OH254996   6.730   4.887  15.225 -0.2710 -0.3896  0.0361
11194TIP3    H154997   6.706   4.813  15.169 -0.0994  0.3774 -1.0720
11194TIP3    H254998   6.826   4.889  15.222 -0.2919  0.3141 -0.5466
11195TIP3   OH254999   3.835   5.276  11.615  0.3778 -0.2438  0.0679
11195TIP3    H155000   3.816   5.218  11.541  1.4905  0.0665 -0.4743
11195TIP3    H255001   3.930   5.278  11.621  0.3844  1.6439 -0.0357
11196TIP3   OH255002   6.264   1.012   4.405 -0.3933  0.0966 -0.1952
11196TIP3    H155003   6.222   1.088   4.447 -0.0790  1.1264 -1.6736
11196TIP3    H255004   6.195   0.946   4.402 -1.0785  0.7881 -0.0820
11197TIP3   OH255005   4.505   5.570  13.129  0.0218  0.5967  0.3105
11197TIP3    H155006   4.443   5.534  13.065  0.5482 -0.3453  0.3216
11197TIP3    H255007   4.455   5.576  13.210 -0.2632  0.5436  0.1417
11198TIP3   OH255008   2.489   0.791   0.851 -0.2213 -0.5032 -0.1420
11198TIP3    H155009   2.423   0.856   0.878  1.3774  1.3457 -0.4524
11198TIP3    H255010   2.494   0.730   0.925 -0.1050  1.1152  1.2670
11199TIP3   OH255011   6.320   3.094  13.070 -0.3587  0.2402  0.1971
11199TIP3    H155012   6.246   3.141  13.107  0.4290  0.1401  2.0307
11199TIP3    H255013   6.383   3.163  13.047  0.2519  0.2151  1.6505
11200TIP3   OH255014   0.660   4.417   2.917  0.0970  0.2034  0.7087
11200TIP3    H155015   0.670   4.391   3.009  3.1116 -2.9997 -0.2965
11200TIP3    H255016   0.606   4.348   2.879 -0.0923  0.8303 -0.1677
11201TIP3   OH255017   0.285   5.864  16.514 -0.3188 -0.1131 -0.1995
11201TIP3    H155018   0.322   5.851  16.602  0.4727  1.3048 -0.2905
11201TIP3    H255019   0.289   5.778  16.473 -0.4248 -0.7329  1.0551
11202TIP3   OH255020   1.352   0.461   2.945  0.0540  0.4645  0.3960
11202TIP3    H155021   1.362   0.473   2.850  0.0359  1.4317  0.5037
11202TIP3    H255022   1.439   0.481   2.980 -0.4922  2.4228  0.7649
11203TIP3   OH255023   1.720   5.906  10.714 -0.9170 -0.2500 -0.1019
11203TIP3    H155024   1.734   5.850  10.790  0.3617 -0.3933 -0.4132
11203TIP3    H255025   1.699   5.845  10.643 -0.4746 -0.2674 -0.2238
11204TIP3   OH255026   5.120   2.953   4.959 -0.7850  0.0146  0.0668
11204TIP3    H155027   5.188   2.933   5.024 -0.6516  0.6961  0.1486
11204TIP3    H255028   5.138   3.043   4.933 -0.9095 -0.2163 -0.8434
11205TIP3   OH255029   4.826   4.015   3.454  0.3111 -0.4396  0.7759
11205TIP3    H155030   4.862   3.988   3.538 -0.4744 -0.6202  1.0635
11205TIP3    H255031   4.854   3.947   3.392 -0.6121 -1.2868  1.2545
11206TIP3   OH255032   6.349   2.888  14.244  0.4745 -0.8005 -0.4439
11206TIP3    H155033   6.398   2.970  14.246  1.5685 -1.4289 -0.7928
11206TIP3    H255034   6.359   2.852  14.332 -0.2514 -0.4342 -0.2026
11207TIP3   OH255035   4.888   1.184  15.692 -0.5056  0.1272 -0.6875
11207TIP3    H155036   4.860   1.214  15.779 -1.2691  0.3469 -0.9985
11207TIP3    H255037   4.959   1.243  15.668 -1.5807  1.3323 -1.0209
11208TIP3   OH255038   3.476   5.200   2.969 -0.8237 -0.1060  0.2607
11208TIP3    H155039   3.522   5.141   3.028 -1.4576 -0.7066  0.1679
11208TIP3    H255040   3.458   5.147   2.891  0.1449  0.7091 -0.5651
11209TIP3   OH255041   5.625   1.528  11.652 -0.3392 -0.7889 -0.4036
11209TIP3    H155042   5.569   1.547  11.577  0.8209 -0.3823 -1.2040
11209TIP3    H255043   5.601   1.594  11.718 -1.4985 -1.2696 -0.3224
11210TIP3   OH255044   3.405   6.202   0.984  0.7227 -0.1587 -0.3922
11210TIP3    H155045   3.500   6.189   0.987  0.7574  0.2343  0.3882
11210TIP3    H255046   3.371   6.142   1.050  0.5995  1.0936  0.7217
11211TIP3   OH255047   6.370   2.508  11.718 -0.1489  0.1618 -0.2718
11211TIP3    H155048   6.292   2.564  11.712  0.6489  1.3779  0.3348
11211TIP3    H255049   6.443   2.569  11.715  0.7424 -0.7982  1.0210
11212TIP3   OH255050   2.117   0.551   6.220  0.0677  0.3690 -0.2083
11212TIP3    H155051   2.171   0.517   6.291  0.1962 -0.3837 -0.6574
11212TIP3    H255052   2.139   0.644   6.215  0.8641  0.1958  0.0163
11213TIP3   OH255053   2.780   0.483   1.500  0.1924  0.2614 -0.2474
11213TIP3    H155054   2.726   0.413   1.463  0.6419 -0.3383  0.2164
11213TIP3    H255055   2.719   0.535   1.552 -0.6092  1.5488 -2.3462
11214TIP3   OH255056   5.077   4.583  16.062  0.4737 -0.0897 -0.0910
11214TIP3    H155057   5.055   4.505  16.113  2.0794  0.5275  1.6663
11214TIP3    H255058   5.072   4.655  16.125 -0.9669  1.2821 -1.6594
11215TIP3   OH255059   2.769   4.214  15.927 -0.3901 -0.2115 -0.0867
11215TIP3    H155060   2.819   4.288  15.892  0.9589 -1.3249 -0.6247
11215TIP3    H255061   2.726   4.249  16.005  1.8521  0.6406  0.8655
11216TIP3   OH255062   4.382   1.923   4.191 -0.4982 -0.5685 -0.3399
11216TIP3    H155063   4.334   1.957   4.267  0.6551 -1.3788  0.7996
11216TIP3    H255064   4.388   1.997   4.131 -1.8069 -0.0295  0.1620
11217TIP3   OH255065   0.851   5.501  15.399  0.0447  0.2807 -0.3890
11217TIP3    H155066   0.776   5.475  15.345  1.2181 -0.3824 -1.7489
11217TIP3    H255067   0.845   5.596  15.404  0.5380  0.4844 -2.6981
11218TIP3   OH255068   5.322   3.605   1.107 -0.0152 -0.1287  0.1546
11218TIP3    H155069   5.302   3.689   1.066 -0.9423  0.1120  1.0725
11218TIP3    H255070   5.256   3.545   1.072 -1.8743  0.4344  2.4002
11219TIP3   OH255071   2.505   6.641   4.937 -0.2277 -0.2009  0.3755
11219TIP3    H155072   2.482   6.727   4.902 -1.1685 -0.0737  1.2873
11219TIP3    H255073   2.467   6.639   5.024 -0.4208 -1.6379  0.2752
11220TIP3   OH255074   5.664   3.762  11.268  0.1963  0.2389  0.0068
11220TIP3    H155075   5.650   3.667  11.267 -0.1319  0.2768 -1.0337
11220TIP3    H255076   5.577   3.798  11.250  0.6266  0.6664 -1.3000
11221TIP3   OH255077   3.825   2.030  14.220  0.1871  0.0410  0.4743
11221TIP3    H155078   3.771   2.046  14.297 -3.5779 -0.2157 -1.8394
11221TIP3    H255079   3.821   1.935  14.207  0.4571  0.1157 -0.2183
11222TIP3   OH255080   5.535   4.069  11.713 -0.1025 -0.4779  0.2389
11222TIP3    H155081   5.616   4.104  11.748  0.2502 -0.0446 -0.9599
11222TIP3    H255082   5.505   4.135  11.651 -0.5111 -1.3655 -0.5329
11223TIP3   OH255083   4.676   3.080   4.167  0.4685 -0.3129  0.0017
11223TIP3    H155084   4.713   3.134   4.096  1.1434 -1.4454 -0.5345
11223TIP3    H255085   4.749   3.023   4.194  0.2285  0.1034  1.6313
11224TIP3   OH255086   0.992   3.216   5.891  0.2681 -0.1809 -0.2027
11224TIP3    H155087   0.965   3.141   5.945  1.3944  0.1864  0.9279
11224TIP3    H255088   0.978   3.292   5.948  0.6236  0.3037 -0.7532
11225TIP3   OH255089   3.326   3.125  12.314 -0.6282  0.3347  0.2402
11225TIP3    H155090   3.300   3.193  12.252  0.6096  1.7056  1.1389
11225TIP3    H255091   3.422   3.129  12.315 -0.3597 -2.7515 -1.0588
11226TIP3   OH255092   2.967   1.673   3.168 -0.5309 -0.1878 -0.1060
11226TIP3    H155093   3.019   1.596   3.190  1.6275  1.3830  0.7189
11226TIP3    H255094   2.980   1.684   3.073  2.6294  1.3725  0.3693
11227TIP3   OH255095   0.569   2.281  16.828  0.4914  0.2525  0.0290
11227TIP3    H155096   0.551   2.310  16.918  0.8125  0.2442  0.0983
11227TIP3    H255097   0.618   2.354  16.790  1.3477 -0.2119  0.2187
11228TIP3   OH255098   2.892   4.365  12.541  0.4499  0.0290 -0.2153
11228TIP3    H155099   2.811   4.414  12.550  0.3322 -0.2436  0.2636
11228TIP3    H255100   2.951   4.423  12.493  0.4273  0.7801  0.6455
11229TIP3   OH255101   2.475   4.739   2.098  0.5721 -0.2796 -0.0990
11229TIP3    H155102   2.477   4.739   2.193  1.0682 -0.9215 -0.1026
11229TIP3    H255103   2.385   4.764   2.076  0.5441  0.1952  0.5229
11230TIP3   OH255104   3.726   2.933  16.070 -0.1233 -0.0846  0.2271
11230TIP3    H155105   3.742   2.980  16.152 -0.5259  3.0086 -1.3271
11230TIP3    H255106   3.812   2.928  16.028  0.0159 -1.3136  0.6289
11231TIP3   OH255107   2.796   6.675   3.428  0.3017 -0.5188  0.0098
11231TIP3    H155108   2.723   6.697   3.371  0.8278 -0.5269 -0.6848
11231TIP3    H255109   2.781   6.725   3.508  0.3017  0.6225 -0.6838
11232TIP3   OH255110   2.421   1.908  13.391 -0.1709 -0.0611  0.4017
11232TIP3    H155111   2.425   1.937  13.300  1.6583 -0.3078  0.3733
11232TIP3    H255112   2.327   1.904  13.410 -0.6329 -0.7466 -1.7062
11233TIP3   OH255113   4.313   2.673  13.852  0.4501  0.2996 -0.3978
11233TIP3    H155114   4.308   2.759  13.892 -2.6597  0.5910 -1.1627
11233TIP3    H255115   4.371   2.685  13.776  0.7980  1.4560  0.0292
11234TIP3   OH255116   4.909   6.156   1.536 -0.5110  0.0339  0.0722
11234TIP3    H155117   4.872   6.241   1.559 -0.3318  0.1715 -0.1418
11234TIP3    H255118   4.897   6.150   1.441 -1.1524 -0.4853  0.1816
11235TIP3   OH255119   5.126   2.826   3.706  0.1054 -0.7539 -0.5794
11235TIP3    H155120   5.045   2.784   3.736 -0.3286 -0.6258 -1.5484
11235TIP3    H255121   5.150   2.778   3.627  1.3733 -1.2499  0.0779
11236TIP3   OH255122   5.649   5.076  15.694 -0.2375  0.1502 -0.0948
11236TIP3    H155123   5.606   5.090  15.609  0.5406  0.1480 -0.5050
11236TIP3    H255124   5.584   5.101  15.759 -1.6377 -1.9326 -0.6053
11237TIP3   OH255125   6.217   4.727  14.517  0.1426  0.2917 -0.3253
11237TIP3    H155126   6.277   4.654  14.500 -1.0092 -1.1325  1.3105
11237TIP3    H255127   6.265   4.783  14.579  0.1534 -0.3452  0.2527
11238TIP3   OH255128   0.160   3.179  11.913 -0.2344  0.0079 -0.1245
11238TIP3    H155129   0.212   3.258  11.901 -1.0600  0.4851 -0.6306
11238TIP3    H255130   0.070   3.209  11.914 -0.5360 -0.8716  0.2116
11239TIP3   OH255131   1.371   4.445   6.618 -0.5326  0.4497 -0.2182
11239TIP3    H155132   1.374   4.424   6.525 -1.1666  0.6762 -0.2898
11239TIP3    H255133   1.463   4.458   6.642 -0.4377  1.4556 -1.0496
11240TIP3   OH255134   1.224   5.054   2.448  0.0941  0.3337  0.1209
11240TIP3    H155135   1.290   5.109   2.490  0.4246  0.4932 -0.5852
11240TIP3    H255136   1.251   5.052   2.356 -0.0514 -0.8150  0.0973
11241TIP3   OH255137   4.280   6.578  16.761  0.0388  0.2274  0.0560
11241TIP3    H155138   4.281   6.514  16.833 -1.9325 -1.5453 -1.3754
11241TIP3    H255139   4.306   6.527  16.684 -1.4171  1.1622 -1.0995
11242TIP3   OH255140   4.789   5.512  16.549 -0.1888  0.9936 -0.0492
11242TIP3    H155141   4.801   5.535  16.641 -0.9502  1.4137 -0.0472
11242TIP3    H255142   4.694   5.505  16.538 -0.0621 -1.0110 -0.3370
11243TIP3   OH255143   1.308   1.818  13.820  0.2263 -0.0388 -0.4143
11243TIP3    H155144   1.216   1.829  13.793  0.5828  0.9711 -1.2921
11243TIP3    H255145   1.309   1.847  13.911 -0.3167 -0.0305 -0.4039
11244TIP3   OH255146   4.213   1.459  13.258  0.3700 -0.1986  0.4783
11244TIP3    H155147   4.222   1.397  13.186 -0.3792  0.1218  0.1061
11244TIP3    H255148   4.228   1.406  13.337 -1.9135 -1.2561  0.2799
11245TIP3   OH255149   1.036   4.947   2.652  0.1561 -0.4448 -0.2412
11245TIP3    H155150   1.005   4.861   2.622 -1.0565  0.1782 -0.8072
11245TIP3    H255151   1.084   4.983   2.577  1.8372 -1.1560  0.4363
11246TIP3   OH255152   0.559   1.122  17.071  0.0180 -0.2903  0.5395
11246TIP3    H155153   0.561   1.041  17.020  0.6084  0.5023 -0.7573
11246TIP3    H255154   0.587   1.096  17.159 -0.8630 -1.6662  0.4463
11247TIP3   OH255155   4.129   2.190   3.541 -0.2128 -0.0134  0.9330
11247TIP3    H155156   4.053   2.245   3.526 -0.8469 -1.0192  0.3344
11247TIP3    H255157   4.103   2.103   3.510  1.6792 -0.0733 -0.7711
11248TIP3   OH255158   4.043   5.090  11.062  0.1387  0.0953 -0.1375
11248TIP3    H155159   4.047   5.160  11.126 -0.1930 -1.6381  1.8803
11248TIP3    H255160   3.952   5.062  11.062  0.6195 -1.5765  0.5449
11249TIP3   OH255161   4.476   1.877   6.278 -0.0509 -0.4994  0.0459
11249TIP3    H155162   4.461   1.880   6.372  2.0930 -0.4001  0.4310
11249TIP3    H255163   4.504   1.966   6.255 -2.1090 -0.0610 -1.0289
11250TIP3   OH255164   2.778   3.828  16.645  0.5269  0.2771 -0.0610
11250TIP3    H155165   2.735   3.773  16.580 -0.3992  0.0585  0.7253
11250TIP3    H255166   2.863   3.786  16.659 -0.2196 -1.0781  0.6356
11251TIP3   OH255167   5.849   6.749  16.984  0.4891  0.2918 -0.2376
11251TIP3    H155168   5.875   6.659  16.965 -0.6777  0.6121 -4.4335
11251TIP3    H255169   5.765   6.741  17.030  0.4355 -0.7786 -0.5118
11252TIP3   OH255170   2.110   2.403  16.665  0.1667  0.1511 -0.4203
11252TIP3    H155171   2.180   2.387  16.729 -0.0326  2.3444  0.4430
11252TIP3    H255172   2.037   2.349  16.696  0.6028 -0.0625  0.2753
11253TIP3   OH255173   0.852   6.366   5.140 -0.0407  0.3199  0.0672
11253TIP3    H155174   0.872   6.329   5.054  0.9595  0.7766  0.0933
11253TIP3    H255175   0.927   6.344   5.194 -0.4194  0.5083  0.6825
11254TIP3   OH255176   0.981   0.092  16.181  0.1603 -0.4442  0.1366
11254TIP3    H155177   0.989   0.105  16.275 -0.2224 -3.1815  0.6317
11254TIP3    H255178   0.888   0.073  16.167 -0.5292  3.1903 -1.3908
11255TIP3   OH255179   1.036   3.915  14.450 -0.3742  0.6322  0.1619
11255TIP3    H155180   0.996   3.845  14.502  0.0423 -0.1704 -0.5619
11255TIP3    H255181   1.061   3.981  14.514 -0.6232  0.0395  0.8909
11256TIP3   OH255182   3.683   1.592  14.906 -0.0945 -0.3978  0.1859
11256TIP3    H155183   3.668   1.677  14.946 -1.2380 -0.2328 -0.5520
11256TIP3    H255184   3.773   1.596  14.874  0.3676 -0.0292  1.4662
11257TIP3   OH255185   1.222   5.298  16.591  0.0175 -0.1336 -0.3630
11257TIP3    H155186   1.247   5.222  16.644 -0.0170  0.4903  0.5792
11257TIP3    H255187   1.126   5.294  16.588 -0.0370  0.3471  0.4370
11258TIP3   OH255188   1.920   2.024  12.965 -0.2553  0.1772  0.2789
11258TIP3    H155189   1.869   1.950  12.932 -0.3648 -0.1486  1.1396
11258TIP3    H255190   2.009   2.010  12.932 -0.5172  0.2728 -0.4893
11259TIP3   OH255191   3.720   1.560  12.350 -0.1682 -0.6974  0.4173
11259TIP3    H155192   3.743   1.476  12.391 -0.1383  0.5698  3.1983
11259TIP3    H255193   3.790   1.575  12.286  0.5824 -2.1328  0.8596
11260TIP3   OH255194   3.363   4.257   4.771 -0.4719  0.0648 -0.0980
11260TIP3    H155195   3.414   4.292   4.844 -1.8102 -1.2029  1.5110
11260TIP3    H255196   3.419   4.190   4.732  2.0817  3.5655 -3.1455
11261TIP3   OH255197   4.394   1.735   2.281  0.0187 -0.2083  0.0535
11261TIP3    H155198   4.407   1.675   2.354 -2.2153  1.1770  1.7323
11261TIP3    H255199   4.439   1.815   2.309  0.5298 -0.1779 -0.8452
11262TIP3   OH255200   3.797   5.031   2.687  0.1206  0.0390  0.0637
11262TIP3    H155201   3.818   5.006   2.778  0.7305  2.4169  0.6485
11262TIP3    H255202   3.720   5.087   2.695 -0.4014 -0.4973 -1.0216
11263TIP3   OH255203   2.843   5.290   5.602 -0.3217 -0.2362 -0.2340
11263TIP3    H155204   2.764   5.251   5.564  0.6480 -0.5994 -2.0105
11263TIP3    H255205   2.893   5.215   5.636 -0.9086  0.0331  1.3037
11264TIP3   OH255206   1.777   4.735   3.812 -0.0453 -0.4553  0.1302
11264TIP3    H155207   1.745   4.804   3.754 -0.8598 -0.2635  0.7875
11264TIP3    H255208   1.839   4.685   3.758 -1.5561 -0.9247 -1.2360
11265TIP3   OH255209   0.416   0.621   0.699  0.0713 -0.5321  0.2462
11265TIP3    H155210   0.340   0.673   0.724  0.1550 -0.3005  0.0262
11265TIP3    H255211   0.412   0.544   0.755  0.0985 -0.1568  0.7746
11266TIP3   OH255212   5.968   3.889  14.283 -0.0009  0.0010 -0.4613
11266TIP3    H155213   5.935   3.808  14.322 -0.9471 -0.0572 -1.3240
11266TIP3    H255214   6.060   3.870  14.263 -0.4880 -1.2889 -1.6943
11267TIP3   OH255215   3.615   3.304   6.146 -0.0180  0.1507  0.3964
11267TIP3    H155216   3.630   3.269   6.234  0.4680 -0.2675  0.1529
11267TIP3    H255217   3.662   3.244   6.088 -1.5901 -0.4509 -0.2933
11268TIP3   OH255218   2.063   5.875  15.934  0.1825  0.3942  0.4597
11268TIP3    H155219   2.121   5.809  15.896 -0.7433 -0.3917  0.3772
11268TIP3    H255220   2.004   5.826  15.991 -2.9305  0.5183 -2.3420
11269TIP3   OH255221   5.954   4.036  12.719  0.5931 -0.6707 -0.0637
11269TIP3    H155222   5.941   4.126  12.748  0.4588 -1.0133  0.9699
11269TIP3    H255223   5.883   3.987  12.760  0.9739 -1.3353 -0.1796
11270TIP3   OH255224   3.414   6.433  10.601  0.0585  0.5002  0.4541
11270TIP3    H155225   3.372   6.511  10.635 -4.0731 -1.5557  0.6882
11270TIP3    H255226   3.366   6.412  10.521  1.2825 -1.5554  0.1683
11271TIP3   OH255227   3.553   0.039   2.759 -0.6933 -0.0080 -0.5025
11271TIP3    H155228   3.462   0.068   2.756 -0.5821  0.5659  0.8612
11271TIP3    H255229   3.597   0.104   2.814  0.5431 -0.2939 -1.1119
11272TIP3   OH255230   1.850   6.199  13.691  0.2713  0.0015 -0.4284
11272TIP3    H155231   1.916   6.129  13.690 -0.7176 -0.9594  0.1611
11272TIP3    H255232   1.855   6.237  13.603  1.5740 -0.0759 -0.4106
11273TIP3   OH255233   5.965   2.814  13.250  0.2484  0.1154 -0.3192
11273TIP3    H155234   6.004   2.898  13.229  1.5707 -0.5618 -0.6512
11273TIP3    H255235   6.038   2.752  13.248 -0.7556 -1.1007 -0.4126
11274TIP3   OH255236   0.150   5.108  11.304 -0.1260 -0.6669 -0.1425
11274TIP3    H155237   0.227   5.158  11.332  0.7221 -1.9271 -0.1648
11274TIP3    H255238   0.133   5.048  11.376 -1.3491 -0.1498  0.0285
11275TIP3   OH255239   1.031   3.940  11.804  0.2299  0.1133 -0.2023
11275TIP3    H155240   0.960   4.001  11.824  0.2001  0.6674 -1.8820
11275TIP3    H255241   1.067   3.916  11.890 -3.6236 -2.2478  1.0407
11276TIP3   OH255242   3.322   0.535   3.016  0.6259 -0.2099  0.4790
11276TIP3    H155243   3.264   0.523   3.091  0.2571 -2.1606 -0.0547
11276TIP3    H255244   3.269   0.582   2.952  0.6502  0.6734  1.0909
11277TIP3   OH255245   1.564   3.749   5.085 -0.2191  0.1900 -0.6374
11277TIP3    H155246   1.614   3.824   5.115 -1.5180  0.5172  0.8446
11277TIP3    H255247   1.610   3.673   5.121 -0.2431  0.4283 -0.0913
11278TIP3   OH255248   2.591   0.098  11.257 -0.0896 -0.0477 -0.0328
11278TIP3    H155249   2.523   0.145  11.305 -0.6563  0.4185 -1.2584
11278TIP3    H255250   2.671   0.146  11.277 -0.3503  0.2778  0.2556
11279TIP3   OH255251   5.259   2.978  13.575  0.2163  0.3819 -0.6099
11279TIP3    H155252   5.250   2.925  13.654 -0.9264  1.4291  0.0024
11279TIP3    H255253   5.326   2.933  13.523  1.0702 -0.2649  0.9870
11280TIP3   OH255254   2.415   0.910  15.975 -0.4223 -0.5108  0.3860
11280TIP3    H155255   2.455   0.930  15.890  0.6153  1.0170  1.1848
11280TIP3    H255256   2.321   0.907  15.957 -0.2992  0.8537 -0.6341
11281TIP3   OH255257   6.362   3.770  10.728 -0.5796  0.4279  0.2779
11281TIP3    H155258   6.271   3.764  10.756 -0.8399 -1.9197 -0.8077
11281TIP3    H255259   6.357   3.781  10.633  0.2931  2.5503  0.4443
11282TIP3   OH255260   5.632   1.545   1.010 -0.0273 -0.1441  0.2695
11282TIP3    H155261   5.656   1.517   0.922  1.2408 -0.6964  0.7636
11282TIP3    H255262   5.687   1.492   1.068 -0.9870  0.0584  1.4080
11283TIP3   OH255263   2.524   5.106   0.683  0.2267  0.4633  0.0385
11283TIP3    H155264   2.518   5.012   0.669 -0.9291  0.5684 -0.2722
11283TIP3    H255265   2.586   5.137   0.617  0.9425 -0.1293  0.4251
11284TIP3   OH255266   0.568   1.861  17.231  0.5026  0.3214  0.1458
11284TIP3    H155267   0.599   1.804  17.161 -1.2411 -0.1008 -0.3322
11284TIP3    H255268   0.521   1.931  17.186 -1.2502 -0.3350  0.8677
11285TIP3   OH255269   0.613   6.281   5.967 -0.5823  0.2562 -0.2785
11285TIP3    H155270   0.649   6.367   5.988 -1.4512  1.0515 -1.8311
11285TIP3    H255271   0.592   6.241   6.051 -0.1465  1.5512  0.4617
11286TIP3   OH255272   3.494   4.610  12.398  0.0535  0.2748  0.1088
11286TIP3    H155273   3.492   4.536  12.459 -1.8689  0.7549  0.6934
11286TIP3    H255274   3.561   4.669  12.433  0.0494 -0.1744  0.8824
11287TIP3   OH255275   5.056   3.621   0.974  0.1251 -0.5659  0.2568
11287TIP3    H155276   4.964   3.619   0.948  0.1110  0.2533  0.2063
11287TIP3    H255277   5.104   3.596   0.895  0.1289  2.6572 -0.8931
11288TIP3   OH255278   5.234   0.061   3.521  0.1033 -0.0391 -0.1074
11288TIP3    H155279   5.168   0.111   3.570  1.0850  0.4958  0.7155
11288TIP3    H255280   5.187  -0.015   3.487 -0.9924  0.4686  0.2439
11289TIP3   OH255281   6.377   1.119   3.307  0.4003  0.2560 -0.0818
11289TIP3    H155282   6.396   1.213   3.296 -1.0028  0.4897 -0.5922
11289TIP3    H255283   6.354   1.110   3.399 -0.8432  0.6797 -0.3396
11290TIP3   OH255284   0.814   0.311   4.227  0.2172  0.1538 -0.0654
11290TIP3    H155285   0.845   0.371   4.296 -0.2425  1.1788 -0.7300
11290TIP3    H255286   0.718   0.318   4.231  0.1209 -1.2548  0.4576
11291TIP3   OH255287   6.634   2.153  15.898  0.3137  0.4862  0.1944
11291TIP3    H155288   6.650   2.075  15.845 -0.2434  0.0152  0.7017
11291TIP3    H255289   6.540   2.169  15.891  0.1487  0.1609  1.3521
11292TIP3   OH255290   3.274   6.182   5.092 -0.0684  0.3250 -0.1887
11292TIP3    H155291   3.197   6.166   5.038 -0.7669  1.1863  0.5355
11292TIP3    H255292   3.305   6.268   5.065  1.3465 -0.4768 -1.2848
11293TIP3   OH255293   6.252   0.519   2.370  0.3741  0.0769 -0.0560
11293TIP3    H155294   6.334   0.518   2.419 -0.1845  0.4205  0.9139
11293TIP3    H255295   6.203   0.593   2.406  0.1493  0.6669 -1.4959
11294TIP3   OH255296   5.554   5.744  15.623 -0.2665 -0.2539  0.2454
11294TIP3    H155297   5.588   5.732  15.534 -1.0644  0.1351 -0.1265
11294TIP3    H255298   5.544   5.656  15.658 -1.0247 -0.4696 -0.4798
11295TIP3   OH255299   3.181   1.764  13.684 -0.2699  0.2323  0.1802
11295TIP3    H155300   3.092   1.745  13.653 -0.5774 -0.1431  1.2274
11295TIP3    H255301   3.203   1.690  13.741  0.5132  0.5753  0.3339
11296TIP3   OH255302   0.208   1.724   2.677  0.1052 -0.1772  0.2094
11296TIP3    H155303   0.242   1.802   2.635 -0.0493  0.2515  0.8704
11296TIP3    H255304   0.135   1.696   2.622  1.0696 -0.7075 -0.8354
11297TIP3   OH255305   1.969   1.704  13.961 -0.0408  0.5369 -0.0104
11297TIP3    H155306   1.925   1.662  13.887  0.5132 -1.0282  0.5105
11297TIP3    H255307   1.943   1.796  13.955 -1.7334  0.0483 -0.8971
11298TIP3   OH255308   5.825   0.848   0.055  0.3092 -0.2177 -0.1671
11298TIP3    H155309   5.834   0.825  -0.038 -1.0395 -1.1446 -0.0848
11298TIP3    H255310   5.913   0.878   0.080  0.7673 -0.2210 -1.6632
11299TIP3   OH255311   2.244   5.410   4.624 -0.0436 -0.4658  0.6931
11299TIP3    H155312   2.323   5.458   4.601 -0.2809 -0.4200 -0.0528
11299TIP3    H255313   2.275   5.330   4.665  0.4614 -1.4291 -1.4704
11300TIP3   OH255314   1.567   6.464   5.280 -0.0614  0.2687 -0.2395
11300TIP3    H155315   1.492   6.512   5.313 -0.0475  0.3986 -0.3956
11300TIP3    H255316   1.641   6.494   5.333 -0.0929  0.2544 -0.1883
11301TIP3   OH255317   5.779   1.038   5.860  0.2698 -0.2877 -0.1504
11301TIP3    H155318   5.783   1.031   5.765 -1.7205  1.0729 -0.4097
11301TIP3    H255319   5.839   1.109   5.881  0.9859 -0.8309 -0.3394
11302TIP3   OH255320   2.187   2.591  13.599  0.2946 -0.0660 -0.0389
11302TIP3    H155321   2.175   2.537  13.677 -0.7391 -3.1764 -2.1800
11302TIP3    H255322   2.108   2.646  13.596 -1.1773 -2.0877 -0.4167
11303TIP3   OH255323   3.954   0.716  16.924 -0.4178  0.1699 -0.0637
11303TIP3    H155324   4.040   0.683  16.948 -0.3764 -0.9132 -1.5262
11303TIP3    H255325   3.953   0.807  16.953  0.8197 -0.1130  0.9053
11304TIP3   OH255326   2.637   4.318   4.267  0.3943  0.4678 -0.2689
11304TIP3    H155327   2.693   4.241   4.256  0.7729  0.9727 -2.5007
11304TIP3    H255328   2.691   4.379   4.317 -0.1963 -0.9307  2.1966
11305TIP3   OH255329   4.472   5.380  12.696 -0.1244 -0.3141 -0.1997
11305TIP3    H155330   4.434   5.292  12.707  0.1089 -0.2462  1.3221
11305TIP3    H255331   4.397   5.434  12.669 -0.3360 -0.9097 -0.8383
11306TIP3   OH255332   5.014   2.971   6.627 -0.3393  0.2571 -0.3678
11306TIP3    H155333   4.944   2.992   6.689  0.4415  0.8972  0.3134
11306TIP3    H255334   5.030   2.877   6.640 -1.6493 -0.1243 -1.1666
11307TIP3   OH255335   4.173   3.974   6.144 -0.0412 -0.4264 -0.6140
11307TIP3    H155336   4.173   4.039   6.214  1.2543  0.2323 -1.1832
11307TIP3    H255337   4.081   3.966   6.119 -0.7597 -1.7872  2.1181
11308TIP3   OH255338   0.157   5.443   1.185  0.1378  0.6942  0.6448
11308TIP3    H155339   0.080   5.411   1.138  0.1126  0.9737  0.4958
11308TIP3    H255340   0.225   5.451   1.118  0.5370 -0.3108  0.9089
11309TIP3   OH255341   4.058   0.896  15.630  1.0329  0.0428  0.8133
11309TIP3    H155342   3.970   0.932  15.636  1.3048  1.1893 -1.1022
11309TIP3    H255343   4.050   0.806  15.664 -0.6881  0.3691  1.3431
11310TIP3   OH255344   4.005   4.366   2.183  0.0914 -0.1717 -0.0497
11310TIP3    H155345   4.039   4.291   2.232  0.5189 -0.2268 -0.4254
11310TIP3    H255346   4.003   4.438   2.247  0.1421 -0.3753  0.1827
11311TIP3   OH255347   5.358   6.680  14.322  0.3054 -0.1387  0.1222
11311TIP3    H155348   5.311   6.760  14.343  0.3428 -0.3036  0.8750
11311TIP3    H255349   5.323   6.652  14.238 -0.8784 -0.2120  0.6237
11312TIP3   OH255350   2.380   5.526   5.385  0.2800  0.7250 -0.3464
11312TIP3    H155351   2.439   5.547   5.457  2.4811 -1.9824 -1.1830
11312TIP3    H255352   2.418   5.569   5.308 -0.3064  1.0503 -0.4654
11313TIP3   OH255353   6.090   4.031  11.606  0.3435 -0.4726  0.1612
11313TIP3    H155354   6.110   4.003  11.696  1.7811 -0.7927 -0.2459
11313TIP3    H255355   6.051   3.953  11.566 -2.4456  0.3149  1.1153
11314TIP3   OH255356   3.919   5.865   5.838 -0.0980 -0.4494  0.3926
11314TIP3    H155357   3.953   5.776   5.851  0.3654 -0.3588 -0.1341
11314TIP3    H255358   3.852   5.875   5.906 -3.6545 -2.9666 -2.3082
11315TIP3   OH255359   6.712   3.757   4.737  0.0181 -0.4670  0.6084
11315TIP3    H155360   6.641   3.816   4.761 -0.5321 -1.0798  0.5284
11315TIP3    H255361   6.672   3.670   4.738  0.6155 -0.7627 -0.0382
11316TIP3   OH255362   5.652   3.235   1.734  0.4087  0.5580 -0.3249
11316TIP3    H155363   5.742   3.215   1.758  0.2248 -1.8544 -1.3397
11316TIP3    H255364   5.615   3.151   1.707 -1.7272  1.7267 -1.3186
11317TIP3   OH255365   1.055   2.372  14.771  0.6576 -0.0958  0.3477
11317TIP3    H155366   1.062   2.440  14.838  0.4954  1.7778 -1.4178
11317TIP3    H255367   1.145   2.353  14.746  0.6830  0.0518  0.3245
11318TIP3   OH255368   3.752   3.300  13.474  0.5047 -0.0177 -0.1529
11318TIP3    H155369   3.781   3.363  13.409 -1.0908  1.0444  0.0943
11318TIP3    H255370   3.778   3.215  13.439  0.3024  0.5861 -1.8343
11319TIP3   OH255371   4.400   2.447  14.167  0.0821  0.2654  0.2640
11319TIP3    H155372   4.408   2.429  14.261  1.0532 -0.4059  0.0687
11319TIP3    H255373   4.373   2.364  14.129 -1.0885  0.7353  0.0253
11320TIP3   OH255374   5.313   0.857  16.311  0.0016 -0.1696 -0.1588
11320TIP3    H155375   5.394   0.811  16.291  0.0527  0.5276 -1.7093
11320TIP3    H255376   5.335   0.916  16.383  1.4280  1.3829 -1.7780
11321TIP3   OH255377   1.392   2.699  15.855 -0.0766 -0.1133  0.8620
11321TIP3    H155378   1.428   2.613  15.835 -0.5661 -0.0358 -0.3992
11321TIP3    H255379   1.299   2.693  15.833 -0.1317  0.7250  0.8116
11322TIP3   OH255380   2.369   1.288   3.896 -0.0168 -0.0258 -0.1307
11322TIP3    H155381   2.383   1.374   3.857 -0.9469  0.3886  0.4255
11322TIP3    H255382   2.373   1.303   3.990 -0.9623 -0.4367 -0.0108
11323TIP3   OH255383   5.861   1.740  14.223 -0.0959 -0.5384 -0.1540
11323TIP3    H155384   5.837   1.827  14.193  0.4733 -0.3851 -0.1601
11323TIP3    H255385   5.856   1.685  14.145  1.9735 -0.0248 -0.6881
11324TIP3   OH255386   2.072   0.260   1.220  0.2092  0.0877 -0.2090
11324TIP3    H155387   2.154   0.212   1.203  0.2908  0.1232  0.0833
11324TIP3    H255388   2.033   0.216   1.295 -0.1575 -0.0707 -0.4885
11325TIP3   OH255389   2.042   4.870   2.116 -0.0153 -0.1610 -0.6889
11325TIP3    H155390   1.951   4.840   2.116  0.0764 -0.4660 -1.3958
11325TIP3    H255391   2.076   4.842   2.201 -0.5115 -0.2580 -0.5152
11326TIP3   OH255392   3.023   4.327  14.173  0.2296  0.7591  0.0959
11326TIP3    H155393   3.060   4.402  14.126 -1.2931  0.6923 -1.2812
11326TIP3    H255394   2.933   4.352  14.191  0.5446  0.4543  2.3713
11327TIP3   OH255395   5.682   2.340  14.316  0.0112 -0.1532 -0.2579
11327TIP3    H155396   5.714   2.329  14.406  1.0824 -1.3733 -0.7681
11327TIP3    H255397   5.587   2.331  14.324  0.0055  0.6164  0.8600
11328TIP3   OH255398   3.212   0.582  17.169  0.3282 -0.2503  0.6727
11328TIP3    H155399   3.285   0.549  17.221 -0.2300 -0.3247  1.4173
11328TIP3    H255400   3.235   0.558  17.079  2.3063  1.7095  0.5573
11329TIP3   OH255401   3.936   4.865   2.507 -0.6025 -0.1680 -0.5692
11329TIP3    H155402   3.870   4.906   2.564 -1.6156 -2.4970  0.0643
11329TIP3    H255403   3.900   4.875   2.419 -0.5856  0.7137 -0.4835
11330TIP3   OH255404   4.177   5.546   5.633 -0.3982  0.5356 -0.0427
11330TIP3    H155405   4.236   5.620   5.635 -0.6841  0.8091 -0.9854
11330TIP3    H255406   4.143   5.544   5.543  0.0499 -1.0854 -0.2206
11331TIP3   OH255407   0.296   5.187   3.964 -0.2344  0.2927  0.2700
11331TIP3    H155408   0.274   5.108   3.916  0.3807  0.6729 -0.6858
11331TIP3    H255409   0.301   5.255   3.897 -2.0214  1.4398  1.2262
11332TIP3   OH255410   3.392   3.488  15.490  0.3133  0.3537  0.0101
11332TIP3    H155411   3.460   3.556  15.492  0.3892  0.2611  1.3551
11332TIP3    H255412   3.441   3.406  15.494  0.1543  0.2779  0.5468
11333TIP3   OH255413   1.767   4.366   5.772  0.1920  0.0906  0.6413
11333TIP3    H155414   1.826   4.314   5.718 -0.5900  0.3514 -0.5008
11333TIP3    H255415   1.824   4.424   5.822  0.9346 -0.1613  0.0987
11334TIP3   OH255416   4.977   0.207   0.152  0.1982  0.2224 -0.2229
11334TIP3    H155417   4.910   0.275   0.146  0.3134  0.7080  2.4869
11334TIP3    H255418   5.023   0.226   0.234  0.2444 -3.1222  0.6723
11335TIP3   OH255419   2.659   1.984   0.210  0.0956  0.2114  0.3199
11335TIP3    H155420   2.580   1.931   0.194 -0.9877  1.1133  2.3230
11335TIP3    H255421   2.630   2.053   0.269  1.7160  2.4385 -1.2982
11336TIP3   OH255422   2.622   4.094  15.725 -0.2671 -0.4053 -0.0735
11336TIP3    H155423   2.686   4.114  15.794 -0.9999 -1.7527  1.0533
11336TIP3    H255424   2.603   4.001  15.737 -2.4582 -0.0418 -0.3410
11337TIP3   OH255425   1.788   4.945   3.263 -0.0155 -0.0276 -0.7116
11337TIP3    H155426   1.718   4.979   3.319  0.9034  0.9709 -0.1386
11337TIP3    H255427   1.754   4.861   3.232 -0.5583 -0.6733  1.4086
11338TIP3   OH255428   0.777   1.860   1.878 -0.0517  0.2171 -0.4157
11338TIP3    H155429   0.794   1.954   1.873 -1.0402  0.4090 -0.3192
11338TIP3    H255430   0.825   1.831   1.955 -1.2717  1.0035  0.6673
11339TIP3   OH255431   3.538   3.758   2.813  0.2363 -0.7944  0.0202
11339TIP3    H155432   3.520   3.849   2.788  0.4722 -0.0487  2.3329
11339TIP3    H255433   3.480   3.741   2.887  0.2809 -2.5203 -0.2918
11340TIP3   OH255434   2.521   3.882   5.353  0.0759 -0.3792  0.0172
11340TIP3    H155435   2.466   3.945   5.306  0.5565 -0.7151 -1.0321
11340TIP3    H255436   2.598   3.872   5.298  1.3804  0.3578  1.6393
11341TIP3   OH255437   1.104   5.750  12.121 -0.1260  0.5226  0.2766
11341TIP3    H155438   1.104   5.787  12.033  0.4567  0.5838  0.2981
11341TIP3    H255439   1.185   5.783  12.161  0.8268 -1.3617  0.0441
11342TIP3   OH255440   3.559   6.233   4.283  0.0760 -0.3129  0.5461
11342TIP3    H155441   3.479   6.222   4.334 -0.5185 -0.4605 -0.4041
11342TIP3    H255442   3.611   6.296   4.334 -0.4247 -0.5806  1.4125
11343TIP3   OH255443   5.720   6.432  13.428  0.0456  0.7749 -0.5329
11343TIP3    H155444   5.684   6.383  13.354  0.6068 -1.4786  0.5756
11343TIP3    H255445   5.794   6.480  13.392 -0.4005  0.6602 -1.6515
11344TIP3   OH255446   2.030   4.692   1.362 -0.0685  0.3942  0.2781
11344TIP3    H155447   1.942   4.657   1.351 -0.0952  0.6809 -0.5611
11344TIP3    H255448   2.045   4.693   1.456 -0.6383 -0.4450  0.3832
11345TIP3   OH255449   6.439   2.859  16.708  0.5655 -0.1614 -0.2289
11345TIP3    H155450   6.493   2.862  16.628  0.3859  1.3704 -0.3147
11345TIP3    H255451   6.464   2.937  16.756  0.1624 -0.7196  0.9079
11346TIP3   OH255452   4.688   0.297  12.614  0.2382 -0.0810 -0.1993
11346TIP3    H155453   4.743   0.223  12.641 -1.8530 -1.2009  1.3023
11346TIP3    H255454   4.719   0.370  12.668  0.1933 -0.7215  0.7108
11347TIP3   OH255455   0.834   6.720  13.415  0.2415  0.4314 -0.4430
11347TIP3    H155456   0.794   6.634  13.429 -1.2490  1.0620 -0.7138
11347TIP3    H255457   0.925   6.700  13.392  0.5930 -0.9716  1.8312
11348TIP3   OH255458   6.287   1.657   1.322  0.2364  0.0334 -1.0087
11348TIP3    H155459   6.272   1.726   1.258  0.6270  0.4170 -0.6873
11348TIP3    H255460   6.254   1.693   1.404  2.2525  0.6278 -0.4224
11349TIP3   OH255461   5.588   2.531  11.844 -0.1957 -0.1865  0.1742
11349TIP3    H155462   5.633   2.451  11.871 -0.8587 -0.7399 -0.3263
11349TIP3    H255463   5.640   2.565  11.771 -0.5717 -0.8260 -0.4047
11350TIP3   OH255464   0.436   2.367   4.692  0.4282  0.3973  0.7659
11350TIP3    H155465   0.501   2.379   4.624 -0.5103  0.5362 -0.1372
11350TIP3    H255466   0.484   2.328   4.765  2.0319  2.6655  1.0424
11351TIP3   OH255467   5.197   6.150  14.199 -0.0349 -0.6822  0.2846
11351TIP3    H155468   5.259   6.106  14.257  1.8602 -0.4471 -1.4385
11351TIP3    H255469   5.178   6.233  14.243  1.8340 -0.2432  0.3692
11352TIP3   OH255470   1.228   3.362  16.826 -0.4664  0.8059  0.1315
11352TIP3    H155471   1.243   3.408  16.743 -1.2956  0.2582 -0.3449
11352TIP3    H255472   1.142   3.323  16.816 -1.2602  1.9751  1.8565
11353TIP3   OH255473   3.845   3.348   1.894 -0.8681 -0.5817 -0.1091
11353TIP3    H155474   3.937   3.361   1.918 -1.1751 -0.4210  1.0354
11353TIP3    H255475   3.846   3.340   1.799  0.2039  0.6064 -0.2291
11354TIP3   OH255476   3.346   3.061   2.152  0.3821  0.3188 -0.1332
11354TIP3    H155477   3.264   3.047   2.199 -0.0052  0.5505 -0.7415
11354TIP3    H255478   3.413   3.055   2.220  0.0514 -1.7957  0.0950
11355TIP3   OH255479   0.315   3.660  10.338 -0.0260  0.2150 -0.2976
11355TIP3    H155480   0.231   3.620  10.359  0.8051 -0.3132  2.4057
11355TIP3    H255481   0.329   3.725  10.407  0.3251  2.7404 -2.5438
11356TIP3   OH255482   1.548   4.074   2.260 -0.5168 -0.4219 -0.3924
11356TIP3    H155483   1.565   4.103   2.170  1.1510  0.7689  0.2658
11356TIP3    H255484   1.475   4.129   2.289 -0.2962 -0.0002 -0.6328
11357TIP3   OH255485   0.366   6.339   5.332  0.3945 -0.3363 -0.1919
11357TIP3    H155486   0.453   6.356   5.296 -0.2796  0.9289 -1.2904
11357TIP3    H255487   0.307   6.395   5.282 -1.2881 -2.2417 -0.4994
11358TIP3   OH255488   1.597   0.315  15.508  0.1147  0.3513 -0.3480
11358TIP3    H155489   1.672   0.336  15.453  0.4113 -2.2998 -1.0746
11358TIP3    H255490   1.594   0.220  15.511 -1.0801  0.3528  2.6555
11359TIP3   OH255491   4.333   0.659  10.303  0.0516  0.0627 -0.0710
11359TIP3    H155492   4.267   0.590  10.314  1.1293 -1.0204 -0.2289
11359TIP3    H255493   4.287   0.730  10.258 -0.7843 -1.0046 -0.9296
11360TIP3   OH255494   1.448   0.770   4.796 -0.1081 -0.3603  0.0159
11360TIP3    H155495   1.515   0.744   4.733  0.2050 -1.0214  0.6015
11360TIP3    H255496   1.475   0.857   4.825 -0.0229 -0.2300 -0.4457
11361TIP3   OH255497   2.135   5.838   4.019 -0.3057 -0.3176  0.2376
11361TIP3    H155498   2.061   5.898   4.007 -0.1656  0.0451  1.1681
11361TIP3    H255499   2.177   5.866   4.100  2.3635  1.1055 -1.4539
11362TIP3   OH255500   0.118   5.776   2.614 -0.5429 -0.1919 -0.4464
11362TIP3    H155501   0.044   5.717   2.629 -0.5345 -0.1700 -0.3149
11362TIP3    H255502   0.168   5.735   2.543 -1.4481  0.5143 -1.5259
11363TIP3   OH255503   0.313   1.688  14.321  0.3024 -0.7452  0.1299
11363TIP3    H155504   0.259   1.746  14.376  1.3604 -0.6369  1.1047
11363TIP3    H255505   0.252   1.621  14.290 -0.5621 -0.1569  0.5005
11364TIP3   OH255506   2.730   1.058  15.213  0.3878  1.0210 -0.4313
11364TIP3    H155507   2.753   0.991  15.278  1.4635  1.4338 -0.3603
11364TIP3    H255508   2.727   1.010  15.130  1.1065  0.8660 -0.3772
11365TIP3   OH255509   3.644   3.444  11.750 -0.9909  0.4523  0.3628
11365TIP3    H155510   3.651   3.533  11.784 -0.6338  0.5109  0.1369
11365TIP3    H255511   3.708   3.394  11.801  1.0677  0.9539 -1.5814
11366TIP3   OH255512   3.140   3.176  17.102 -0.5107 -0.1228  0.2686
11366TIP3    H155513   3.098   3.104  17.054  2.5528 -2.8936  1.3279
11366TIP3    H255514   3.161   3.240  17.034 -2.2074 -0.7792 -0.9551
11367TIP3   OH255515   6.005   2.163  15.433  1.0130 -0.0447 -0.2206
11367TIP3    H155516   5.961   2.225  15.376 -1.7834 -0.6913  1.0372
11367TIP3    H255517   5.967   2.078  15.410  0.1950 -0.3962  2.1397
11368TIP3   OH255518   6.757   5.035   3.457 -0.0700 -0.0434 -0.5222
11368TIP3    H155519   6.811   5.082   3.392 -1.2749 -0.2177 -1.6935
11368TIP3    H255520   6.671   5.028   3.416 -0.5676 -1.1703  0.6491
11369TIP3   OH255521   2.884   6.294   5.522  0.0039  0.1211  0.6537
11369TIP3    H155522   2.959   6.280   5.581 -0.1056 -0.7879  0.5869
11369TIP3    H255523   2.922   6.338   5.446  0.1604  1.2485  1.3549
11370TIP3   OH255524   4.894   2.860  17.116 -0.0136 -0.0180  0.0108
11370TIP3    H155525   4.964   2.883  17.176 -0.7145 -0.2422  0.9363
11370TIP3    H255526   4.850   2.786  17.158 -1.4384  0.7674 -0.0391
11371TIP3   OH255527   3.396   3.709  12.314  0.4032  0.2090  0.1120
11371TIP3    H155528   3.349   3.625  12.318  1.2290 -0.2243  1.0957
11371TIP3    H255529   3.339   3.770  12.360 -2.1118  1.2279 -3.8354
11372TIP3   OH255530   0.706   0.521  16.570  0.3494 -0.3234  0.4773
11372TIP3    H155531   0.620   0.557  16.547 -0.0261 -1.4068  0.1176
11372TIP3    H255532   0.747   0.590  16.622 -0.3937  0.5537 -0.0617
11373TIP3   OH255533   4.956   5.532   4.137  0.6557  0.4297 -0.2373
11373TIP3    H155534   5.050   5.519   4.151  0.1025 -1.9528  1.8787
11373TIP3    H255535   4.926   5.449   4.100 -0.4663  1.6219 -2.1817
11374TIP3   OH255536   1.902   1.475   1.300  0.1508  0.2840  0.5208
11374TIP3    H155537   1.901   1.421   1.221 -0.6129 -0.5133  1.0577
11374TIP3    H255538   1.935   1.560   1.271  0.6749 -0.2508 -0.4822
11375TIP3   OH255539   5.528   0.443   6.541  0.1195 -0.6151  0.3930
11375TIP3    H155540   5.444   0.482   6.515 -0.3068  0.0965  2.6259
11375TIP3    H255541   5.591   0.479   6.479 -1.3070 -1.9491 -1.9955
11376TIP3   OH255542   5.606   0.465  13.314  0.0236 -0.2038  0.0792
11376TIP3    H155543   5.630   0.492  13.226 -1.0917 -2.3001 -0.9554
11376TIP3    H255544   5.658   0.386  13.330  0.8430  0.6086  1.6743
11377TIP3   OH255545   0.926   3.831   2.837 -0.8314 -0.0589  0.5427
11377TIP3    H155546   0.970   3.839   2.922  0.7663  0.6147 -0.3099
11377TIP3    H255547   0.842   3.876   2.849 -0.4459  0.4044  1.6405
11378TIP3   OH255548   0.996   2.795   5.098  0.5653  0.4558 -0.2917
11378TIP3    H155549   1.069   2.814   5.158 -0.5283 -2.1259  2.0757
11378TIP3    H255550   0.983   2.701   5.105 -2.2435  0.6500 -1.5693
11379TIP3   OH255551   2.125   3.346  15.107  0.0524  0.1916 -0.1869
11379TIP3    H155552   2.097   3.351  15.016 -2.0405 -0.3463  0.3797
11379TIP3    H255553   2.098   3.430  15.145 -0.3049 -0.1170  0.2500
11380TIP3   OH255554   3.354   5.359   5.408  0.3245 -0.3448 -0.1209
11380TIP3    H155555   3.403   5.395   5.482  0.8440 -2.9009  0.9104
11380TIP3    H255556   3.324   5.273   5.439 -2.2253 -0.1677 -1.8030
11381TIP3   OH255557   2.029   4.809  16.133  0.1672  0.0220 -0.8661
11381TIP3    H155558   2.033   4.734  16.074 -1.5540  0.7669 -2.0355
11381TIP3    H255559   1.938   4.810  16.163  0.5072  0.8762  0.1630
11382TIP3   OH255560   0.359   0.294   1.452  0.0310 -0.3494 -0.0352
11382TIP3    H155561   0.321   0.312   1.538 -0.6373 -3.0750  0.3509
11382TIP3    H255562   0.441   0.248   1.471  0.2184 -0.3746 -0.8503
11383TIP3   OH255563   4.519   5.020  12.163  0.1383 -0.8779 -0.1121
11383TIP3    H155564   4.508   5.065  12.247  3.3329 -0.4942  0.2004
11383TIP3    H255565   4.610   5.034  12.139 -0.8146 -0.1224 -4.2032
11384TIP3   OH255566   3.514   5.558  16.860  0.1546  0.5396 -0.3318
11384TIP3    H155567   3.528   5.473  16.901  0.7869  0.4465 -0.7247
11384TIP3    H255568   3.539   5.544  16.768  0.0193  1.0828 -0.4533
11385TIP3   OH255569   5.233   5.531  12.098  0.0249 -0.0890 -0.8480
11385TIP3    H155570   5.326   5.509  12.090  0.1753 -1.4903  2.8253
11385TIP3    H255571   5.189   5.448  12.115 -1.1640  0.9958  1.9612
11386TIP3   OH255572   4.270   6.753  11.789 -0.1764  0.1408  0.1277
11386TIP3    H155573   4.244   6.834  11.746  0.9405 -0.1190 -1.0693
11386TIP3    H255574   4.341   6.779  11.848 -0.7096  0.2402  0.7412
11387TIP3   OH255575   5.556   2.848   5.336 -0.0865  0.2432  0.3413
11387TIP3    H155576   5.574   2.932   5.377 -0.4572  1.8279 -2.4766
11387TIP3    H255577   5.559   2.866   5.242  0.3071 -3.0164 -0.3969
11388TIP3   OH255578   5.210   1.160  13.980  0.3236  0.3536 -0.0080
11388TIP3    H155579   5.252   1.156  13.894  1.5733 -0.4080  0.6052
11388TIP3    H255580   5.161   1.242  13.980  0.9338  0.7354 -1.1688
11389TIP3   OH255581   4.331   4.992  16.526 -0.7262  0.3053  0.3038
11389TIP3    H155582   4.250   4.969  16.480 -0.2728 -1.0706  0.1243
11389TIP3    H255583   4.332   5.087  16.528 -0.5964  0.4642 -2.8708
11390TIP3   OH255584   4.458   2.442  15.495  0.1510  0.0740 -0.1265
11390TIP3    H155585   4.450   2.487  15.411  3.2546  0.1479 -0.5165
11390TIP3    H255586   4.395   2.371  15.491  0.3015 -0.0037 -2.5992
11391TIP3   OH255587   2.884   1.392   0.221 -0.4964 -0.1138 -0.7316
11391TIP3    H155588   2.942   1.405   0.296 -0.1916 -0.9432 -0.8126
11391TIP3    H255589   2.796   1.411   0.254 -0.6055 -2.1901  0.3605
11392TIP3   OH255590   4.158   4.119   3.093  0.4013 -0.4859 -0.2800
11392TIP3    H155591   4.216   4.055   3.136  0.8792  0.4534  0.5243
11392TIP3    H255592   4.172   4.200   3.143  0.0897  0.3405 -1.5116
11393TIP3   OH255593   1.212   4.134   3.890  0.3092 -0.1892 -0.2814
11393TIP3    H155594   1.212   4.048   3.850 -2.5074 -0.1009 -0.6762
11393TIP3    H255595   1.137   4.179   3.851 -0.9983  0.8631  3.0448
11394TIP3   OH255596   2.271   3.932  13.753 -0.0440 -0.6762 -0.0221
11394TIP3    H155597   2.227   3.847  13.746 -1.9402  0.2289  0.5303
11394TIP3    H255598   2.208   3.989  13.795  0.4990  1.5309 -1.9969
11395TIP3   OH255599   6.723   0.435  15.670 -0.0809 -0.3838 -0.4807
11395TIP3    H155600   6.632   0.442  15.642  0.1533  2.7134 -0.8865
11395TIP3    H255601   6.774   0.449  15.591  0.7862 -1.9866 -0.2393
11396TIP3   OH255602   5.742   1.832   5.039  0.1343  0.0730 -0.1402
11396TIP3    H155603   5.768   1.740   5.044  1.5642  0.4218 -0.6080
11396TIP3    H255604   5.789   1.874   5.111  0.7307  0.6922 -0.8678
11397TIP3   OH255605   3.798   3.753   5.307 -0.0284  0.6870 -0.0268
11397TIP3    H155606   3.796   3.663   5.276  3.5453  0.4329  0.0616
11397TIP3    H255607   3.756   3.751   5.392 -1.0150 -0.6311 -0.5143
11398TIP3   OH255608   5.621   1.189  15.246 -0.3370 -0.4702 -0.1077
11398TIP3    H155609   5.537   1.221  15.280 -0.9349 -1.4579 -0.6340
11398TIP3    H255610   5.658   1.265  15.200 -0.4687  0.2668  0.9534
11399TIP3   OH255611   6.256   1.825   1.942  0.2514 -0.1631  0.0348
11399TIP3    H155612   6.307   1.904   1.960  3.9930 -2.3850  0.2916
11399TIP3    H255613   6.226   1.796   2.028  0.6013 -0.0372  0.2048
11400TIP3   OH255614   6.198   5.763  14.024  0.0965  0.1401  0.1275
11400TIP3    H155615   6.179   5.674  14.053 -2.2431  0.2215 -1.0209
11400TIP3    H255616   6.172   5.818  14.098 -1.0638  0.0192 -0.1724
11401TIP3   OH255617   3.279   4.595  13.504  0.7541  0.2502  1.2943
11401TIP3    H155618   3.247   4.603  13.594 -1.0118  1.1354  0.6410
11401TIP3    H255619   3.202   4.613  13.450  1.8687  0.1297 -0.4007
11402TIP3   OH255620   0.208   0.467   2.349  0.5079  0.1214 -0.1387
11402TIP3    H155621   0.171   0.400   2.292  0.6275  0.6971 -0.8944
11402TIP3    H255622   0.288   0.427   2.383  0.0176 -0.5299  0.2785
11403TIP3   OH255623   6.220   1.465  11.265  0.4319 -0.4653 -0.6664
11403TIP3    H155624   6.280   1.517  11.318 -1.6783  0.0077  1.3981
11403TIP3    H255625   6.133   1.490  11.295 -0.7465 -3.9516 -0.7310
11404TIP3   OH255626   4.847   5.261   4.027 -0.0234 -0.9265 -0.5484
11404TIP3    H155627   4.836   5.309   3.945  1.6174  2.1108  0.8444
11404TIP3    H255628   4.758   5.256   4.063 -0.3661  0.4722 -1.1038
11405TIP3   OH255629   5.539   1.329  16.260  0.0168  0.6583  0.2165
11405TIP3    H155630   5.595   1.253  16.277 -0.4287  0.3705  0.4187
11405TIP3    H255631   5.598   1.393  16.220  0.5522  0.4651  0.6781
11406TIP3   OH255632   3.757   2.647   0.071 -0.4699 -0.0049  0.1155
11406TIP3    H155633   3.765   2.681  -0.018  0.6792 -0.4015  0.0534
11406TIP3    H255634   3.741   2.553   0.059 -0.0064 -0.1125  0.3247
11407TIP3   OH255635   5.098   4.181  13.387  0.4433 -0.4215  0.6208
11407TIP3    H155636   5.081   4.198  13.480  0.4271 -1.1888  0.7607
11407TIP3    H255637   5.191   4.200  13.377 -0.1068  2.5449  0.1293
11408TIP3   OH255638   0.896   1.586  15.901 -0.2044  0.2346  0.2304
11408TIP3    H155639   0.920   1.666  15.854  0.4447  1.4020  2.4077
11408TIP3    H255640   0.924   1.515  15.844  1.3631  1.5708 -0.7456
11409TIP3   OH255641   6.150   1.041  15.281  0.1735 -0.5701 -1.0203
11409TIP3    H155642   6.201   0.976  15.328  1.5481  1.0588 -0.1243
11409TIP3    H255643   6.070   1.052  15.333  1.0160  0.1511  0.1548
11410TIP3   OH255644   3.906   2.859  11.744  0.0758 -0.3237  0.6104
11410TIP3    H155645   3.831   2.810  11.709  0.8381  0.2290 -2.0983
11410TIP3    H255646   3.968   2.861  11.671  1.3153  2.1432  1.6212
11411TIP3   OH255647   4.824   0.603   0.140  0.4414 -0.5760  0.1776
11411TIP3    H155648   4.832   0.523   0.192  3.8311 -0.8711 -0.5407
11411TIP3    H255649   4.876   0.668   0.188 -0.4411  0.5602 -0.3711
11412TIP3   OH255650   5.747   0.276  12.808 -0.4241  0.2467 -0.2337
11412TIP3    H155651   5.826   0.227  12.785 -0.9846 -1.9088  2.0566
11412TIP3    H255652   5.775   0.368  12.811  1.3252 -0.1682 -1.9945
11413TIP3   OH255653   0.436   1.731   2.854  0.0414 -0.2250  0.0832
11413TIP3    H155654   0.457   1.657   2.911  0.7696 -0.4907 -0.5038
11413TIP3    H255655   0.344   1.716   2.829 -0.0166 -0.5731  0.4836
11414TIP3   OH255656   1.072   6.040   2.350  0.6470 -0.6971 -0.6992
11414TIP3    H155657   1.025   6.093   2.414  1.6793 -1.4786  0.7778
11414TIP3    H255658   1.004   5.987   2.308 -0.1506  0.4250 -0.8641
11415TIP3   OH255659   5.267   1.511  11.128 -0.4501  0.3657  0.0637
11415TIP3    H155660   5.338   1.536  11.187  0.7685 -0.9401 -0.7838
11415TIP3    H255661   5.295   1.541  11.042  0.0614 -1.8579 -0.6184
11416TIP3   OH255662   5.428   6.521   2.181 -0.0596 -0.1589 -0.2306
11416TIP3    H155663   5.433   6.519   2.277 -1.3247  0.5160 -0.1269
11416TIP3    H255664   5.397   6.434   2.157  1.1757 -0.6543 -0.1191
11417TIP3   OH255665   4.185   4.924  13.842 -0.2266  0.6976 -0.0282
11417TIP3    H155666   4.131   4.988  13.794  0.3113  1.5165  0.4212
11417TIP3    H255667   4.223   4.869  13.775  1.7280  2.7679 -0.7501
11418TIP3   OH255668   4.429   2.082   2.419 -0.3445 -0.7068  0.2535
11418TIP3    H155669   4.364   2.019   2.451  1.0972 -1.6453  1.5481
11418TIP3    H255670   4.412   2.089   2.325  0.3493 -4.2714 -0.2982
11419TIP3   OH255671   3.540   6.629   2.565 -0.4345  0.2173  0.3705
11419TIP3    H155672   3.464   6.586   2.606  0.6382 -1.2686  0.8677
11419TIP3    H255673   3.572   6.689   2.631  0.1631 -0.8177  1.0512
11420TIP3   OH255674   5.285   1.874  12.241  0.0204 -0.2349 -0.6147
11420TIP3    H155675   5.254   1.917  12.321 -1.9882  0.5780 -1.7443
11420TIP3    H255676   5.378   1.858  12.256  0.6132  3.2901  0.4552
11421TIP3   OH255677   4.809   6.477  16.766  0.1425 -0.2873  0.1486
11421TIP3    H155678   4.825   6.566  16.798  0.6711 -0.0987 -0.6098
11421TIP3    H255679   4.862   6.470  16.687  0.0995 -1.2809  0.1918
11422TIP3   OH255680   3.196   3.578  12.565  0.0882 -0.2146 -0.1221
11422TIP3    H155681   3.288   3.583  12.590 -0.4535  0.3443  1.9094
11422TIP3    H255682   3.198   3.548  12.474  2.3474  1.7281 -0.8116
11423TIP3   OH255683   4.410   3.224   4.318 -0.2803 -0.0011  0.1382
11423TIP3    H155684   4.421   3.236   4.413  0.6356 -0.8652  0.1664
11423TIP3    H255685   4.467   3.289   4.278 -1.3028  0.9224  0.1567
11424TIP3   OH255686   5.558   1.620  16.140  0.5438  0.6595  0.4161
11424TIP3    H155687   5.522   1.693  16.191  0.5214  1.4141 -0.6310
11424TIP3    H255688   5.639   1.655  16.103  0.0045  0.5187 -0.9506
11425TIP3   OH255689   3.499   5.004  17.204 -0.3107  0.2375  0.6934
11425TIP3    H155690   3.408   4.977  17.212 -0.6752  1.1081 -0.2124
11425TIP3    H255691   3.512   5.067  17.275 -0.2256 -0.3597  1.2082
11426TIP3   OH255692   4.125   3.667  17.301  0.6592 -0.1183 -0.2276
11426TIP3    H155693   4.131   3.740  17.362  0.1927 -0.1784 -0.1049
11426TIP3    H255694   4.214   3.633  17.296  0.5039 -0.8505  1.3522
11427TIP3   OH255695   2.361   1.263  15.965 -0.0624  0.4029 -0.0913
11427TIP3    H155696   2.432   1.201  15.982  1.0235  1.1349 -1.6910
11427TIP3    H255697   2.296   1.212  15.916  0.5772  0.3609 -0.9211
11428TIP3   OH255698   6.367   4.434  15.606 -0.1500 -0.0320 -0.4457
11428TIP3    H155699   6.434   4.368  15.591 -0.8093 -1.1760  1.3434
11428TIP3    H255700   6.408   4.516  15.578  0.9623 -1.0471 -1.9845
11429TIP3   OH255701   0.977   3.321  15.387 -0.4287 -0.1830 -0.1103
11429TIP3    H155702   0.927   3.328  15.305 -0.3446 -2.0810 -0.3635
11429TIP3    H255703   0.919   3.272  15.446  0.1157 -0.1519  0.4529
11430TIP3   OH255704   5.089   4.361  12.242 -0.5700 -0.0465 -0.0156
11430TIP3    H155705   5.057   4.292  12.183 -1.0330 -0.4712  0.7227
11430TIP3    H255706   5.038   4.438  12.218 -0.7781 -0.2231 -0.1448
11431TIP3   OH255707   4.015   1.704  12.856  0.4098  0.5387 -0.0384
11431TIP3    H155708   4.040   1.724  12.947 -0.5661  0.0919  0.3402
11431TIP3    H255709   4.095   1.668  12.817  0.6450  0.0695  0.8475
11432TIP3   OH255710   5.675   1.218   4.227  0.0421 -0.3627 -0.9471
11432TIP3    H155711   5.644   1.129   4.241 -0.9474  0.5014  4.9493
11432TIP3    H255712   5.769   1.209   4.213  0.0010 -2.3528 -0.1658
11433TIP3   OH255713   1.067   2.249   1.565  0.2065  0.0907 -0.7578
11433TIP3    H155714   1.022   2.302   1.499  2.0969 -0.3592 -2.5184
11433TIP3    H255715   1.133   2.308   1.602  0.2072 -0.1155 -0.4295
11434TIP3   OH255716   1.801   3.596   1.027  0.0316  0.3313 -0.6945
11434TIP3    H155717   1.809   3.616   0.934 -0.6634 -0.1981 -0.8759
11434TIP3    H255718   1.878   3.542   1.047  0.3437  0.7036 -0.8849
11435TIP3   OH255719   6.061   4.324  15.779 -0.1547 -0.1454  0.0140
11435TIP3    H155720   6.148   4.314  15.819 -0.9778  0.3542  2.0199
11435TIP3    H255721   6.079   4.373  15.698  1.2734  1.4238  1.2046
11436TIP3   OH255722   1.479   4.291   3.901  0.0897  0.1539 -0.4110
11436TIP3    H155723   1.501   4.252   3.985 -0.9675  0.6681  0.1220
11436TIP3    H255724   1.477   4.217   3.840 -1.8569 -0.6800  0.5792
11437TIP3   OH255725   5.529   2.645  13.590 -0.3331  0.0120 -0.2326
11437TIP3    H155726   5.576   2.697  13.656  1.5536  0.3451 -1.7463
11437TIP3    H255727   5.477   2.584  13.641  1.5259 -0.1548  1.6067
11438TIP3   OH255728   0.036   4.041   1.619 -0.6274  0.0135 -0.9383
11438TIP3    H155729   0.112   4.040   1.561 -1.1377 -0.7700 -1.6172
11438TIP3    H255730   0.007   3.949   1.622 -2.0645  0.4249 -1.3962
11439TIP3   OH255731   3.985   4.700  14.306  0.3265 -0.1091 -0.0846
11439TIP3    H155732   4.052   4.743  14.253 -0.6443  2.2202  0.4577
11439TIP3    H255733   4.025   4.688  14.392  0.1482  1.1410  0.1947
11440TIP3   OH255734   6.007   2.237  12.198 -0.4114 -0.0532  0.0430
11440TIP3    H155735   5.987   2.199  12.112  0.8897  0.6674 -0.6126
11440TIP3    H255736   5.963   2.322  12.198  0.0835  0.2079 -0.1670
11441TIP3   OH255737   5.163   1.780   1.254 -0.6717 -0.4895  0.0175
11441TIP3    H155738   5.248   1.793   1.296 -0.6807 -0.5092  0.0419
11441TIP3    H255739   5.105   1.840   1.299 -1.1399 -1.9047  1.4020
11442TIP3   OH255740   5.194   1.036   0.281  0.5565 -0.6038 -0.1184
11442TIP3    H155741   5.219   1.042   0.373 -1.0904 -0.2704  0.3292
11442TIP3    H255742   5.176   0.943   0.267  0.6024 -0.6238 -0.0419
11443TIP3   OH255743   0.264   2.082  11.828  0.4637 -0.0683  0.1043
11443TIP3    H155744   0.247   2.176  11.819 -0.3375 -0.2925 -0.8247
11443TIP3    H255745   0.353   2.071  11.796  0.6003  0.3816  0.3115
11444TIP3   OH255746   1.018   4.732   0.364 -0.0190  0.3221 -0.3700
11444TIP3    H155747   1.038   4.825   0.374 -1.0941  0.5941 -0.6311
11444TIP3    H255748   1.050   4.692   0.445 -0.1953  1.0323  0.0575
11445TIP3   OH255749   0.818   5.164   0.687  0.3997 -0.4955  0.1405
11445TIP3    H155750   0.886   5.206   0.635  0.4962  1.2355  1.5713
11445TIP3    H255751   0.748   5.229   0.693  0.5027 -0.5252  2.3611
11446TIP3   OH255752   2.728   5.384  14.951 -0.4383  0.3578  1.1229
11446TIP3    H155753   2.822   5.391  14.965  0.4365 -1.6128 -2.4646
11446TIP3    H255754   2.707   5.460  14.895 -0.1821 -0.9374 -0.8321
11447TIP3   OH255755   2.087   4.278   6.696 -0.2082 -0.2036  0.7128
11447TIP3    H155756   2.088   4.367   6.661 -0.0035 -0.6218 -0.3939
11447TIP3    H255757   2.056   4.225   6.623  0.4100 -1.1389  1.1171
11448TIP3   OH255758   3.428   4.267  14.840 -0.4233 -0.2330  0.4299
11448TIP3    H155759   3.445   4.361  14.845  0.9886 -0.4612  0.5457
11448TIP3    H255760   3.339   4.256  14.872 -1.0078  1.1710 -0.6370
11449TIP3   OH255761   0.192   0.011   2.688  0.2703 -0.3440  0.2145
11449TIP3    H155762   0.221  -0.032   2.768  1.7686  1.7004  0.8653
11449TIP3    H255763   0.147   0.090   2.718 -0.5686 -0.3602 -0.9410
11450TIP3   OH255764   3.825   1.308  12.867  0.2766 -0.3247  0.0873
11450TIP3    H155765   3.864   1.383  12.822 -1.0081  1.6209  2.0010
11450TIP3    H255766   3.780   1.259  12.798 -0.8006  1.9835 -0.9595
11451TIP3   OH255767   6.205   6.607  11.738 -0.4688 -0.2535  0.2245
11451TIP3    H155768   6.210   6.688  11.687 -2.0707  0.9372  1.8053
11451TIP3    H255769   6.129   6.619  11.794  0.0013 -2.3534  1.4287
11452TIP3   OH255770   3.333   3.907   4.784 -0.1999  0.3025  0.2037
11452TIP3    H155771   3.424   3.919   4.758 -0.1826  0.4312  0.3248
11452TIP3    H255772   3.282   3.936   4.708 -0.1323 -0.3903 -0.1178
11453TIP3   OH255773   0.755   2.253  15.751 -0.2773  0.3965 -0.0854
11453TIP3    H155774   0.660   2.259  15.761 -0.3670  2.4538 -1.5501
11453TIP3    H255775   0.788   2.242  15.840 -1.7437  3.0006  0.8757
11454TIP3   OH255776   3.936   4.074   1.117  0.2620  0.3953  0.2203
11454TIP3    H155777   3.963   4.161   1.147 -0.7971  0.8121  0.0108
11454TIP3    H255778   3.849   4.087   1.081 -0.4244 -0.9767  1.2887
11455TIP3   OH255779   6.445   4.416   1.333  0.2744 -0.5366  0.2172
11455TIP3    H155780   6.455   4.429   1.239  1.7118 -1.3748  0.2140
11455TIP3    H255781   6.445   4.321   1.344 -4.5554 -0.7333  0.6855
11456TIP3   OH255782   3.383   5.323  10.558  0.1418  0.2554 -0.1304
11456TIP3    H155783   3.454   5.371  10.515 -1.1015  1.7885 -0.5626
11456TIP3    H255784   3.405   5.325  10.651  2.4597 -2.4123 -0.4867
11457TIP3   OH255785   0.115   1.891   3.734 -0.2627 -0.2887  0.0531
11457TIP3    H155786   0.059   1.962   3.703 -0.7764 -0.2397  1.0473
11457TIP3    H255787   0.099   1.887   3.829  0.3263 -1.2344  0.1314
11458TIP3   OH255788   0.399   0.561  13.274 -0.1198 -0.3759 -0.0732
11458TIP3    H155789   0.441   0.499  13.214 -1.9567  0.5703 -2.4773
11458TIP3    H255790   0.452   0.640  13.269 -0.0900 -0.4025 -0.1748
11459TIP3   OH255791   4.931   3.904  14.332  0.1390 -0.7358  0.1127
11459TIP3    H155792   5.025   3.900  14.319  0.0964 -1.3403 -0.0187
11459TIP3    H255793   4.901   3.814  14.322 -0.7749 -0.2381 -2.2703
11460TIP3   OH255794   1.555   5.958   5.617  0.1356 -0.2466  0.6916
11460TIP3    H155795   1.482   5.905   5.584 -0.2029  0.0751  0.9054
11460TIP3    H255796   1.582   5.914   5.698 -0.6546  0.3228  1.2838
11461TIP3   OH255797   1.033   0.299  14.775  0.0056  0.0522 -0.0169
11461TIP3    H155798   0.942   0.279  14.799  0.5344  0.2356  2.3855
11461TIP3    H255799   1.034   0.393  14.762 -0.3391 -0.0770 -1.0165
11462TIP3   OH255800   1.912   2.252  11.610 -0.3526 -0.0992  0.6846
11462TIP3    H155801   1.993   2.300  11.628 -0.2380 -0.6087  1.5578
11462TIP3    H255802   1.912   2.242  11.515  0.3372  0.3803  0.6230
11463TIP3   OH255803   0.158   5.028  10.866  0.0478 -0.1236  0.5834
11463TIP3    H155804   0.205   4.947  10.880 -0.5567 -0.1989  2.5249
11463TIP3    H255805   0.077   5.002  10.822  0.8078 -0.2642 -0.7680
11464TIP3   OH255806   1.594   2.560   5.343 -0.1914  0.2807  0.1569
11464TIP3    H155807   1.516   2.611   5.362 -0.3044 -0.5446  2.1311
11464TIP3    H255808   1.624   2.530   5.428  0.4533 -2.0984 -0.8414
11465TIP3   OH255809   3.092   2.899   4.828  0.0925 -0.5174 -0.0784
11465TIP3    H155810   2.999   2.894   4.852  0.2787 -1.4825  0.4803
11465TIP3    H255811   3.134   2.830   4.878  0.9341 -0.8707 -1.2292
11466TIP3   OH255812   3.270   2.846   4.587 -0.0569  0.2735 -0.6578
11466TIP3    H155813   3.352   2.841   4.636 -0.8001 -0.0212  0.6066
11466TIP3    H255814   3.205   2.805   4.645 -1.1079  0.5499 -1.6035
11467TIP3   OH255815   2.979   5.481  12.483 -0.5102  0.5565  0.4513
11467TIP3    H155816   2.916   5.530  12.536 -0.5828 -0.8668  1.7368
11467TIP3    H255817   3.061   5.487  12.531 -0.2988  0.2212  0.1397
11468TIP3   OH255818   5.105   0.105  17.212 -0.4948 -0.0687  0.6288
11468TIP3    H155819   5.147   0.039  17.157 -1.4534 -0.0491 -0.1601
11468TIP3    H255820   5.087   0.061  17.295 -0.4999 -0.5871  0.3524
11469TIP3   OH255821   4.336   0.784   2.836  0.5190 -0.3613  0.7729
11469TIP3    H155822   4.301   0.796   2.747 -0.6608 -1.2535  1.0899
11469TIP3    H255823   4.429   0.765   2.822  0.7129  1.1402 -0.1565
11470TIP3   OH255824   2.187   4.736  16.974  0.1619 -0.6335 -0.0676
11470TIP3    H155825   2.174   4.757  16.882  0.0020 -2.0361 -0.3990
11470TIP3    H255826   2.261   4.674  16.974 -0.0184 -0.8632  0.7065
11471TIP3   OH255827   5.340   4.867   6.873 -0.1967  0.1406 -0.3026
11471TIP3    H155828   5.299   4.910   6.798  2.3783  1.9380 -0.8334
11471TIP3    H255829   5.429   4.848   6.843  0.7952  0.5681  2.1252
11472TIP3   OH255830   0.537   1.391   1.630  0.3078 -0.1647  0.4694
11472TIP3    H155831   0.442   1.388   1.645  0.2244  0.7925  0.2118
11472TIP3    H255832   0.558   1.303   1.597 -1.1122  0.5339 -2.7791
11473TIP3   OH255833   2.574   1.281   3.423 -0.2344  0.0688 -0.1426
11473TIP3    H155834   2.513   1.213   3.394 -0.9033  0.7703 -0.4147
11473TIP3    H255835   2.648   1.274   3.363 -1.3908  1.1902 -1.7959
11474TIP3   OH255836   2.473   4.186   5.359 -0.5585  0.1926  0.2650
11474TIP3    H155837   2.401   4.227   5.311 -0.4349 -0.1988 -0.2669
11474TIP3    H255838   2.474   4.231   5.444  0.0996  1.8879 -0.5887
11475TIP3   OH255839   3.044   0.782   5.193 -0.2974  0.4542  0.8936
11475TIP3    H155840   2.954   0.771   5.162 -0.3386  2.1368  0.3142
11475TIP3    H255841   3.052   0.876   5.210  0.9637  0.1329  2.1895
11476TIP3   OH255842   0.583   6.023   4.946 -0.2278 -0.6858  0.0673
11476TIP3    H155843   0.543   6.025   5.033 -1.5155 -0.0467 -0.5007
11476TIP3    H255844   0.677   6.017   4.963 -0.5342 -2.5118  1.4716
11477TIP3   OH255845   6.129   6.584   2.012 -0.2673  0.0301  0.0269
11477TIP3    H155846   6.114   6.672   2.048  1.4166  0.5303 -0.4015
11477TIP3    H255847   6.203   6.550   2.063  0.5422 -0.2378 -1.2993
11478TIP3   OH255848   0.758   3.925   1.731 -0.8841 -0.5974 -0.1502
11478TIP3    H155849   0.809   3.865   1.785 -3.6632 -0.7991  2.5120
11478TIP3    H255850   0.789   4.012   1.756  0.7538 -0.7467 -1.4737
11479TIP3   OH255851   0.986   0.640   0.045  0.5653 -0.5669  0.1578
11479TIP3    H155852   0.944   0.581  -0.018 -0.3617  1.3902 -1.1620
11479TIP3    H255853   1.079   0.633   0.025  0.3697 -0.7325 -0.7860
11480TIP3   OH255854   1.901   4.251  14.516  0.2588  0.4127  0.3392
11480TIP3    H155855   1.931   4.161  14.504  0.9768  0.8115 -1.0202
11480TIP3    H255856   1.978   4.305  14.497 -0.5092  1.3585 -0.1918
11481TIP3   OH255857   5.991   6.234  12.290  0.5190  0.3909  0.2606
11481TIP3    H155858   6.023   6.212  12.377 -0.0171 -0.0057  0.3647
11481TIP3    H255859   5.971   6.327  12.294  2.6445  0.9146 -0.1218
11482TIP3   OH255860   3.337   5.544   3.576  0.5960  0.0056 -0.1058
11482TIP3    H155861   3.248   5.526   3.603  0.9548  0.6409  1.6146
11482TIP3    H255862   3.329   5.617   3.515 -0.0006  0.7866  0.8685
11483TIP3   OH255863   5.457   4.849   5.924 -0.1446 -0.0527 -0.3163
11483TIP3    H155864   5.381   4.818   5.876 -0.6081 -0.7184  0.8065
11483TIP3    H255865   5.505   4.769   5.948  1.9930  0.3971 -2.6413
11484TIP3   OH255866   3.773   6.275   5.615  0.3384 -0.0268  0.5007
11484TIP3    H155867   3.846   6.252   5.672 -0.3055 -2.1807  0.5174
11484TIP3    H255868   3.698   6.228   5.650 -1.0088  1.7963  0.2255
11485TIP3   OH255869   3.533   2.662  15.491  0.1724  0.3534 -0.2023
11485TIP3    H155870   3.512   2.744  15.536 -0.1352  0.5607 -0.7184
11485TIP3    H255871   3.628   2.666  15.479  0.8286 -1.1094  3.1636
11486TIP3   OH255872   0.914   2.288  16.286  0.7181  0.0714 -0.9677
11486TIP3    H155873   0.914   2.373  16.241 -0.4325  0.0870 -0.9499
11486TIP3    H255874   0.957   2.306  16.370 -0.5427  0.9253 -0.4694
11487TIP3   OH255875   0.562   2.226   4.282 -0.0774  0.4259 -0.8990
11487TIP3    H155876   0.599   2.142   4.309 -0.4318  0.4760 -0.2321
11487TIP3    H255877   0.486   2.203   4.228  0.2543  0.3222 -1.3246
11488TIP3   OH255878   2.716   3.172   3.679  0.0296 -0.2889  0.1712
11488TIP3    H155879   2.650   3.238   3.700  1.7305  0.9188  2.0664
11488TIP3    H255880   2.669   3.088   3.684 -1.8997  0.6317 -1.1384
11489TIP3   OH255881   2.176   0.278  11.899  0.2568 -0.3276 -0.1601
11489TIP3    H155882   2.211   0.307  11.984  0.9720  0.3700 -0.6811
11489TIP3    H255883   2.253   0.259  11.846 -0.1795 -2.3863 -0.1458
11490TIP3   OH255884   1.141   0.861  14.488  0.3462 -0.3511 -0.4154
11490TIP3    H155885   1.142   0.938  14.432 -0.6825  0.6706  0.9310
11490TIP3    H255886   1.105   0.891  14.571  1.5416 -1.8832  0.7302
11491TIP3   OH255887   4.595   1.132  12.344  0.6872  0.3678  0.4690
11491TIP3    H155888   4.518   1.076  12.358 -0.2301  1.3267 -0.5447
11491TIP3    H255889   4.634   1.141  12.431 -0.1754 -0.3589  0.9571
11492TIP3   OH255890   5.442   6.569  15.982 -0.4170 -0.5849  0.0990
11492TIP3    H155891   5.396   6.596  16.062  2.3290 -1.4615  2.1196
11492TIP3    H255892   5.418   6.478  15.970  0.6964 -1.0375  1.1421
11493TIP3   OH255893   0.487   1.498   3.546 -0.5495 -0.5679 -0.0414
11493TIP3    H155894   0.516   1.411   3.574  0.1925 -0.3553 -0.1250
11493TIP3    H255895   0.450   1.537   3.625  0.9523 -0.2105  0.5072
11494TIP3   OH255896   6.351   5.449   4.401 -0.4559  0.3698 -0.1150
11494TIP3    H155897   6.402   5.509   4.347 -1.2736  1.8690  0.7358
11494TIP3    H255898   6.261   5.481   4.396 -0.7272 -0.0895  1.2734
11495TIP3   OH255899   5.735   5.065   1.520  0.0028  0.3583 -0.1112
11495TIP3    H155900   5.751   5.121   1.444  0.5955  0.4420  0.0760
11495TIP3    H255901   5.739   5.124   1.595 -0.7163  0.2998 -0.0161
11496TIP3   OH255902   6.311   2.643  12.694 -0.1093 -0.5582  0.3215
11496TIP3    H155903   6.250   2.601  12.755 -0.1378 -1.6995 -0.4609
11496TIP3    H255904   6.254   2.682  12.627 -0.3281  3.5769  2.5801
11497TIP3   OH255905   2.054   1.788  15.817 -0.1835 -0.5118  0.2465
11497TIP3    H155906   2.117   1.855  15.845  1.2679 -0.4070 -2.8481
11497TIP3    H255907   2.104   1.707  15.816 -0.7473 -0.8597 -0.0601
11498TIP3   OH255908   2.550   6.244   3.095  0.4031 -0.0181  0.2689
11498TIP3    H155909   2.579   6.330   3.065  4.5301 -0.1854  2.9562
11498TIP3    H255910   2.462   6.258   3.129  0.1544  2.6183 -1.2295
11499TIP3   OH255911   6.490   3.629   1.378  0.2742 -0.0320 -0.5860
11499TIP3    H155912   6.513   3.714   1.416  0.0781 -0.1097 -0.2967
11499TIP3    H255913   6.406   3.644   1.334  0.7541  0.1951 -1.4556
11500TIP3   OH255914   6.675   2.164  12.361 -0.3632 -0.0945  0.3834
11500TIP3    H155915   6.737   2.164  12.434 -1.1348 -0.8969  1.0567
11500TIP3    H255916   6.712   2.100  12.299 -0.8506 -1.0779  1.0893
11501TIP3   OH255917   0.595   1.003  12.535 -0.1740 -0.4319 -0.3867
11501TIP3    H155918   0.682   1.033  12.560 -0.6637  1.3239 -0.6243
11501TIP3    H255919   0.539   1.032  12.607 -0.7781 -0.1661 -0.9527
11502TIP3   OH255920   0.607   4.112   0.216  0.0314  0.7849  0.2947
11502TIP3    H155921   0.604   4.166   0.137  0.7732 -0.5691 -0.6990
11502TIP3    H255922   0.600   4.022   0.184 -0.5065  0.2308  1.8483
11503TIP3   OH255923   2.703   2.425   1.660 -0.0504  0.1481 -0.2008
11503TIP3    H155924   2.729   2.511   1.626  1.7853 -0.5448 -0.6831
11503TIP3    H255925   2.677   2.441   1.750  1.0339  1.1123 -0.0361
11504TIP3   OH255926   0.696   4.614   2.380  0.2820 -0.6395  0.4457
11504TIP3    H155927   0.769   4.629   2.441  0.7967 -0.5903 -0.1649
11504TIP3    H255928   0.731   4.642   2.295 -0.1197 -1.5410 -0.0223
11505TIP3   OH255929   3.949   1.133  13.291  0.2985  0.0690  0.2371
11505TIP3    H155930   3.878   1.088  13.246  1.6479 -2.1223  0.1780
11505TIP3    H255931   4.011   1.155  13.222  1.2582 -1.1468  0.6768
11506TIP3   OH255932   0.251   5.893   5.828  0.1785 -0.3857 -0.3481
11506TIP3    H155933   0.213   5.834   5.893 -0.6306  0.1318 -0.3382
11506TIP3    H255934   0.312   5.838   5.779 -1.4748 -1.6041 -1.1625
11507TIP3   OH255935   2.199   3.357   0.021 -0.1967 -0.3768 -0.7172
11507TIP3    H155936   2.115   3.325  -0.010  0.1030  0.7744 -2.8931
11507TIP3    H255937   2.263   3.318  -0.038  0.3028  2.8524 -2.5416
11508TIP3   OH255938   3.009   0.483   2.468 -0.0014 -0.1552 -0.4071
11508TIP3    H155939   2.966   0.514   2.389  0.3941  1.0215 -0.1875
11508TIP3    H255940   3.062   0.558   2.497  0.0758 -0.6550  0.8094
11509TIP3   OH255941   6.491   4.126  16.072 -0.0969 -0.0889 -0.1628
11509TIP3    H155942   6.449   4.087  16.149 -0.3619 -1.5024 -0.9887
11509TIP3    H255943   6.580   4.145  16.101 -0.9858  2.1522  1.3502
11510TIP3   OH255944   6.201   0.721  17.320  0.1288  0.2744  0.2989
11510TIP3    H155945   6.261   0.668  17.268 -1.8386 -2.5362  0.7308
11510TIP3    H255946   6.137   0.754  17.257 -0.2886 -0.2425  0.4570
11511TIP3   OH255947   2.000   5.790  12.208  0.3316  0.0032  0.2794
11511TIP3    H155948   2.009   5.881  12.239  2.0496 -0.5757  1.6546
11511TIP3    H255949   2.060   5.785  12.133  0.0848  0.0377  0.0762
11512TIP3   OH255950   6.634   3.900  10.544  0.3567  0.3940  0.0493
11512TIP3    H155951   6.611   3.941  10.460  0.3191  1.1521  0.4149
11512TIP3    H255952   6.634   3.973  10.606 -0.7505 -0.3357  0.9463
11513TIP3   OH255953   0.597   5.988  17.318 -0.3541 -0.1643 -0.0087
11513TIP3    H155954   0.604   6.008  17.411 -0.5033  0.3524 -0.1046
11513TIP3    H255955   0.605   5.893  17.313  1.3929 -0.0649  0.3524
11514TIP3   OH255956   6.125   0.543   0.928 -0.0088  0.1573 -0.2431
11514TIP3    H155957   6.190   0.491   0.976  1.9082 -1.0190 -3.8082
11514TIP3    H255958   6.177   0.608   0.880 -1.9885  2.4101  0.4379
11515TIP3   OH255959   5.148   6.213   4.136  0.8398  0.1079 -0.0369
11515TIP3    H155960   5.197   6.294   4.122  0.8118  0.0322 -0.6014
11515TIP3    H255961   5.057   6.237   4.116  0.2153  0.8381  3.1278
11516TIP3   OH255962   0.202   3.805  13.180 -0.5864 -0.0848  0.4380
11516TIP3    H155963   0.116   3.835  13.212  0.4589  0.4068  3.0558
11516TIP3    H255964   0.213   3.719  13.219  0.1559 -0.1125  0.1734
11517TIP3   OH255965   5.573   4.066   1.528 -0.2512  0.0559 -0.1758
11517TIP3    H155966   5.569   3.974   1.552  0.0887  0.4063  1.3225
11517TIP3    H255967   5.496   4.106   1.569 -0.4360  0.4344 -0.8694
11518TIP3   OH255968   0.635   3.606   0.224  0.2398 -0.1067  1.1430
11518TIP3    H155969   0.602   3.557   0.149  1.2208 -0.2404  0.7856
11518TIP3    H255970   0.707   3.552   0.258  1.8814  1.3968  0.2515
11519TIP3   OH255971   1.482   2.135   4.547 -0.1610  0.4933 -0.0997
11519TIP3    H155972   1.492   2.045   4.517 -0.7083  0.2923  0.3009
11519TIP3    H255973   1.400   2.134   4.598 -1.0203  1.5553 -1.4011
11520TIP3   OH255974   2.061   4.200   6.966  0.3047 -0.1188 -0.4231
11520TIP3    H155975   1.970   4.216   6.942  0.8148  2.1515 -1.1241
11520TIP3    H255976   2.063   4.110   6.998 -2.6999  0.5269  2.0678
11521TIP3   OH255977   3.547   6.640  11.395 -0.1337  0.1773  0.1666
11521TIP3    H155978   3.490   6.701  11.442 -0.3814  1.2853 -1.5070
11521TIP3    H255979   3.537   6.557  11.443 -0.1693  1.2830  2.1864
11522TIP3   OH255980   5.937   5.702   2.180  1.1706  0.1660 -0.1851
11522TIP3    H155981   5.843   5.691   2.162  1.4631 -0.2147 -1.5759
11522TIP3    H255982   5.946   5.684   2.274  0.2175 -2.2102 -0.4930
11523TIP3   OH255983   4.094   1.138   0.932  0.0275  0.3439  0.2239
11523TIP3    H155984   4.173   1.174   0.973 -0.0165  1.4858 -0.6409
11523TIP3    H255985   4.054   1.213   0.888 -0.4045 -0.6529 -1.1462
11524TIP3   OH255986   4.382   6.253   0.482 -0.1908 -0.6037  0.2586
11524TIP3    H155987   4.449   6.311   0.519  0.9891 -1.5021 -0.4064
11524TIP3    H255988   4.311   6.312   0.456  0.2872  0.3595  1.0670
11525TIP3   OH255989   1.715   0.098   0.244  0.2521 -0.3934 -0.3228
11525TIP3    H155990   1.659   0.053   0.307 -1.3461  1.2981 -0.4767
11525TIP3    H255991   1.702   0.191   0.261  1.2866  0.0782 -1.8590
11526TIP3   OH255992   1.707   3.535   4.340  0.1279 -0.0617  0.2180
11526TIP3    H155993   1.663   3.574   4.265  1.6260 -0.0569 -0.6900
11526TIP3    H255994   1.781   3.594   4.358  1.0757 -1.2320  0.2874
11527TIP3   OH255995   6.111   6.264  10.622 -0.5132 -0.0088 -0.2077
11527TIP3    H155996   6.188   6.260  10.679 -2.1658 -1.2606  2.0953
11527TIP3    H255997   6.130   6.201  10.552  0.4926 -0.3993  0.3905
11528TIP3   OH255998   6.425   0.072  13.906 -0.2862 -0.2405 -0.2371
11528TIP3    H155999   6.511   0.089  13.945  0.9136 -0.5001 -2.5869
11528TIP3    H256000   6.403   0.153  13.859 -0.9692 -0.4325 -0.2593
11529TIP3   OH256001   4.456   2.770   5.609 -0.3000  0.1548 -0.0506
11529TIP3    H156002   4.384   2.813   5.562 -1.1854 -0.1309  1.0118
11529TIP3    H256003   4.431   2.678   5.613  0.6565 -0.1390 -0.6118
11530TIP3   OH256004   6.332   2.562  11.032  0.1909  0.2821  0.0998
11530TIP3    H156005   6.350   2.473  11.061 -0.3824  0.0493 -0.2430
11530TIP3    H256006   6.239   2.562  11.012 -0.4351  1.6984  2.6624
11531TIP3   OH256007   6.176   0.122  11.242 -0.3574  0.1057  0.5908
11531TIP3    H156008   6.121   0.142  11.166 -1.0107  0.0183  1.0280
11531TIP3    H256009   6.244   0.064  11.208 -0.6952 -0.0007  0.0894
11532TIP3   OH256010   6.344   0.013  16.296  0.6607 -0.2286 -0.3294
11532TIP3    H156011   6.315   0.014  16.387  1.3968  1.6093 -0.0656
11532TIP3    H256012   6.267  -0.015  16.247  0.0137 -0.4560  0.7866
11533TIP3   OH256013   5.478   2.097   2.492  0.0261  0.7256 -0.3207
11533TIP3    H156014   5.423   2.019   2.500  0.7590  0.2744  0.5003
11533TIP3    H256015   5.566   2.064   2.478 -0.1267  1.4400 -3.9748
11534TIP3   OH256016   0.691   4.162  16.847 -0.6160 -0.4013  0.0737
11534TIP3    H156017   0.634   4.171  16.923 -0.4892 -0.0351  0.1276
11534TIP3    H256018   0.756   4.096  16.873 -0.1032  0.2806  0.5768
11535TIP3   OH256019   3.303   1.871  12.354 -0.1902 -0.1559  0.7144
11535TIP3    H156020   3.371   1.933  12.330  0.0334  0.0408  1.8297
11535TIP3    H256021   3.349   1.788  12.367 -0.0461  0.1256  2.1181
11536TIP3   OH256022   2.704   4.101   4.455  0.3852 -0.3898 -0.9578
11536TIP3    H156023   2.799   4.110   4.448  0.2168  2.0340 -0.7355
11536TIP3    H256024   2.685   4.112   4.548 -0.0194 -2.5503 -0.7285
11537TIP3   OH256025   4.435   5.475   5.970 -0.6602 -0.1737 -0.0482
11537TIP3    H156026   4.355   5.499   6.016 -0.9310 -1.2762  0.0841
11537TIP3    H256027   4.409   5.467   5.878 -1.1279 -2.2261  0.2230
11538TIP3   OH256028   6.216   5.579  15.985 -0.0721 -0.1555  0.1021
11538TIP3    H156029   6.249   5.667  16.004 -1.4135  0.1009  1.3920
11538TIP3    H256030   6.147   5.593  15.920  1.4003 -0.5630 -1.6326
11539TIP3   OH256031   3.099   6.297  11.268  0.0056  0.3411 -0.0365
11539TIP3    H156032   3.016   6.332  11.237 -0.2613  0.9266  1.2760
11539TIP3    H256033   3.165   6.340  11.214 -0.4815  0.7796 -0.2910
11540TIP3   OH256034   2.815   4.108   1.831  0.0947 -0.1976 -0.8324
11540TIP3    H156035   2.908   4.085   1.821  0.0476 -1.3574  0.9153
11540TIP3    H256036   2.784   4.052   1.903 -1.6623  1.0190 -0.5762
11541TIP3   OH256037   0.001   3.498  12.715  0.2522 -0.2400  0.0299
11541TIP3    H156038   0.070   3.493  12.649  0.4790  1.1347  0.1491
11541TIP3    H256039  -0.040   3.583  12.702  0.0386 -0.1052  1.3999
11542TIP3   OH256040   3.589   3.621   1.396  0.5839 -0.4676  0.0079
11542TIP3    H156041   3.655   3.677   1.437 -0.0784  1.3760 -1.3278
11542TIP3    H256042   3.620   3.608   1.307 -0.2437 -0.6346 -0.2605
11543TIP3   OH256043   2.948   5.942   0.441  0.0383  0.2289 -0.5634
11543TIP3    H156044   3.028   5.994   0.438  0.4445 -0.3372  0.1356
11543TIP3    H256045   2.949   5.892   0.359  0.4613  0.1316 -0.4998
11544TIP3   OH256046   0.920   2.637  10.645 -0.2873  0.2936  0.3091
11544TIP3    H156047   0.963   2.621  10.561 -1.3324  0.6354 -0.3222
11544TIP3    H256048   0.828   2.654  10.622 -0.5303  0.7303  1.4931
11545TIP3   OH256049   0.431   2.463  12.672 -0.1514  0.6579 -0.3296
11545TIP3    H156050   0.475   2.494  12.752 -1.0934  0.4562  0.2896
11545TIP3    H256051   0.390   2.542  12.635 -1.0531  0.4987  0.2776
11546TIP3   OH256052   1.624   1.281   0.118  0.6783 -0.0214 -0.4697
11546TIP3    H156053   1.605   1.222   0.191  1.1210  0.2999 -0.0955
11546TIP3    H256054   1.675   1.352   0.156  1.0646  0.0602 -1.1273
11547TIP3   OH256055   6.734   6.298   1.887 -0.2372  0.4893  0.2819
11547TIP3    H156056   6.664   6.270   1.829 -0.3753  0.5527  0.4186
11547TIP3    H256057   6.731   6.394   1.885  0.9775  0.5333 -1.1009
11548TIP3   OH256058   5.731   3.102   1.003  0.6557  0.9384  0.2793
11548TIP3    H156059   5.651   3.052   1.021 -0.2542  2.2046 -0.0318
11548TIP3    H256060   5.731   3.114   0.908  2.1958 -0.5541  0.0464
11549TIP3   OH256061   0.017   4.214   2.561  0.2321 -0.2377  0.6584
11549TIP3    H156062   0.015   4.123   2.530 -0.9193  0.0058 -0.0287
11549TIP3    H256063  -0.031   4.212   2.643 -1.1821 -0.0015 -0.1284
11550TIP3   OH256064   3.314   1.880  14.325  0.5152  0.3258 -0.1313
11550TIP3    H156065   3.316   1.786  14.307  0.2333  0.1842  0.5288
11550TIP3    H256066   3.399   1.912  14.294  1.5433 -0.5459  1.5973
11551TIP3   OH256067   2.631   6.070  17.220  0.1011  0.0512 -0.4991
11551TIP3    H156068   2.574   6.065  17.297  1.5728  1.4028  0.7679
11551TIP3    H256069   2.641   5.979  17.192 -1.0976 -0.4042  0.4220
11552TIP3   OH256070   2.564   6.709  13.213 -0.1915  0.1424 -0.3962
11552TIP3    H156071   2.534   6.798  13.196  0.2729  0.1162 -1.4340
11552TIP3    H256072   2.657   6.710  13.190 -0.2408 -0.6737 -0.6708
11553TIP3   OH256073   5.517   3.987  14.234  0.3320 -0.3768  0.7297
11553TIP3    H156074   5.538   3.917  14.296  0.7901 -0.2247  0.7535
11553TIP3    H256075   5.594   4.044  14.236 -0.4202  0.6556  1.4263
11554TIP3   OH256076   5.129   4.367  11.436  0.3977  0.1561 -0.4768
11554TIP3    H156077   5.164   4.355  11.524  0.3889  0.2797 -0.4559
11554TIP3    H256078   5.046   4.413  11.450  0.9322  1.1935 -0.6228
11555TIP3   OH256079   1.476   5.260   0.234  0.0825 -0.1259  0.3572
11555TIP3    H156080   1.440   5.348   0.217 -0.5853 -0.5969 -0.7836
11555TIP3    H256081   1.541   5.247   0.165  0.3570 -0.4318  0.6716
11556TIP3   OH256082   0.234   3.528  14.698 -0.7752 -0.0267  0.3549
11556TIP3    H156083   0.234   3.494  14.787  1.0338 -0.3772  0.2528
11556TIP3    H256084   0.321   3.565  14.685 -0.7148 -0.6933 -1.5282
11557TIP3   OH256085   4.149   5.112   5.039 -0.2678  1.1903 -0.0628
11557TIP3    H156086   4.200   5.191   5.057  2.0408 -0.8263  3.2753
11557TIP3    H256087   4.109   5.090   5.123 -0.0303 -1.7070 -0.6175
11558TIP3   OH256088   4.759   3.772  12.476  0.5163  0.4510 -0.0802
11558TIP3    H156089   4.732   3.860  12.504 -0.7427  0.0297  0.0752
11558TIP3    H256090   4.677   3.727  12.454  0.8746 -1.4908  2.1389
11559TIP3   OH256091   0.004   2.158   3.844  0.2036  0.4925 -0.2748
11559TIP3    H156092   0.066   2.220   3.809 -0.1709  0.7307 -0.5229
11559TIP3    H256093  -0.072   2.164   3.786 -1.3590  2.5481  1.8187
11560TIP3   OH256094   6.161   3.553  17.140  1.0108 -0.1185  0.2977
11560TIP3    H156095   6.124   3.585  17.058 -1.6515 -0.4044  1.2879
11560TIP3    H256096   6.165   3.458  17.129 -0.6113 -0.2873  0.9166
11561TIP3   OH256097   1.856   0.755   0.211  0.1185 -0.0987  0.2091
11561TIP3    H156098   1.867   0.687   0.277  2.9409  0.7981  0.8133
11561TIP3    H256099   1.880   0.712   0.129 -1.1570 -0.6100  0.0857
11562TIP3   OH256100   2.984   4.432   0.937 -0.1009 -0.3732  0.5507
11562TIP3    H156101   2.899   4.437   0.894 -0.1181  0.8647  0.6731
11562TIP3    H256102   2.990   4.342   0.969  0.3241 -1.6930 -2.7920
11563TIP3   OH256103   1.899   5.044   1.689  0.1943  0.0144  0.5217
11563TIP3    H156104   1.864   5.037   1.778  1.4201 -0.5876  0.9905
11563TIP3    H256105   1.962   4.972   1.683 -1.1239 -1.0467 -1.4616
11564TIP3   OH256106   6.106   1.843   1.188  0.2270  0.5766  0.3428
11564TIP3    H156107   6.059   1.765   1.157  0.0179  0.8034  0.0782
11564TIP3    H256108   6.037   1.909   1.199  0.4596  0.8512  0.1447
11565TIP3   OH256109   2.165   3.559   3.774  0.1304 -0.4524  0.0611
11565TIP3    H156110   2.232   3.490   3.775 -0.2171 -0.8745 -1.9074
11565TIP3    H256111   2.106   3.536   3.846  1.9187 -0.1999  1.6965
11566TIP3   OH256112   1.388   0.628   2.138  0.0229  0.8519  0.1475
11566TIP3    H156113   1.326   0.618   2.210 -0.6337  0.6802 -0.4310
11566TIP3    H256114   1.367   0.558   2.078 -0.2002  1.6767 -0.7590
11567TIP3   OH256115   2.495   6.072   2.902 -0.0279 -0.2503 -0.2195
11567TIP3    H156116   2.516   6.121   2.981 -1.2566  1.5526 -0.9115
11567TIP3    H256117   2.508   5.980   2.925 -1.4616  0.1151  2.4512
11568TIP3   OH256118   4.958   0.336  15.644 -0.3486  0.3928  0.6601
11568TIP3    H156119   5.038   0.295  15.612  0.0220  0.6028  1.2961
11568TIP3    H256120   4.975   0.430  15.639 -1.7344  0.6063 -2.2084
11569TIP3   OH256121   5.559   5.451  12.658  0.2587  0.6948  0.1978
11569TIP3    H156122   5.527   5.539  12.639 -2.8203 -0.2709  0.3859
11569TIP3    H256123   5.544   5.439  12.752 -1.6167 -0.7949 -0.2391
11570TIP3   OH256124   1.753   3.068  12.396  0.3668 -0.2847  0.0193
11570TIP3    H156125   1.811   2.994  12.414 -0.2097 -0.9280 -0.7084
11570TIP3    H256126   1.811   3.145  12.395  1.5485 -1.0967 -2.4876
11571TIP3   OH256127   1.631   3.416  16.781 -0.0283  0.0015 -0.4818
11571TIP3    H156128   1.587   3.403  16.697  1.4207 -0.0966 -1.2622
11571TIP3    H256129   1.562   3.405  16.847 -1.6298  2.0693 -1.7070
11572TIP3   OH256130   6.715   4.937  10.720  0.2998  0.0437 -0.0953
11572TIP3    H156131   6.652   4.898  10.781  2.5499 -2.4088  0.8763
11572TIP3    H256132   6.720   4.874  10.648 -1.1732  2.1563 -2.1744
11573TIP3   OH256133   0.545   5.146   5.648 -0.1258 -0.0705  0.3670
11573TIP3    H156134   0.631   5.186   5.655  0.6069 -1.3556 -0.9475
11573TIP3    H256135   0.484   5.220   5.658  0.9548  0.5393  4.0147
11574TIP3   OH256136   0.018   5.863  16.396 -0.0122 -0.1544 -0.0429
11574TIP3    H156137   0.113   5.872  16.405  0.0674 -1.0969  0.1155
11574TIP3    H256138  -0.018   5.937  16.445  0.6684  1.9951 -2.4907
11575TIP3   OH256139   5.827   0.371  16.269  0.1213  0.2510  0.1537
11575TIP3    H156140   5.831   0.440  16.335 -0.3836 -0.1660  0.6214
11575TIP3    H256141   5.910   0.379  16.221  0.7572  0.1602  1.2210
11576TIP3   OH256142   2.691   4.297  12.743 -0.2393  0.1357 -0.2428
11576TIP3    H156143   2.777   4.260  12.724  1.7049  2.9890  2.1529
11576TIP3    H256144   2.660   4.248  12.820  0.5169  0.8249  0.5195
11577TIP3   OH256145   2.869   0.177   0.336 -0.7368  0.0671 -0.0032
11577TIP3    H156146   2.848   0.107   0.398  0.9530 -0.5604 -0.0669
11577TIP3    H256147   2.838   0.144   0.251  0.1674 -0.7001 -0.0562
11578TIP3   OH256148   3.121   0.997   4.112 -0.3153 -0.5172 -0.4314
11578TIP3    H156149   3.112   0.905   4.139 -0.5899  0.2128  2.2523
11578TIP3    H256150   3.216   1.013   4.116 -0.2750 -0.6353 -0.8198
11579TIP3   OH256151   4.487   1.079  15.092 -0.2012 -0.5488 -0.0449
11579TIP3    H156152   4.456   1.103  15.004  0.2148  2.5301  0.5100
11579TIP3    H256153   4.407   1.074  15.145 -0.2718  0.6131 -0.0139
11580TIP3   OH256154   6.160   6.239  11.749 -0.1992 -0.2807 -0.0401
11580TIP3    H156155   6.091   6.276  11.693  1.0978  1.1526 -0.7397
11580TIP3    H256156   6.162   6.146  11.724 -0.2747  0.1318 -1.7349
11581TIP3   OH256157   2.362   4.446  14.247 -0.2208 -0.1127  1.0630
11581TIP3    H156158   2.364   4.391  14.169  3.2890  0.5742  0.5139
11581TIP3    H256159   2.404   4.394  14.315 -3.5090 -0.8233  2.7421
11582TIP3   OH256160   3.635   4.991  15.700 -0.1336 -0.6665 -0.0307
11582TIP3    H156161   3.555   4.993  15.648  0.0810  0.0474 -0.3490
11582TIP3    H256162   3.668   4.902  15.689 -0.0513 -0.5112 -1.1969
11583TIP3   OH256163   4.087   4.500   4.556 -0.1033 -0.0806 -0.1454
11583TIP3    H156164   4.179   4.521   4.572 -0.0902 -0.1270 -0.1598
11583TIP3    H256165   4.078   4.503   4.461 -0.2957  0.6707 -0.1033
11584TIP3   OH256166   0.996   6.348  12.454 -0.0744  0.2057 -0.7361
11584TIP3    H156167   0.944   6.331  12.533 -0.4749  1.9793 -0.5891
11584TIP3    H256168   1.086   6.356  12.486  0.3330 -2.4202 -0.9373
11585TIP3   OH256169   6.338   2.293  12.545  0.1434  0.0643  0.0761
11585TIP3    H156170   6.292   2.224  12.593 -1.0428  0.6050 -0.2520
11585TIP3    H256171   6.408   2.321  12.605  0.5617 -1.3167  0.2657
11586TIP3   OH256172   1.692   5.180   2.226 -0.1220  0.2445  0.0392
11586TIP3    H156173   1.633   5.164   2.152  0.7223  1.2544 -0.8810
11586TIP3    H256174   1.687   5.274   2.240  1.2467  0.3434 -0.0374
11587TIP3   OH256175   6.332   1.155   2.581 -0.5315 -0.8669  0.4648
11587TIP3    H156176   6.300   1.099   2.652  0.0000  0.1152  1.5172
11587TIP3    H256177   6.427   1.138   2.578 -0.4074 -0.2093  0.6277
11588TIP3   OH256178   4.826   2.699  14.798 -0.1000 -0.2611 -0.3197
11588TIP3    H156179   4.741   2.725  14.836 -0.5186  1.6640 -2.3736
11588TIP3    H256180   4.818   2.605  14.784 -1.3653 -0.3528  0.7919
11589TIP3   OH256181   6.174   0.242  15.580  0.3177 -0.1328 -0.6081
11589TIP3    H156182   6.195   0.324  15.535 -0.2057 -0.4647 -1.5004
11589TIP3    H256183   6.094   0.261  15.629  0.0870 -0.1572 -0.9714
11590TIP3   OH256184   6.454   3.976  12.907  0.2660 -0.1172  0.1314
11590TIP3    H156185   6.383   4.038  12.887 -0.6531 -1.6973 -1.9117
11590TIP3    H256186   6.421   3.923  12.979 -0.6983 -0.8661 -0.8337
11591TIP3   OH256187   1.031   4.656  14.049 -0.3959 -0.4174  0.2749
11591TIP3    H156188   0.941   4.630  14.070 -0.6662  0.0032 -0.3170
11591TIP3    H256189   1.081   4.635  14.127 -0.5497 -2.9128 -0.2251
11592TIP3   OH256190   0.055   4.444  11.801 -0.3692 -0.3477  0.3963
11592TIP3    H156191  -0.037   4.450  11.774 -0.1569  0.4963 -0.1525
11592TIP3    H256192   0.063   4.507  11.872 -0.1548 -0.2429  0.2782
11593TIP3   OH256193   3.394   0.087  16.108 -0.1120  0.0515  0.7475
11593TIP3    H156194   3.301   0.072  16.127 -0.1498 -1.7078 -0.5828
11593TIP3    H256195   3.440   0.022  16.162  0.1583 -0.6765 -0.3100
11594TIP3   OH256196   2.673   3.347   3.104  0.2033  0.3063 -0.5810
11594TIP3    H156197   2.682   3.266   3.154 -1.1539 -0.2774 -1.2084
11594TIP3    H256198   2.757   3.358   3.059  0.1736 -1.1695 -1.0574
11595TIP3   OH256199   0.528   6.446  10.552 -0.5166 -0.2680 -0.2000
11595TIP3    H156200   0.565   6.405  10.631 -1.6777  0.7341  0.9153
11595TIP3    H256201   0.446   6.398  10.538  0.2277 -1.2165 -1.5307
11596TIP3   OH256202   1.601   6.651  11.594  0.6558 -0.2858  0.6266
11596TIP3    H156203   1.583   6.584  11.528  0.4133 -0.3209  0.7291
11596TIP3    H256204   1.543   6.630  11.666 -0.2861  0.7347  0.1900
11597TIP3   OH256205   2.067   4.527  12.081  0.3370  0.1743 -0.1240
11597TIP3    H156206   2.108   4.610  12.056 -1.9293  0.8577 -1.8545
11597TIP3    H256207   1.997   4.552  12.141 -1.6830 -0.1686 -2.2225
11598TIP3   OH256208   4.058   1.263  17.271 -0.6929 -0.2947 -0.4825
11598TIP3    H156209   4.049   1.332  17.336  0.2352  0.0614 -0.7121
11598TIP3    H256210   4.131   1.209  17.302 -2.4807 -2.2578  0.6219
11599TIP3   OH256211   6.681   2.010   3.579 -0.9982 -0.0500 -0.4983
11599TIP3    H156212   6.741   2.054   3.519 -1.7692  2.6644  0.5783
11599TIP3    H256213   6.594   2.024   3.541 -1.2337 -1.2394 -0.4415
11600TIP3   OH256214   4.138   3.216  11.942 -0.4096  0.0813  0.8235
11600TIP3    H156215   4.230   3.241  11.944 -0.9106  2.2872  0.1676
11600TIP3    H256216   4.137   3.124  11.916  1.5589  0.5595 -1.2142
11601TIP3   OH256217   6.506   3.168   5.867 -0.4029 -0.3771 -0.7638
11601TIP3    H156218   6.524   3.074   5.865  1.7977 -0.0230 -3.2385
11601TIP3    H256219   6.452   3.184   5.790 -2.0158  0.2529  0.4364
11602TIP3   OH256220   4.361   5.754   5.679  0.0029 -0.3062 -0.4630
11602TIP3    H156221   4.358   5.800   5.763 -0.1010 -1.2263  0.0476
11602TIP3    H256222   4.453   5.755   5.654 -0.0096  0.2360 -0.4933
11603TIP3   OH256223   1.968   2.932   3.439 -0.0532  0.2537  0.3756
11603TIP3    H156224   2.013   2.975   3.366 -1.7644 -1.1922 -1.6231
11603TIP3    H256225   1.969   2.839   3.417 -2.1918 -0.0383  1.2586
11604TIP3   OH256226   3.848   2.568  15.547  0.3880  0.1840 -0.2034
11604TIP3    H156227   3.865   2.560  15.641  1.1463  0.1162 -0.3414
11604TIP3    H256228   3.923   2.617  15.514  0.5994 -0.6190 -0.9290
11605TIP3   OH256229   4.560   1.915  11.577  0.0263 -0.4133  0.1929
11605TIP3    H156230   4.521   1.832  11.606  2.3492 -1.6909 -0.0889
11605TIP3    H256231   4.601   1.951  11.655 -0.0847 -0.0635  0.0909
11606TIP3   OH256232   6.260   1.092   5.099  0.1582 -0.3022 -0.1248
11606TIP3    H156233   6.272   1.185   5.083  1.5500 -0.4620 -0.1368
11606TIP3    H256234   6.344   1.052   5.076  0.1187 -1.3558  1.4267
11607TIP3   OH256235   4.660   5.661   1.814  0.2168 -0.0776 -0.0302
11607TIP3    H156236   4.592   5.600   1.786  0.6460  0.0436 -1.3922
11607TIP3    H256237   4.729   5.653   1.748  1.4703 -0.0821  1.2308
11608TIP3   OH256238   1.773   5.665   4.665  0.5161 -0.3010 -0.4444
11608TIP3    H156239   1.751   5.734   4.727  2.2194 -0.5071  0.4424
11608TIP3    H256240   1.694   5.610   4.662 -0.4082  0.9744 -0.2252
11609TIP3   OH256241   3.022   1.249   0.899  0.1965 -0.1146 -0.3499
11609TIP3    H156242   3.080   1.278   0.969 -0.3071  1.2357 -0.4598
11609TIP3    H256243   2.966   1.184   0.940 -0.1776  0.7537  0.5628
11610TIP3   OH256244   2.311   1.740  17.098  0.2053  0.2378 -0.1845
11610TIP3    H156245   2.342   1.813  17.045  0.0538 -0.9421 -1.9981
11610TIP3    H256246   2.389   1.687  17.113 -0.0947 -0.4584 -0.9845
11611TIP3   OH256247   1.765   1.091  16.150 -0.5989  0.3433 -0.1312
11611TIP3    H156248   1.687   1.036  16.159 -0.6384 -0.2698 -3.2084
11611TIP3    H256249   1.814   1.076  16.231 -1.1322 -3.4333 -0.3224
11612TIP3   OH256250   5.767   2.466   1.350 -0.9149 -0.4364  0.3466
11612TIP3    H156251   5.672   2.469   1.356 -1.0012 -2.1310  0.4732
11612TIP3    H256252   5.790   2.379   1.383  0.7652  0.3222  1.3406
11613TIP3   OH256253   1.370   4.450  13.223 -0.1722  0.4863 -0.1892
11613TIP3    H156254   1.296   4.484  13.174 -1.3706 -1.6795  0.0130
11613TIP3    H256255   1.337   4.440  13.312  0.6429  0.2723  0.0996
11614TIP3   OH256256   5.456   2.921  15.793 -0.2455  0.2642  0.6283
11614TIP3    H156257   5.394   2.887  15.728 -0.0201 -0.2194  0.6593
11614TIP3    H256258   5.518   2.972  15.742 -0.1298 -0.0267  0.4747
11615TIP3   OH256259   6.757   3.241   4.026  0.5526 -0.1749 -0.5457
11615TIP3    H156260   6.844   3.265   3.995  0.7115  1.0876  0.7889
11615TIP3    H256261   6.705   3.321   4.017 -0.1833 -0.6211 -0.3559
11616TIP3   OH256262   4.645   1.942  14.581 -0.0512  0.0375  0.0524
11616TIP3    H156263   4.635   1.930  14.675 -0.8630  0.4074  0.0161
11616TIP3    H256264   4.717   2.005  14.572 -0.2233  0.2860  0.4303
11617TIP3   OH256265   5.712   4.514  12.865 -0.0159  0.4701  0.1477
11617TIP3    H156266   5.663   4.499  12.946  0.2575  0.1045  0.2471
11617TIP3    H256267   5.649   4.497  12.796  0.6394 -2.7582  0.1920
11618TIP3   OH256268   0.564   0.825   2.591  0.0598 -0.0573  0.1989
11618TIP3    H156269   0.474   0.790   2.590  0.2819 -0.6342 -0.1972
11618TIP3    H256270   0.568   0.882   2.515  0.3045 -0.7576 -0.3191
11619TIP3   OH256271   2.728   6.355  11.409  0.4612 -0.4415 -0.4286
11619TIP3    H156272   2.785   6.360  11.486  0.2980 -3.8278  0.0337
11619TIP3    H256273   2.664   6.288  11.431  0.2706 -1.3623 -3.4371
11620TIP3   OH256274   1.128   5.857   1.731  0.3448  0.5876  0.4447
11620TIP3    H156275   1.111   5.850   1.637 -0.8610  2.2557  0.4912
11620TIP3    H256276   1.073   5.789   1.770  0.3256  0.3430 -0.0044
11621TIP3   OH256277   1.574   2.489   4.929  0.1272  0.2464  0.0814
11621TIP3    H156278   1.563   2.397   4.953  0.2534  0.0760 -0.5174
11621TIP3    H256279   1.666   2.497   4.904  0.3591  0.7504  1.0388
11622TIP3   OH256280   5.248   0.726   4.793 -0.1096 -1.2628  0.3208
11622TIP3    H156281   5.306   0.676   4.851  0.7837  1.0551  1.5324
11622TIP3    H256282   5.175   0.752   4.849  0.0828 -0.1517  0.0746
11623TIP3   OH256283   3.061   1.844   5.376  0.0933  0.0317  0.1825
11623TIP3    H156284   2.991   1.906   5.397 -0.6805 -0.9812  0.6434
11623TIP3    H256285   3.056   1.777   5.445  3.3580  1.3712  1.9902
11624TIP3   OH256286   4.976   1.940   3.292 -0.0208  0.4544  0.2037
11624TIP3    H156287   5.071   1.941   3.302 -0.0189  1.5442  0.1520
11624TIP3    H256288   4.945   1.891   3.368  0.4407  2.2545  1.6218
11625TIP3   OH256289   2.831   5.443   3.521  0.5705  0.1011  0.8340
11625TIP3    H156290   2.797   5.374   3.465 -0.6170  0.4849  1.0500
11625TIP3    H256291   2.759   5.464   3.580  0.7348  1.8270  0.4853
11626TIP3   OH256292   3.303   2.679  12.230 -0.0306  0.0021 -0.1293
11626TIP3    H156293   3.379   2.705  12.282 -0.2071  0.3021 -0.0177
11626TIP3    H256294   3.303   2.740  12.156  0.6668 -0.9122 -0.9065
11627TIP3   OH256295   4.217   5.999   1.028  0.6382 -0.0499 -0.0547
11627TIP3    H156296   4.222   5.961   1.116  2.3659  2.5763  1.0837
11627TIP3    H256297   4.235   5.925   0.970 -0.3275 -1.8138  1.7482
11628TIP3   OH256298   1.878   5.950   5.027 -0.1323  0.2999  0.0467
11628TIP3    H156299   1.861   6.043   5.045  0.2478  0.7310 -1.6864
11628TIP3    H256300   1.939   5.924   5.095 -0.1437  1.3543  0.4890
11629TIP3   OH256301   5.985   1.103   4.921  0.6178  1.0594 -0.0014
11629TIP3    H156302   6.020   1.057   4.844 -0.6994 -0.3850  0.1949
11629TIP3    H256303   6.058   1.154   4.954  0.9770  2.5896 -2.8199
11630TIP3   OH256304   1.704   4.389   0.363 -0.4844 -0.1862  0.4183
11630TIP3    H156305   1.674   4.437   0.440  0.5030  2.4159 -0.6804
11630TIP3    H256306   1.799   4.387   0.371 -0.3690  0.1020 -0.6958
11631TIP3   OH256307   3.748   6.613  13.001 -0.3211 -0.0709 -0.5936
11631TIP3    H156308   3.704   6.529  13.015 -0.7511 -0.2930 -2.7919
11631TIP3    H256309   3.822   6.612  13.061 -2.0596 -0.6237  1.6779
11632TIP3   OH256310   0.923   3.770  16.704 -0.2435 -0.4229  0.4216
11632TIP3    H156311   0.887   3.729  16.783 -2.5906 -0.5164 -0.6259
11632TIP3    H256312   0.888   3.718  16.632  0.0423  0.9735 -0.7735
11633TIP3   OH256313   3.370   3.118  17.273  0.0800  0.4660 -0.3492
11633TIP3    H156314   3.310   3.141  17.202  0.5529 -1.1221 -1.2995
11633TIP3    H256315   3.456   3.145  17.242  0.2296  0.1828 -0.1829
11634TIP3   OH256316   5.904   0.450   1.443  0.2741  0.3931  0.1789
11634TIP3    H156317   5.835   0.514   1.425  0.3005  0.0967 -1.0505
11634TIP3    H256318   5.857   0.369   1.462  0.2515  0.0202 -1.3150
11635TIP3   OH256319   2.085   1.673   4.807  0.0132  0.1905  0.5394
11635TIP3    H156320   2.031   1.724   4.746  0.4927 -0.1430 -0.1632
11635TIP3    H256321   2.175   1.686   4.777  0.1376 -1.1771  0.2508
11636TIP3   OH256322   2.275   3.138  15.010 -0.1827 -0.3384  0.1086
11636TIP3    H156323   2.340   3.089  15.060  0.6175  1.4767  0.9560
11636TIP3    H256324   2.250   3.210  15.068 -1.4348  0.1617 -0.9972
11637TIP3   OH256325   2.944   5.535   0.700 -0.3265  0.3188 -0.6877
11637TIP3    H156326   2.850   5.524   0.715 -0.2192  0.1614 -0.1046
11637TIP3    H256327   2.985   5.499   0.779  0.2928 -1.2459 -1.6779
11638TIP3   OH256328   1.493   5.454  14.098  0.1026  0.3726  0.1583
11638TIP3    H156329   1.446   5.508  14.035 -0.9663  3.7109  3.4465
11638TIP3    H256330   1.441   5.373  14.104 -1.1253  0.9932 -1.3715
11639TIP3   OH256331   0.012   4.016  12.705  0.3106  0.3998  0.4275
11639TIP3    H156332   0.096   4.015  12.750  0.1879 -0.9938  0.6670
11639TIP3    H256333   0.032   3.982  12.617  0.2576  1.5466 -0.0458
11640TIP3   OH256334   2.057   0.219   5.942  0.4091 -0.0109  0.0089
11640TIP3    H156335   2.118   0.291   5.961 -0.4489  0.8920 -0.5147
11640TIP3    H256336   1.998   0.255   5.875  1.1331 -1.8439 -1.7217
11641TIP3   OH256337   0.240   3.138   4.828 -0.5139 -0.0636  0.8434
11641TIP3    H156338   0.208   3.107   4.913 -2.9008  1.0224  0.4071
11641TIP3    H256339   0.251   3.232   4.839 -0.1358 -0.0234  0.1506
11642TIP3   OH256340   3.499   6.647  16.287  0.0405  0.1297 -0.4170
11642TIP3    H156341   3.426   6.586  16.277  1.0711 -0.8746 -2.5002
11642TIP3    H256342   3.485   6.689  16.371 -1.0128 -2.6221  0.8799
11643TIP3   OH256343   1.351   4.298  16.205  0.2065 -0.1027 -0.7294
11643TIP3    H156344   1.352   4.393  16.216  2.4446 -0.1668  0.1209
11643TIP3    H256345   1.430   4.268  16.250 -1.1438 -2.5150  0.1893
11644TIP3   OH256346   6.344   4.061   4.412  0.0879  0.0712  0.0666
11644TIP3    H156347   6.263   4.017   4.439  0.5670 -0.7374  0.2101
11644TIP3    H256348   6.327   4.089   4.322 -0.1873 -0.5080 -0.0671
11645TIP3   OH256349   0.346   5.953   3.747 -0.4325 -0.3164 -0.0712
11645TIP3    H156350   0.442   5.951   3.749 -0.4243 -1.8051  2.4897
11645TIP3    H256351   0.324   5.937   3.655  1.8046 -4.1962 -0.1646
11646TIP3   OH256352   4.508   4.824   1.977  0.2556 -0.8441 -0.5300
11646TIP3    H156353   4.430   4.837   1.923 -1.3758 -0.6605  1.7577
11646TIP3    H256354   4.560   4.904   1.963  0.4522 -1.2933 -2.6499
11647TIP3   OH256355   2.526   3.927  17.280 -0.0825 -0.3572  0.1944
11647TIP3    H156356   2.457   3.889  17.226  1.2808 -0.8720 -1.2220
11647TIP3    H256357   2.603   3.872  17.265  0.7947  0.5037  1.3415
11648TIP3   OH256358   5.651   2.849   4.182  0.0115 -0.4251 -0.1201
11648TIP3    H156359   5.686   2.795   4.253  0.7171 -0.4948 -0.5121
11648TIP3    H256360   5.632   2.788   4.111 -2.1956 -0.5747  0.5385
11649TIP3   OH256361   5.729   3.901  12.795 -0.3807  0.2593  0.3664
11649TIP3    H156362   5.719   3.852  12.713 -0.4366  0.5383  0.2014
11649TIP3    H256363   5.646   3.949  12.804 -0.3535  0.2684  0.5574
11650TIP3   OH256364   0.316   6.745   6.564  0.1075 -0.7189  0.0800
11650TIP3    H156365   0.260   6.720   6.491  0.8502  1.7323 -1.4470
11650TIP3    H256366   0.394   6.690   6.554  0.6426  0.2930 -1.6466
11651TIP3   OH256367   5.605   4.380  13.760  0.2869  0.6446  0.1443
11651TIP3    H156368   5.690   4.417  13.737 -0.1498  0.4920 -1.8173
11651TIP3    H256369   5.545   4.454  13.758  0.3707  0.8092  1.8200
11652TIP3   OH256370   1.005   5.795  14.405 -0.4548 -0.2437 -0.9415
11652TIP3    H156371   1.015   5.736  14.480 -0.4699  1.9877  0.9090
11652TIP3    H256372   1.095   5.814  14.378 -0.2207  1.8456  0.9973
11653TIP3   OH256373   3.999   5.536  16.876  0.1562 -0.0909 -0.1470
11653TIP3    H156374   3.969   5.627  16.880  0.9659  0.2900 -1.8783
11653TIP3    H256375   3.961   5.501  16.796  3.7601  0.2778 -2.2207
11654TIP3   OH256376   2.450   2.596  15.158 -0.1608  0.4854  0.1895
11654TIP3    H156377   2.504   2.523  15.188 -0.4218 -0.3605 -1.2729
11654TIP3    H256378   2.404   2.562  15.081 -1.3207  1.7821  0.2590
11655TIP3   OH256379   6.185   2.455   4.262  0.1058 -0.0104 -0.2867
11655TIP3    H156380   6.174   2.422   4.173 -1.9343  1.9699 -0.8763
11655TIP3    H256381   6.096   2.463   4.295  0.7074  1.2714  1.1420
11656TIP3   OH256382   2.964   1.284   1.933 -0.0534 -0.6333 -0.5279
11656TIP3    H156383   3.000   1.337   1.862 -0.1371  0.7101  0.4049
11656TIP3    H256384   2.940   1.201   1.891  0.8220 -0.2398 -1.8595
11657TIP3   OH256385   2.952   3.804   3.069 -0.1191  0.1118 -0.3061
11657TIP3    H156386   2.974   3.711   3.068  0.8120  0.3205 -0.5963
11657TIP3    H256387   2.864   3.808   3.107 -1.0121 -1.0479 -2.1489
11658TIP3   OH256388   2.599   6.363   2.046  0.4084 -0.7932  0.5687
11658TIP3    H156389   2.531   6.401   1.989  0.8809 -1.0214 -0.1610
11658TIP3    H256390   2.552   6.336   2.124 -0.2971 -0.6829  0.1916
11659TIP3   OH256391   1.265   2.173  15.812  0.0005 -0.0625  0.1135
11659TIP3    H156392   1.292   2.115  15.884 -0.6214 -0.4693  0.0309
11659TIP3    H256393   1.336   2.236  15.804  3.1480 -3.4932 -2.8392
11660TIP3   OH256394   5.764   3.734   2.433  0.5097  0.2456 -0.6261
11660TIP3    H156395   5.732   3.804   2.490 -2.5500 -0.6491 -1.0870
11660TIP3    H256396   5.760   3.655   2.487  0.6370 -0.1017 -1.1148
11661TIP3   OH256397   4.856   4.491   0.085  0.6983 -0.4364  0.3135
11661TIP3    H156398   4.936   4.498   0.137  0.5038  1.2758  0.4344
11661TIP3    H256399   4.795   4.443   0.142  0.5507  1.2248  1.6305
11662TIP3   OH256400   3.122   3.454   1.176 -0.4152 -0.0197 -0.3039
11662TIP3    H156401   3.139   3.547   1.183 -1.1300  0.1515 -0.6827
11662TIP3    H256402   3.196   3.412   1.218  0.9492  0.6543 -1.9370
11663TIP3   OH256403   2.655   1.400  14.253  0.0220  0.5651 -0.2086
11663TIP3    H156404   2.685   1.429  14.338  0.2719 -0.9768  0.2643
11663TIP3    H256405   2.710   1.448  14.190 -0.9137  2.5477  0.4187
11664TIP3   OH256406   1.834   1.373   2.248  0.5799 -0.3475 -0.1558
11664TIP3    H156407   1.851   1.462   2.218 -0.5509  0.4169  1.3222
11664TIP3    H256408   1.868   1.372   2.338  1.4826 -1.7357 -0.4813
11665TIP3   OH256409   5.000   5.866  16.954 -0.2128  0.9111  0.5056
11665TIP3    H156410   5.059   5.913  16.895  0.3071 -0.6001 -0.2218
11665TIP3    H256411   4.947   5.811  16.897 -0.4555  0.2247  1.3657
11666TIP3   OH256412   0.730   6.695  15.918 -0.1147  0.4655 -0.3906
11666TIP3    H156413   0.740   6.676  16.012 -0.2766 -0.0101 -0.4690
11666TIP3    H256414   0.747   6.789  15.911 -3.4315  1.2746  0.6401
11667TIP3   OH256415   0.496   6.498  13.086  0.2808  0.2982 -0.1986
11667TIP3    H156416   0.451   6.476  13.005 -0.8350 -1.2468  0.7968
11667TIP3    H256417   0.426   6.519  13.148  1.1512  3.7348 -0.1478
11668TIP3   OH256418   5.591   4.554  17.022 -0.1719  0.3348  0.8460
11668TIP3    H156419   5.523   4.620  17.034 -0.1621  1.2377 -2.9457
11668TIP3    H256420   5.546   4.471  17.033 -1.3493  0.9270  0.6815
11669TIP3   OH256421   6.404   5.260   2.954 -0.2525  0.1594  0.2744
11669TIP3    H156422   6.379   5.319   3.025 -1.2893 -1.0444  0.9470
11669TIP3    H256423   6.475   5.208   2.990  0.7718  1.0681 -0.3749
11670TIP3   OH256424   5.383   3.260  16.211 -0.4834 -0.0481  0.1847
11670TIP3    H156425   5.449   3.254  16.141 -1.6808  0.0276 -0.9959
11670TIP3    H256426   5.318   3.194  16.188 -2.9936  2.6156 -1.1200
11671TIP3   OH256427   0.798   4.134  11.336 -0.1331 -1.0037  1.3278
11671TIP3    H156428   0.814   4.099  11.423  0.9782 -3.2509  0.3216
11671TIP3    H256429   0.885   4.149  11.299 -0.5175 -1.5078  0.1310
11672TIP3   OH256430   6.283   5.495  15.296  0.3419  0.2515 -0.1684
11672TIP3    H156431   6.200   5.449  15.308  0.1734  0.0237 -1.9002
11672TIP3    H256432   6.295   5.497  15.201  2.5056 -0.0414  0.0586
11673TIP3   OH256433   2.176   5.975   5.545 -0.2575 -0.0549  0.3215
11673TIP3    H156434   2.171   5.896   5.491 -1.1005  0.0448  0.2402
11673TIP3    H256435   2.242   6.030   5.502 -2.8907  1.3020 -2.3595
11674TIP3   OH256436   2.032   4.088  12.872  0.2576 -0.2912 -0.6278
11674TIP3    H156437   2.003   4.002  12.902  0.7191 -0.6088 -1.0631
11674TIP3    H256438   2.070   4.129  12.949  1.7891 -1.2479 -0.8198
11675TIP3   OH256439   1.999   2.780   0.300  0.2514  0.5708  0.4631
11675TIP3    H156440   1.987   2.753   0.208 -1.5937  1.9030  0.2480
11675TIP3    H256441   1.911   2.807   0.328  0.4516 -1.1799  3.1161
11676TIP3   OH256442   2.129   5.424  15.605 -0.7424  0.5423  0.0545
11676TIP3    H156443   2.098   5.443  15.694 -1.0381 -0.0340  0.0808
11676TIP3    H256444   2.165   5.335  15.611 -0.4154  0.6493 -0.3146
11677TIP3   OH256445   0.225   4.877  13.253 -0.6461 -0.9301 -0.0852
11677TIP3    H156446   0.209   4.955  13.307  0.5884 -0.2133 -0.7164
11677TIP3    H256447   0.251   4.912  13.168  0.3758 -2.0351 -0.2453
11678TIP3   OH256448   4.991   3.173  13.375 -0.0650 -0.3379 -0.2220
11678TIP3    H156449   5.048   3.240  13.337  0.0589  1.0964  2.3162
11678TIP3    H256450   4.907   3.217  13.388 -0.0995 -0.7456  1.0993
11679TIP3   OH256451   1.571   5.272  12.497  1.0168  0.1160  0.1490
11679TIP3    H156452   1.614   5.305  12.418  1.9794  1.7586  1.2925
11679TIP3    H256453   1.508   5.341  12.521 -1.5015 -1.7001 -0.8098
11680TIP3   OH256454   2.583   1.655  15.730 -0.3461  0.1699  0.3031
11680TIP3    H156455   2.600   1.603  15.652 -4.0316  0.5661 -0.9593
11680TIP3    H256456   2.590   1.593  15.803 -0.0005 -0.9644 -0.6683
11681TIP3   OH256457   1.769   2.271   0.951  0.5395  0.2443 -0.4495
11681TIP3    H156458   1.846   2.306   0.907  0.4095  2.1363  0.7186
11681TIP3    H256459   1.804   2.227   1.029  0.5341 -0.2294 -0.7107
11682TIP3   OH256460   6.222   0.978  15.949  0.0868  0.1001  0.1920
11682TIP3    H156461   6.197   1.022  15.868  2.0404  0.6853 -0.1586
11682TIP3    H256462   6.145   0.984  16.005 -1.0977  0.2072 -1.3991
11683TIP3   OH256463   2.325   3.391   0.437 -0.0712 -0.5293  0.0579
11683TIP3    H156464   2.276   3.309   0.431 -0.1940 -0.4028 -0.7270
11683TIP3    H256465   2.353   3.409   0.348  0.7067 -0.1680  0.3642
11684TIP3   OH256466   5.019   5.085   0.143  0.4239  0.0544  0.4469
11684TIP3    H156467   5.006   5.160   0.201  0.0972  0.1668  0.2274
11684TIP3    H256468   4.940   5.032   0.155  1.6393 -1.4895  2.4045
11685TIP3   OH256469   1.327   2.596   0.741 -0.2693 -0.3538  0.4155
11685TIP3    H156470   1.275   2.591   0.822 -0.2233 -1.2414  0.4000
11685TIP3    H256471   1.387   2.522   0.746 -1.4954 -1.5331 -1.2614
11686TIP3   OH256472   3.085   0.178   1.488  0.5292 -0.0060 -0.1689
11686TIP3    H156473   3.084   0.245   1.420  2.2694  2.5874  2.1145
11686TIP3    H256474   3.174   0.142   1.484 -0.2691 -2.0075 -1.1102
11687TIP3   OH256475   5.616   1.827   1.538  0.1402  0.0781  0.5652
11687TIP3    H156476   5.591   1.827   1.630  1.4037 -0.1869  0.9199
11687TIP3    H256477   5.634   1.735   1.517  1.5736  0.3331  0.5605
11688TIP3   OH256478   2.546   0.215   2.008  0.6377 -0.6568  0.0683
11688TIP3    H156479   2.520   0.217   2.100 -0.0080  0.7999 -0.1175
11688TIP3    H256480   2.599   0.135   1.999 -0.2320 -1.4126  1.4294
11689TIP3   OH256481   6.243   3.358   1.797  0.5029 -0.2279  0.1433
11689TIP3    H156482   6.180   3.331   1.864  0.6712 -0.0238  0.3882
11689TIP3    H256483   6.189   3.383   1.722  0.2458  0.7326  0.6320
11690TIP3   OH256484   5.673   3.052  12.309 -0.0734  0.2701 -0.7061
11690TIP3    H156485   5.624   3.099  12.241 -0.7710  1.0999  0.3351
11690TIP3    H256486   5.701   3.120  12.370 -1.1301 -0.6417  0.8701
11691TIP3   OH256487   3.223   2.466  13.721  0.0089 -0.2216 -0.1427
11691TIP3    H156488   3.130   2.486  13.731  0.2535  2.7286 -2.3781
11691TIP3    H256489   3.227   2.371  13.716 -2.6233 -0.5216  1.7880
11692TIP3   OH256490   0.962   6.035   3.552 -0.4226 -0.0117  0.2479
11692TIP3    H156491   0.960   5.940   3.566  1.8964 -0.5092 -2.0533
11692TIP3    H256492   1.017   6.068   3.623  1.6564 -0.9160 -0.8644
11693TIP3   OH256493   4.619   6.685  13.631  0.4118  0.5629 -0.3596
11693TIP3    H156494   4.559   6.643  13.692  1.8336  1.4727  1.7926
11693TIP3    H256495   4.637   6.618  13.565  0.0241 -1.0293  1.0767
11694TIP3   OH256496   6.726   0.176   1.744 -0.2180 -0.0429  0.4160
11694TIP3    H156497   6.706   0.198   1.835 -0.9396 -0.2503  0.3094
11694TIP3    H256498   6.647   0.201   1.695  0.5974  1.2064 -0.3343
11695TIP3   OH256499   1.842   1.085  13.435 -0.1266  0.5149 -0.0390
11695TIP3    H156500   1.771   1.096  13.371 -0.1744  0.0821 -0.0584
11695TIP3    H256501   1.865   1.175  13.459 -1.6164  0.6675  0.9914
11696TIP3   OH256502   2.043   6.185   6.251 -0.4446 -0.2994 -0.1957
11696TIP3    H156503   2.134   6.214   6.255 -0.6149  0.2209  0.0619
11696TIP3    H256504   1.992   6.265   6.268 -0.9508 -0.5467 -0.5092
11697TIP3   OH256505   0.004   1.575  11.874 -0.2432  0.0985 -0.2467
11697TIP3    H156506  -0.042   1.623  11.942  0.9162  0.8055  0.0537
11697TIP3    H256507   0.089   1.554  11.912  0.3102  0.2461 -1.3559
11698TIP3   OH256508   0.036   5.230   1.987 -0.5233  0.7335 -0.7868
11698TIP3    H156509   0.066   5.239   2.078 -1.2639  1.4773 -0.6056
11698TIP3    H256510  -0.054   5.262   1.988 -0.7188  0.2418 -1.6862
11699TIP3   OH256511   4.378   5.483  15.549 -0.4502  0.1543 -0.1689
11699TIP3    H156512   4.449   5.540  15.575 -0.3219  0.6969 -1.5924
11699TIP3    H256513   4.298   5.527  15.579 -0.3674  1.2424 -1.4277
11700TIP3   OH256514   0.367   1.906  12.972 -0.2395 -0.2828 -0.3698
11700TIP3    H156515   0.295   1.851  12.939 -0.6723 -0.7329  1.2011
11700TIP3    H256516   0.445   1.853  12.960 -0.2706 -0.1094 -1.3827
11701TIP3   OH256517   4.772   4.175   4.238  0.1449 -0.3241 -0.8417
11701TIP3    H156518   4.867   4.189   4.241  0.1719 -0.6457  0.9130
11701TIP3    H256519   4.735   4.263   4.228  0.5614  0.3575  2.3119
11702TIP3   OH256520   0.671   0.441   1.126  0.5796 -0.3271  0.2223
11702TIP3    H156521   0.732   0.431   1.198  1.5183  1.5953 -0.2292
11702TIP3    H256522   0.695   0.525   1.086 -0.6446 -0.7864 -1.6106
11703TIP3   OH256523   0.593   2.605  11.709  0.0117 -0.1252  0.0731
11703TIP3    H156524   0.658   2.575  11.645 -0.6385 -1.8827  0.1930
11703TIP3    H256525   0.615   2.558  11.789  0.7261  1.9386  1.1689
11704TIP3   OH256526   2.725   1.118   5.161  0.1792 -0.5193  0.2755
11704TIP3    H156527   2.668   1.060   5.212  0.6332  0.2784  1.7166
11704TIP3    H256528   2.763   1.177   5.225  1.4971 -0.0841 -0.8737
11705TIP3   OH256529   5.362   2.847  12.279 -0.0782 -0.1738 -0.0213
11705TIP3    H156530   5.317   2.770  12.314 -0.7336 -0.8269 -2.1619
11705TIP3    H256531   5.323   2.921  12.325 -0.1404 -1.0391  1.3579
11706TIP3   OH256532   5.587   4.369  13.371 -0.3364 -0.4132  0.5752
11706TIP3    H156533   5.674   4.374  13.332  0.0038  1.3090  1.4486
11706TIP3    H256534   5.567   4.459  13.397 -3.1571 -0.3818 -1.2181
11707TIP3   OH256535   1.323   4.017   4.147 -0.5136 -0.3722 -0.3500
11707TIP3    H156536   1.273   4.098   4.144 -0.3656 -0.2995 -1.5570
11707TIP3    H256537   1.334   3.998   4.240 -0.5964  0.9591 -0.0546
11708TIP3   OH256538   5.466   3.447  10.845  0.3948  0.4937 -0.5118
11708TIP3    H156539   5.431   3.480  10.928  1.7391  1.3382 -0.2635
11708TIP3    H256540   5.486   3.355  10.863 -0.7901  0.2474 -0.3844
11709TIP3   OH256541   3.166   4.916  15.813 -0.0645 -0.1586  0.4535
11709TIP3    H156542   3.098   4.897  15.878  0.0539  0.8224  0.8772
11709TIP3    H256543   3.242   4.941  15.865  0.1116  0.3890 -0.0642
11710TIP3   OH256544   6.340   5.417  11.067  0.2642  0.1158  0.6303
11710TIP3    H156545   6.338   5.323  11.049  1.1461 -0.2390  2.1975
11710TIP3    H256546   6.430   5.444  11.045  0.2109  0.4487  0.8096
11711TIP3   OH256547   5.065   5.185   4.156  0.0619 -0.1683 -0.4564
11711TIP3    H156548   4.982   5.201   4.112 -0.3827 -0.1551  0.3751
11711TIP3    H256549   5.043   5.182   4.249  1.3233  2.1043 -0.0274
11712TIP3   OH256550   1.024   5.875  11.023 -0.1174  0.1168  0.3551
11712TIP3    H156551   1.033   5.968  11.003 -0.2270  0.3296  1.2611
11712TIP3    H256552   1.112   5.839  11.011  0.5146  0.8406  2.4283
11713TIP3   OH256553   5.027   6.470   0.601  0.7016  0.5259  0.4587
11713TIP3    H156554   4.932   6.463   0.613  0.7709 -0.5747  0.4753
11713TIP3    H256555   5.064   6.441   0.685  1.0741 -0.9123 -0.1771
11714TIP3   OH256556   4.552   2.592  13.996 -0.3833 -0.1754 -0.3778
11714TIP3    H156557   4.519   2.596  13.906 -1.3202 -2.3136 -0.1873
11714TIP3    H256558   4.477   2.562  14.048  0.5115 -0.2757  0.8966
11715TIP3   OH256559   6.166   0.773  14.899 -0.1533 -0.4323  0.1028
11715TIP3    H156560   6.221   0.851  14.889 -0.9039  0.1863  0.5661
11715TIP3    H256561   6.163   0.758  14.994 -1.1665 -0.1391  0.1363
11716TIP3   OH256562   0.845   0.226   0.426  0.2062 -0.1988 -0.1180
11716TIP3    H156563   0.836   0.299   0.488  0.2002  1.2137 -1.7311
11716TIP3    H256564   0.917   0.251   0.369 -0.6620 -0.8315 -1.5307
11717TIP3   OH256565   5.875   5.294  13.100  0.3515  0.2047 -0.2661
11717TIP3    H156566   5.890   5.267  13.010 -1.3264 -0.6128 -0.3376
11717TIP3    H256567   5.892   5.388  13.100 -0.7055  0.4152 -1.6965
11718TIP3   OH256568   2.081   5.975   1.550  0.2743 -0.4990  0.1837
11718TIP3    H156569   2.048   6.064   1.556 -0.2311 -0.7542  2.1670
11718TIP3    H256570   2.007   5.924   1.517  0.5497 -0.2107 -0.9081
11719TIP3   OH256571   5.965   0.160  14.440 -0.5374 -0.5886  0.4825
11719TIP3    H156572   5.923   0.218  14.503  0.2984  0.0477  0.4668
11719TIP3    H256573   6.051   0.199  14.424  0.4963 -2.4183  1.2927
11720TIP3   OH256574   3.775   2.227  12.612  0.0883  0.1284 -0.0286
11720TIP3    H156575   3.766   2.133  12.600 -0.2236  0.4691 -3.6975
11720TIP3    H256576   3.689   2.257  12.641 -0.0602 -0.6020  0.2852
11721TIP3   OH256577   1.301   2.114   3.257  0.5416 -0.0062  0.1107
11721TIP3    H156578   1.217   2.143   3.222  0.2780 -1.0890 -0.1822
11721TIP3    H256579   1.298   2.141   3.349 -0.6120 -1.0274  0.3996
11722TIP3   OH256580   5.089   2.176  14.790  0.4872  0.0319 -0.6592
11722TIP3    H156581   5.097   2.115  14.864  0.1976  1.8987  0.9794
11722TIP3    H256582   5.180   2.193  14.763  0.5597 -2.6062 -2.5319
11723TIP3   OH256583   0.410   0.696  14.873  0.2648 -0.4490  0.0891
11723TIP3    H156584   0.337   0.647  14.836 -0.7110  0.2221  1.0482
11723TIP3    H256585   0.454   0.734  14.797  0.7655 -2.3562 -0.6444
11724TIP3   OH256586   1.320   0.660   3.710  0.4097 -0.0445 -0.5700
11724TIP3    H156587   1.318   0.656   3.805  1.8069 -1.2114 -0.5564
11724TIP3    H256588   1.407   0.627   3.686 -0.0661 -0.1839 -2.2616
11725TIP3   OH256589   6.369   3.159   1.591 -0.2361 -0.3653  0.4462
11725TIP3    H156590   6.424   3.203   1.525  0.1288 -1.1848  0.1978
11725TIP3    H256591   6.324   3.231   1.635 -0.0587  0.2337 -0.3196
11726TIP3   OH256592   6.081   5.359  16.134 -0.4967 -0.0046  0.1351
11726TIP3    H156593   6.116   5.427  16.076 -0.4601 -0.0563  0.0960
11726TIP3    H256594   6.158   5.308  16.159 -0.6506 -0.6323 -0.6193
11727TIP3   OH256595   5.459   0.344   0.223 -0.2594 -0.1007  0.7778
11727TIP3    H156596   5.476   0.252   0.244  0.9959  0.0950  0.7017
11727TIP3    H256597   5.397   0.341   0.150 -0.1529 -0.8896  0.7102
11728TIP3   OH256598   3.432   1.351  13.156  0.1898 -0.6108 -0.9193
11728TIP3    H156599   3.392   1.435  13.179  0.4183 -1.1342  1.7055
11728TIP3    H256600   3.524   1.360  13.182  0.0481 -1.8971  0.1453
11729TIP3   OH256601   4.641   5.193   1.638  0.2383 -0.6701  0.2055
11729TIP3    H156602   4.667   5.101   1.644  0.8757 -0.5929 -0.9893
11729TIP3    H256603   4.638   5.210   1.544 -0.4804  0.3667  0.4099
11730TIP3   OH256604   3.388   6.333   2.966 -0.0160 -0.2278 -0.6468
11730TIP3    H156605   3.443   6.308   3.040 -1.3891 -0.3991  0.3380
11730TIP3    H256606   3.316   6.382   3.005 -0.8301 -0.4234 -1.8537
11731TIP3   OH256607   4.656   3.487  13.274  0.3722  0.6719  0.0738
11731TIP3    H156608   4.701   3.567  13.298 -0.9707  1.1925  1.0231
11731TIP3    H256609   4.569   3.515  13.246 -0.6116 -0.4937  1.7231
11732TIP3   OH256610   1.854   5.648  12.580  0.1466  0.4767 -0.3998
11732TIP3    H156611   1.929   5.654  12.521  0.5969  0.3852  0.1560
11732TIP3    H256612   1.850   5.556  12.604 -0.0823  0.5000 -0.3462
11733TIP3   OH256613   1.360   2.900  10.912  0.3703 -0.2127 -0.4335
11733TIP3    H156614   1.450   2.904  10.879 -0.3911 -0.3141 -2.6523
11733TIP3    H256615   1.359   2.823  10.970  1.4249 -0.9112 -1.3037
11734TIP3   OH256616   2.535   6.195  13.872  0.2128 -0.1552  0.0961
11734TIP3    H156617   2.586   6.127  13.915 -0.2747 -0.2090  0.6097
11734TIP3    H256618   2.563   6.277  13.914 -0.9508 -0.3049  1.2351
11735TIP3   OH256619   6.081   5.464  11.486  0.6374  0.1736 -0.4230
11735TIP3    H156620   6.123   5.524  11.425  2.0384  0.9958  1.2627
11735TIP3    H256621   6.148   5.399  11.507  0.5015  0.4343  0.9134
11736TIP3   OH256622   2.024   0.426   2.442  0.6080  0.1715  0.5077
11736TIP3    H156623   1.999   0.498   2.385 -0.6304  0.1093  0.9418
11736TIP3    H256624   2.036   0.466   2.528 -0.5044 -0.1822  0.8456
11737TIP3   OH256625   2.781   4.161   0.397 -0.0966  0.6679 -0.0037
11737TIP3    H156626   2.816   4.106   0.326 -2.0559 -1.4713  0.5622
11737TIP3    H256627   2.711   4.212   0.355 -0.0543  0.7598  0.0364
11738TIP3   OH256628   2.227   0.076  10.898 -1.3837 -0.0612 -0.2553
11738TIP3    H156629   2.157   0.022  10.860 -2.0991  0.6762 -0.0290
11738TIP3    H256630   2.243   0.143  10.832 -1.0164 -0.1223 -0.2264
11739TIP3   OH256631   0.704   4.704  12.902 -0.5134  0.0640 -0.1199
11739TIP3    H156632   0.687   4.687  12.995  0.6434 -0.1706  0.0719
11739TIP3    H256633   0.734   4.795  12.901  2.0634 -0.6912  0.1604
11740TIP3   OH256634   3.707   0.617  13.268 -0.1303 -0.0527  0.0723
11740TIP3    H156635   3.657   0.542  13.237 -0.0963  0.0399 -0.2094
11740TIP3    H256636   3.643   0.688  13.272  0.0375  0.1421 -0.5783
11741TIP3   OH256637   2.146   5.300   0.563  0.3239 -0.0539 -0.1093
11741TIP3    H156638   2.065   5.337   0.528 -0.4560 -1.8895 -0.3778
11741TIP3    H256639   2.124   5.209   0.582  1.0655  0.4368  3.9515
11742TIP3   OH256640   2.740   3.060   3.190 -0.2591  0.2465  0.5255
11742TIP3    H156641   2.793   3.004   3.134 -0.2589 -0.8032  1.5111
11742TIP3    H256642   2.743   3.017   3.276 -0.5846  1.5677  1.2308
11743TIP3   OH256643   0.262   2.289  15.264  0.3718  0.2910 -0.2323
11743TIP3    H156644   0.178   2.244  15.262 -0.6058  1.9998  0.6491
11743TIP3    H256645   0.327   2.218  15.258 -1.0968 -1.0467 -1.0654
11744TIP3   OH256646   1.854   4.330   3.081  0.2039  0.3311 -0.0852
11744TIP3    H156647   1.944   4.303   3.099  0.2442  0.8385  0.5234
11744TIP3    H256648   1.844   4.321   2.986  0.2668 -1.6157  0.0490
11745TIP3   OH256649   6.125   5.924   2.786 -0.0474 -0.0805  0.4250
11745TIP3    H156650   6.095   6.003   2.741 -1.7817 -0.8592  0.1261
11745TIP3    H256651   6.213   5.909   2.751 -0.2699  0.8903 -0.6231
11746TIP3   OH256652   4.694   5.127   1.024  0.6743 -0.0044  0.1777
11746TIP3    H156653   4.604   5.120   0.991  0.9629 -0.3414 -0.5801
11746TIP3    H256654   4.711   5.043   1.067  1.0090 -0.4078 -0.7130
11747TIP3   OH256655   6.043   6.542  15.702  0.5678  0.1201 -0.2118
11747TIP3    H156656   6.109   6.478  15.675 -0.0386 -1.0881  1.0759
11747TIP3    H256657   6.089   6.626  15.697  2.1743 -0.6670  0.5124
11748TIP3   OH256658   3.280   2.190  13.692 -0.1910 -0.3158 -0.4527
11748TIP3    H156659   3.345   2.177  13.760 -0.7638 -1.2292 -0.0618
11748TIP3    H256660   3.308   2.132  13.621 -0.9629 -1.2799  0.0070
11749TIP3   OH256661   2.625   5.184   3.804 -0.5588  0.0766  0.2266
11749TIP3    H156662   2.590   5.136   3.730 -2.8327 -1.3422  2.0820
11749TIP3    H256663   2.693   5.126   3.840  0.5239  0.7523 -0.6973
11750TIP3   OH256664   2.971   0.674  10.593  0.1107  0.3115  0.7015
11750TIP3    H156665   2.963   0.768  10.583 -0.7036  0.3127  1.2664
11750TIP3    H256666   2.887   0.646  10.629 -0.6987 -0.9917 -1.9106
11751TIP3   OH256667   4.078   5.519   4.023 -0.0367  0.1020 -0.4677
11751TIP3    H156668   4.145   5.463   3.984 -0.5581 -1.5334  0.8985
11751TIP3    H256669   4.112   5.542   4.109 -1.6937 -1.7678  0.7601
11752TIP3   OH256670   4.057   5.273  11.328  0.0989 -0.2131 -0.7519
11752TIP3    H156671   3.980   5.223  11.353  1.5161 -0.9728  2.5992
11752TIP3    H256672   4.052   5.353  11.381  2.4299 -1.1312  1.0640
11753TIP3   OH256673   3.985   0.701  11.224 -0.1765 -0.6257 -0.1248
11753TIP3    H156674   4.072   0.742  11.231 -0.3431  0.0756 -1.6503
11753TIP3    H256675   4.003   0.611  11.199  0.1342 -0.6956  0.3480
11754TIP3   OH256676   5.513   2.473  15.599  0.4193 -0.9025  0.0516
11754TIP3    H156677   5.418   2.461  15.595  0.4941 -1.0934 -2.3687
11754TIP3    H256678   5.549   2.387  15.580  1.0686 -0.6014 -0.1098
11755TIP3   OH256679   2.025   0.759  13.280 -0.0027  0.0616  0.2956
11755TIP3    H156680   2.032   0.812  13.360 -2.2696  0.1985  0.4798
11755TIP3    H256681   1.982   0.817  13.217  0.0025 -0.6772 -0.3999
11756TIP3   OH256682   0.097   2.398  15.565  0.0233 -0.6055  0.0041
11756TIP3    H156683   0.097   2.335  15.493  1.4383 -2.4129  1.4468
11756TIP3    H256684   0.019   2.451  15.551 -0.9182 -2.2882 -1.6479
11757TIP3   OH256685   2.974   0.818  16.723 -0.5225  0.4354 -0.2049
11757TIP3    H156686   3.048   0.777  16.678 -0.3702 -1.4274  1.5896
11757TIP3    H256687   2.969   0.906  16.685  2.7862  0.7594 -0.2029
11758TIP3   OH256688   4.331   0.036   5.147  0.0856  0.0924  0.4094
11758TIP3    H156689   4.268   0.073   5.085  1.3742  1.2844 -0.2337
11758TIP3    H256690   4.416   0.045   5.104  1.1065  1.5037  2.5478
11759TIP3   OH256691   6.407   4.019   4.855 -0.2504 -0.4140  0.3630
11759TIP3    H156692   6.336   3.962   4.825  1.7709 -2.8010 -0.1568
11759TIP3    H256693   6.457   3.966   4.917  2.3538  0.3210 -0.9429
11760TIP3   OH256694   4.520   3.598   0.777 -0.0095  0.4026 -0.1974
11760TIP3    H156695   4.581   3.670   0.793  1.1991 -0.8108  0.7622
11760TIP3    H256696   4.508   3.557   0.862 -0.0746 -1.0198 -0.8705
11761TIP3   OH256697   1.157   0.312  14.193  0.1655 -0.2212  0.3045
11761TIP3    H156698   1.113   0.230  14.214  1.4792 -0.6053  1.7686
11761TIP3    H256699   1.178   0.350  14.278  2.7338 -0.1358 -0.2769
11762TIP3   OH256700   3.962   6.084  14.537  0.1053 -0.0461 -0.0824
11762TIP3    H156701   3.877   6.060  14.501 -0.2120 -0.8802  1.1476
11762TIP3    H256702   4.007   6.001  14.551  0.1976  0.2205  1.4222
11763TIP3   OH256703   0.115   4.618   5.950 -0.2845  0.6128  0.1127
11763TIP3    H156704   0.054   4.565   6.000  0.0344  0.2455  0.1145
11763TIP3    H256705   0.172   4.659   6.015  0.1545  0.1048  0.0574
11764TIP3   OH256706   5.184   2.983  12.452 -0.4265 -0.3337  0.0115
11764TIP3    H156707   5.240   2.949  12.521  0.2170  0.1531 -0.2614
11764TIP3    H256708   5.113   2.919  12.444  0.1996 -1.0591  0.2230
11765TIP3   OH256709   5.338   5.473   5.869  0.2539 -0.3028 -0.3521
11765TIP3    H156710   5.351   5.433   5.955 -1.4862 -1.0713 -0.4014
11765TIP3    H256711   5.282   5.548   5.886 -0.6209 -0.8177 -0.8586
11766TIP3   OH256712   4.870   0.056   4.961 -0.1248 -0.6689  0.2310
11766TIP3    H156713   4.854   0.138   4.915 -1.2536 -0.2594  1.2662
11766TIP3    H256714   4.952   0.022   4.925 -0.5689 -0.0002 -1.4873
11767TIP3   OH256715   3.203   6.297   1.708 -0.4961 -0.4140  0.5539
11767TIP3    H156716   3.114   6.271   1.683 -0.6262  1.1171 -0.6773
11767TIP3    H256717   3.253   6.215   1.705 -1.6001 -1.1029  0.1327
11768TIP3   OH256718   4.163   6.362  11.123  0.1845 -0.9043 -0.3674
11768TIP3    H156719   4.228   6.354  11.193  0.6399 -0.1868 -0.7058
11768TIP3    H256720   4.207   6.330  11.045  0.2415 -0.1340 -0.6583
11769TIP3   OH256721   0.440   4.255  15.566 -0.0716  0.3287 -0.3051
11769TIP3    H156722   0.394   4.339  15.559 -0.3612  0.2305  0.3729
11769TIP3    H256723   0.370   4.190  15.572  0.1490  0.1474  0.3832
11770TIP3   OH256724   1.316   3.378  13.952  0.6856 -0.5002  0.2919
11770TIP3    H156725   1.383   3.446  13.945  0.6840 -0.6298 -1.4341
11770TIP3    H256726   1.235   3.427  13.968  1.0362 -0.2953  1.6008
11771TIP3   OH256727   2.878   3.024  15.571  0.0312  0.2459 -0.4824
11771TIP3    H156728   2.886   2.932  15.596  0.4914  0.1863 -0.8369
11771TIP3    H256729   2.930   3.031  15.491 -0.0863  0.7943 -0.5099
11772TIP3   OH256730   3.590   1.076   0.453 -0.4408 -0.5515 -0.6267
11772TIP3    H156731   3.627   1.097   0.539 -1.5961 -1.5198  0.1329
11772TIP3    H256732   3.638   0.999   0.424 -0.0119 -0.1911 -0.8926
11773TIP3   OH256733   4.174   3.725  14.728  0.5278  0.0348 -0.4271
11773TIP3    H156734   4.246   3.686  14.679  0.7590  1.1179 -0.9542
11773TIP3    H256735   4.117   3.650  14.749  0.9664 -0.5901 -1.3963
11774TIP3   OH256736   2.735   1.557  11.788  0.2602 -0.2912  0.0451
11774TIP3    H156737   2.758   1.648  11.769  0.3430 -0.0358  1.3071
11774TIP3    H256738   2.663   1.538  11.728  0.7844  0.3371 -0.8016
11775TIP3   OH256739   3.258   0.540   0.270  0.1440 -0.5293 -0.7227
11775TIP3    H156740   3.174   0.576   0.241  0.1989  2.1292  1.9480
11775TIP3    H256741   3.320   0.568   0.203 -0.7569 -0.9013 -1.7481
11776TIP3   OH256742   6.042   1.657  11.817 -0.1441 -0.0839  0.5686
11776TIP3    H156743   6.113   1.594  11.828  0.7493  0.8291  0.1929
11776TIP3    H256744   5.998   1.628  11.737  0.5436  0.0208  0.1386
11777TIP3   OH256745   0.497   2.876   4.963 -0.0246 -0.1517 -0.6966
11777TIP3    H156746   0.567   2.824   5.002  0.4859  1.8185  1.1688
11777TIP3    H256747   0.531   2.903   4.878  0.8530 -0.4843 -0.4608
11778TIP3   OH256748   6.668   4.679   1.297  0.1622 -0.3448  0.1066
11778TIP3    H156749   6.699   4.598   1.258 -0.8443 -0.9212  0.4494
11778TIP3    H256750   6.576   4.685   1.271  0.7876  1.9385 -1.9506
11779TIP3   OH256751   4.498   3.812  16.258  0.2068 -0.5219  0.0565
11779TIP3    H156752   4.581   3.764  16.258 -1.1156 -3.0221  0.0368
11779TIP3    H256753   4.437   3.753  16.303 -1.7081  0.9574 -0.4716
11780TIP3   OH256754   1.673   3.830  11.035 -0.5584  0.5594 -0.2301
11780TIP3    H156755   1.749   3.774  11.054 -0.2601  0.8322 -0.6078
11780TIP3    H256756   1.663   3.826  10.940 -1.4716 -0.0451 -0.1215
11781TIP3   OH256757   4.558   6.684  13.155 -0.0004 -0.0073  0.0745
11781TIP3    H156758   4.483   6.730  13.194 -0.6899 -0.6341 -0.4852
11781TIP3    H256759   4.619   6.671  13.228 -1.9653 -2.6810  1.4233
11782TIP3   OH256760   2.104   3.784   1.112 -0.3194  0.0111  0.1369
11782TIP3    H156761   2.100   3.767   1.018 -0.5830  2.1566 -0.3069
11782TIP3    H256762   2.130   3.701   1.151 -3.0840 -1.7697 -1.5272
11783TIP3   OH256763   1.587   2.135   2.946 -0.5796 -0.1366  0.0947
11783TIP3    H156764   1.667   2.102   2.905 -0.4923 -0.1435  0.2673
11783TIP3    H256765   1.516   2.096   2.896 -0.4838  0.9250 -0.9149
11784TIP3   OH256766   1.671   3.048   1.602 -0.0897  0.2518 -0.5512
11784TIP3    H156767   1.691   3.135   1.635 -0.6791 -0.4171  1.7056
11784TIP3    H256768   1.756   3.010   1.581  0.2849  0.8183 -0.0932
11785TIP3   OH256769   2.368   1.272   2.683  0.2599 -0.4467 -0.5361
11785TIP3    H156770   2.421   1.195   2.701 -0.1538 -0.7530 -0.6077
11785TIP3    H256771   2.334   1.258   2.594  0.1796 -0.1856 -0.5493
11786TIP3   OH256772   6.181   0.347  13.423 -0.1360  0.4329  0.1492
11786TIP3    H156773   6.263   0.381  13.389  0.5865 -0.0809  1.3116
11786TIP3    H256774   6.207   0.272  13.478 -1.3932  0.0998  0.3177
11787TIP3   OH256775   1.573   2.492   2.458  0.2558  0.7251  0.7946
11787TIP3    H156776   1.550   2.585   2.461 -0.8115  0.5098 -0.1803
11787TIP3    H256777   1.642   2.486   2.392  0.4617  0.8402  0.9964
11788TIP3   OH256778   2.094   2.996  12.040 -0.1849  0.2417  0.5064
11788TIP3    H156779   2.173   2.942  12.041  0.8429  1.6517  2.3285
11788TIP3    H256780   2.029   2.943  11.994  1.2978 -1.6973  0.5195
11789TIP3   OH256781   1.179   3.274  12.575  0.3125  0.0626 -0.1572
11789TIP3    H156782   1.209   3.356  12.614 -0.7601 -0.2988  1.4911
11789TIP3    H256783   1.177   3.212  12.647  0.7847 -1.3495 -1.3149
11790TIP3   OH256784   3.471   5.749  14.799  0.4918 -0.6235 -0.0673
11790TIP3    H156785   3.499   5.685  14.734  2.0456 -0.2090  0.1412
11790TIP3    H256786   3.411   5.807  14.752  0.6603 -1.0435 -0.7996
11791TIP3   OH256787   1.723   4.932  12.678  0.8283  0.2465 -0.6153
11791TIP3    H156788   1.732   4.845  12.639 -1.4886  0.1359 -1.0825
11791TIP3    H256789   1.779   4.929  12.756  0.7193 -1.7245 -0.5472
11792TIP3   OH256790   4.101   0.719   2.326  0.3263  0.2644 -0.2670
11792TIP3    H156791   4.182   0.669   2.337  0.1025  0.0068  0.2678
11792TIP3    H256792   4.057   0.712   2.411  1.7394  4.0703  1.0033
11793TIP3   OH256793   2.202   4.139   0.879  0.1930 -0.3507  0.0528
11793TIP3    H156794   2.220   4.051   0.844 -1.1017 -0.1241 -1.3129
11793TIP3    H256795   2.126   4.127   0.936  0.2671 -0.1938  0.1831
11794TIP3   OH256796   1.529   5.171   2.028 -0.2252  0.0004  0.0175
11794TIP3    H156797   1.545   5.084   1.992  0.1446 -0.5619  1.4627
11794TIP3    H256798   1.550   5.231   1.957  2.2164 -0.9760 -0.1823
11795TIP3   OH256799   3.660   5.493   5.599 -0.1587 -0.1243 -0.2846
11795TIP3    H156800   3.587   5.509   5.539 -0.1994 -1.2752 -0.5780
11795TIP3    H256801   3.718   5.567   5.587  0.0481 -0.5239 -2.0914
11796TIP3   OH256802   0.933   4.248   2.694 -0.0960 -0.0722 -0.0162
11796TIP3    H156803   0.858   4.192   2.679  1.4781 -1.7764 -2.0854
11796TIP3    H256804   1.005   4.188   2.715  1.1174  1.3490  0.0836
11797TIP3   OH256805   0.063   6.457  12.737  0.1125 -1.1401 -0.2605
11797TIP3    H156806   0.088   6.379  12.686  0.0641 -2.0190  1.0116
11797TIP3    H256807   0.070   6.429  12.828 -1.9229 -0.2756  0.2163
11798TIP3   OH256808   4.753   3.823  16.546 -0.0205  0.3385 -0.1214
11798TIP3    H156809   4.711   3.859  16.468  0.0608  0.6843 -0.0071
11798TIP3    H256810   4.708   3.865  16.619 -0.8227 -0.7894  0.0526
11799TIP3   OH256811   3.967   3.684   0.951 -0.5041  0.2088  1.0784
11799TIP3    H156812   4.050   3.643   0.974 -1.0394 -0.5803  1.6424
11799TIP3    H256813   3.906   3.657   1.020 -0.9470  1.7576  1.3487
11800TIP3   OH256814   5.684   1.250   1.042 -0.0702  0.3980  0.3671
11800TIP3    H156815   5.715   1.248   1.133  0.3123 -1.3078  0.2278
11800TIP3    H256816   5.763   1.238   0.990 -0.5465 -0.9423 -0.0959
11801TIP3   OH256817   4.296   5.639   0.493  0.1131 -0.4310  0.1051
11801TIP3    H156818   4.336   5.640   0.407 -0.8531 -0.9862 -0.3716
11801TIP3    H256819   4.346   5.575   0.544  1.2340  0.5265  0.2554
11802TIP3   OH256820   3.004   4.623  17.254 -0.1104  0.4667  0.2253
11802TIP3    H156821   3.040   4.589  17.335  1.4591  4.2805  1.3155
11802TIP3    H256822   3.072   4.606  17.188  1.0574  2.1401  0.9455
11803TIP3   OH256823   2.285   5.536  15.409  0.0603 -0.2431 -0.0549
11803TIP3    H156824   2.241   5.505  15.488  0.3535 -0.5644 -0.0153
11803TIP3    H256825   2.225   5.512  15.337 -0.1308 -0.0932  0.0532
11804TIP3   OH256826   4.238   0.410   3.734 -0.6843 -0.2774  0.5692
11804TIP3    H156827   4.234   0.506   3.726  0.4108 -0.3878 -2.2380
11804TIP3    H256828   4.205   0.378   3.650 -0.0210 -2.3577  1.0624
11805TIP3   OH256829   3.919   5.466  14.338 -0.0164  0.1238 -0.3934
11805TIP3    H156830   3.979   5.393  14.354 -1.0146 -0.3402  1.5325
11805TIP3    H256831   3.834   5.424  14.325 -0.6805  0.9283  1.1569
11806TIP3   OH256832   0.327   1.400   2.386  0.3636  0.1058 -0.0027
11806TIP3    H156833   0.345   1.391   2.480 -0.2895  1.4220  0.2701
11806TIP3    H256834   0.321   1.494   2.372 -1.0201 -0.1236 -1.0967
11807TIP3   OH256835   5.885   3.470   0.672  0.5261  0.6712  0.2714
11807TIP3    H156836   5.853   3.445   0.585 -1.8807  2.1037  0.6409
11807TIP3    H256837   5.917   3.389   0.711  1.7818  0.0254 -1.9719
11808TIP3   OH256838   0.265   1.815  15.063 -0.2011 -0.8718 -0.0663
11808TIP3    H156839   0.274   1.726  15.029  3.1339 -0.5595 -0.3601
11808TIP3    H256840   0.260   1.803  15.158  1.4700 -1.3808 -0.0132
11809TIP3   OH256841   1.335   0.622   5.111  0.4053  0.2582  0.0474
11809TIP3    H156842   1.318   0.591   5.199  1.0511  0.4768  0.2517
11809TIP3    H256843   1.265   0.685   5.093  0.3963  0.3758  0.4906
11810TIP3   OH256844   5.143   3.501  16.859  0.0628  0.8628 -0.1711
11810TIP3    H156845   5.196   3.572  16.824  0.5857 -0.4973 -2.3672
11810TIP3    H256846   5.207   3.433  16.882 -0.1569  1.8825  4.3786
11811TIP3   OH256847   3.263   0.440  11.841 -0.1859 -0.1253 -0.1683
11811TIP3    H156848   3.294   0.383  11.912  1.6728 -1.5192 -1.9442
11811TIP3    H256849   3.288   0.528  11.869  0.6240 -0.6488  0.8612
11812TIP3   OH256850   3.931   4.562  15.135  0.5018 -0.3501  0.0068
11812TIP3    H156851   3.905   4.648  15.100  0.3098 -0.7666 -0.9254
11812TIP3    H256852   3.998   4.582  15.200  1.8351  0.4266 -1.5204
11813TIP3   OH256853   6.642   6.541   2.389 -0.0032  0.6617  0.5299
11813TIP3    H156854   6.710   6.552   2.323 -1.1595  0.0003 -0.8531
11813TIP3    H256855   6.688   6.545   2.473  1.6816  0.4661 -0.3425
11814TIP3   OH256856   4.938   5.480  14.913  0.4263 -0.1789  0.3776
11814TIP3    H156857   4.865   5.534  14.942  0.3860 -0.4814  0.8633
11814TIP3    H256858   4.950   5.502  14.821 -0.7231 -0.6197  0.1060
11815TIP3   OH256859   3.542   3.988   3.842  0.4662  0.0005 -0.7060
11815TIP3    H156860   3.610   3.951   3.786  1.7005  3.3236 -1.6064
11815TIP3    H256861   3.516   3.915   3.899  3.1841 -2.0015 -1.8079
11816TIP3   OH256862   3.950   4.191   4.394  0.1291  0.1856 -0.1063
11816TIP3    H156863   3.942   4.172   4.300  0.1281 -3.2506  0.4618
11816TIP3    H256864   4.044   4.193   4.410  0.1415 -1.0177  0.0672
11817TIP3   OH256865   0.868   4.212  11.753 -0.0463 -0.0239 -0.3721
11817TIP3    H156866   0.781   4.210  11.714 -0.6189  1.5767  0.7447
11817TIP3    H256867   0.860   4.161  11.834 -0.2146  0.8819  0.1987
11818TIP3   OH256868   6.267   4.883  13.659  0.0411  0.6491  0.0564
11818TIP3    H156869   6.305   4.964  13.693  2.4248  0.0658 -0.9871
11818TIP3    H256870   6.260   4.897  13.565 -0.5189  0.0157 -0.0073
11819TIP3   OH256871   5.408   4.562  13.712  0.3581  0.6258 -0.2043
11819TIP3    H156872   5.333   4.600  13.758 -0.1688  2.1383 -2.1371
11819TIP3    H256873   5.378   4.554  13.622  1.7761 -0.9600 -0.5650
11820TIP3   OH256874   4.002   0.767   2.087  0.1372  0.0364  0.2323
11820TIP3    H156875   3.956   0.683   2.091 -0.6113  0.3548 -1.2182
11820TIP3    H256876   4.060   0.766   2.164 -0.2867 -1.5421  0.5655
11821TIP3   OH256877   0.601   6.649   3.489  0.4414  0.0220  0.3427
11821TIP3    H156878   0.582   6.710   3.561  0.7977  1.0823 -0.4378
11821TIP3    H256879   0.640   6.573   3.532 -1.1280 -0.2062  1.4678
11822TIP3   OH256880   0.750   3.860  16.062 -0.5118 -0.1864 -0.5728
11822TIP3    H156881   0.696   3.938  16.074 -1.0239 -0.5879 -0.2938
11822TIP3    H256882   0.790   3.872  15.976  0.5219  1.0636  0.0454
11823TIP3   OH256883   3.805   1.319   5.107  0.3038 -0.2815  0.5074
11823TIP3    H156884   3.766   1.296   5.022  0.5960 -0.0325  0.3050
11823TIP3    H256885   3.872   1.252   5.121  1.9296  1.0434 -0.6098
11824TIP3   OH256886   5.196   4.833   1.270 -0.4199  0.0220  0.1141
11824TIP3    H156887   5.112   4.788   1.265 -0.4084  0.0946 -1.2600
11824TIP3    H256888   5.259   4.765   1.292 -0.6438 -0.3153 -0.2724
11825TIP3   OH256889   3.837   6.206   3.281 -0.2015 -0.1123 -0.3796
11825TIP3    H156890   3.895   6.182   3.209  0.0078  1.4515 -0.7742
11825TIP3    H256891   3.895   6.219   3.356 -0.1082  0.7416 -0.5903
11826TIP3   OH256892   2.038   3.130   0.198 -0.9370  0.5867 -0.2716
11826TIP3    H156893   2.037   3.197   0.130  1.8553  0.5934 -0.3891
11826TIP3    H256894   2.023   3.048   0.151  0.1142  0.6803 -0.7778
11827TIP3   OH256895   4.567   2.301  13.177  0.1051 -0.7572  0.1343
11827TIP3    H156896   4.591   2.346  13.096 -2.0515  0.0685 -0.1036
11827TIP3    H256897   4.485   2.342  13.204  1.0372 -0.6010  3.0722
11828TIP3   OH256898   1.001   4.141   1.562  0.6381  0.0498  0.4810
11828TIP3    H156899   1.053   4.197   1.620 -1.2853  1.5295  0.8740
11828TIP3    H256900   1.014   4.178   1.475  0.0547  0.6192  0.6226
11829TIP3   OH256901   0.667   4.610   5.126 -0.5611 -0.2190  0.5620
11829TIP3    H156902   0.602   4.549   5.162  1.1258 -2.4365  0.0829
11829TIP3    H256903   0.662   4.597   5.031  0.6630 -0.5367  0.5309
11830TIP3   OH256904   5.707   2.302  15.749  0.4247  0.1314  0.7352
11830TIP3    H156905   5.754   2.286  15.831 -1.9314  0.8632  2.3276
11830TIP3    H256906   5.666   2.387  15.762 -0.7767 -0.1828 -0.8369
11831TIP3   OH256907   2.855   1.437  12.024  0.0259  0.2077  0.0545
11831TIP3    H156908   2.843   1.461  11.932 -1.1348  3.5196  0.9404
11831TIP3    H256909   2.767   1.419  12.055 -0.0736  2.5576  1.2896
11832TIP3   OH256910   6.395   3.782   0.887  0.4573 -0.0849 -0.4208
11832TIP3    H156911   6.342   3.706   0.911 -2.2850  1.4238 -1.3049
11832TIP3    H256912   6.417   3.823   0.971  0.2904 -0.7874 -0.0248
11833TIP3   OH256913   2.398   3.011  11.791 -0.7108 -0.4760 -0.6499
11833TIP3    H156914   2.445   3.049  11.717  0.3190 -1.7786 -0.7043
11833TIP3    H256915   2.325   2.965  11.751  0.1651 -1.6591 -0.9508
11834TIP3   OH256916   2.699   2.693   1.850 -0.1087  0.3426  0.3821
11834TIP3    H156917   2.711   2.689   1.755  2.1036 -2.5343  0.6526
11834TIP3    H256918   2.786   2.680   1.886 -0.8379  1.6837  2.8934
11835TIP3   OH256919   4.114   5.409  16.159 -0.2641 -0.2049 -0.1272
11835TIP3    H156920   4.173   5.481  16.181 -0.8143 -0.2037  1.4927
11835TIP3    H256921   4.071   5.387  16.242 -0.8633 -1.7196 -0.7995
11836TIP3   OH256922   5.085   0.541  11.390 -0.5977 -0.4300 -0.4368
11836TIP3    H156923   5.016   0.509  11.448  0.9053  0.1416  1.8033
11836TIP3    H256924   5.041   0.600  11.329 -2.1972 -0.7219  0.3932
11837TIP3   OH256925   2.557   3.620  16.753  0.1795 -0.0562 -0.1864
11837TIP3    H156926   2.512   3.636  16.670 -1.1509  0.5348  0.6192
11837TIP3    H256927   2.601   3.703  16.773 -1.9415  0.8178  1.1247
11838TIP3   OH256928   3.106   3.838  14.410  0.0787 -0.7898 -0.0325
11838TIP3    H156929   3.076   3.758  14.368  1.8692 -1.2005 -0.5854
11838TIP3    H256930   3.096   3.906  14.344  0.4793 -0.9528 -0.2630
11839TIP3   OH256931   0.755   1.596   4.278  0.7078  0.0016  1.1346
11839TIP3    H156932   0.697   1.612   4.352  0.2707 -0.2422  0.8513
11839TIP3    H256933   0.838   1.568   4.317 -0.2198 -2.4880  1.5100
11840TIP3   OH256934   2.185   0.882  16.523 -0.8941  0.4450 -0.3516
11840TIP3    H156935   2.170   0.841  16.438 -1.3809 -0.0630 -0.0183
11840TIP3    H256936   2.112   0.854  16.578 -1.4040  1.9680 -0.1919
11841TIP3   OH256937   2.895   5.688   6.063  0.6951 -0.5203 -0.2422
11841TIP3    H156938   2.901   5.612   6.004  1.7231 -0.9101  0.3346
11841TIP3    H256939   2.986   5.710   6.082  0.3896  0.3588  0.2495
11842TIP3   OH256940   5.199   4.120  12.348 -0.7858  0.0910 -0.1659
11842TIP3    H156941   5.126   4.080  12.396 -0.2382 -0.2390  0.3977
11842TIP3    H256942   5.159   4.194  12.303 -1.0510  1.4165  2.0712
11843TIP3   OH256943   5.072   6.527   5.006  0.6148  0.3687  0.0251
11843TIP3    H156944   5.015   6.462   4.964  0.9294 -0.5067  0.9185
11843TIP3    H256945   5.153   6.524   4.955  1.8093 -2.2467  1.8596
11844TIP3   OH256946   3.085   3.739  16.282 -0.0144 -0.1472  0.6841
11844TIP3    H156947   3.128   3.823  16.269 -0.1745  0.0126  1.1464
11844TIP3    H256948   3.155   3.678  16.303  0.1899 -0.3033 -0.4009
11845TIP3   OH256949   0.604   1.720  11.711  0.8589 -0.0925  0.4003
11845TIP3    H156950   0.544   1.772  11.657  0.5521 -1.1868 -0.3385
11845TIP3    H256951   0.661   1.785  11.752  0.5084  0.8290 -0.5273
11846TIP3   OH256952   5.777   6.741  15.059 -0.2225  0.3937 -0.3395
11846TIP3    H156953   5.758   6.666  15.003  0.7738  2.3500 -3.6009
11846TIP3    H256954   5.873   6.746  15.060 -0.2295  0.5956  1.3742
11847TIP3   OH256955   0.233   4.813   0.470 -0.1599 -0.1899 -0.0996
11847TIP3    H156956   0.244   4.811   0.375  0.2301 -0.1429 -0.0533
11847TIP3    H256957   0.307   4.764   0.505 -1.0853 -1.5033  0.1189
11848TIP3   OH256958   1.033   2.113   3.176 -0.3602  0.2764  0.1805
11848TIP3    H156959   1.053   2.038   3.121 -0.0262  1.3779 -1.2595
11848TIP3    H256960   1.005   2.075   3.260  0.2801 -1.4183 -0.3380
11849TIP3   OH256961   3.621   2.209   3.486 -0.1498 -0.2642  0.5534
11849TIP3    H156962   3.654   2.159   3.411  1.0071 -0.0352  0.8989
11849TIP3    H256963   3.536   2.241   3.456 -0.0988 -0.9084 -0.3413
11850TIP3   OH256964   2.930   5.628   0.014  0.3523  0.8151 -0.0557
11850TIP3    H156965   2.970   5.715   0.018  0.3555  0.8227 -0.2338
11850TIP3    H256966   2.956   5.594  -0.072  3.1406 -0.6871  1.2524
11851TIP3   OH256967   0.930   5.888  14.861 -0.1025  0.0581 -0.7199
11851TIP3    H156968   0.853   5.844  14.896  0.9106 -0.1211  1.3828
11851TIP3    H256969   0.921   5.979  14.890 -0.8428  0.6976 -2.7855
11852TIP3   OH256970   5.182   5.835  14.458  0.1325  0.0157 -0.0824
11852TIP3    H156971   5.244   5.779  14.504  0.9000  0.0323 -1.0547
11852TIP3    H256972   5.096   5.803  14.484  0.4933  0.6379  2.0883
11853TIP3   OH256973   2.038   1.682  10.688  0.3283  0.2177 -0.2934
11853TIP3    H156974   2.093   1.696  10.765 -0.1906 -0.2015  0.1619
11853TIP3    H256975   2.072   1.744  10.623  1.3415 -0.0400 -0.0316
11854TIP3   OH256976   0.701   3.185   6.025 -0.7619  0.1459 -0.0174
11854TIP3    H156977   0.688   3.256   6.088 -0.7380  0.2706 -0.1542
11854TIP3    H256978   0.760   3.124   6.070  1.7986  1.7089 -1.0653
11855TIP3   OH256979   5.276   3.269  13.195 -0.3278  0.2007  0.3190
11855TIP3    H156980   5.319   3.331  13.135  0.8879  0.3484  1.2943
11855TIP3    H256981   5.280   3.185  13.149 -1.3316  0.6868 -0.7035
11856TIP3   OH256982   0.192   4.271  14.355  0.7001 -0.1099  0.1629
11856TIP3    H156983   0.111   4.239  14.395  0.2223  1.5981  0.6332
11856TIP3    H256984   0.209   4.210  14.282 -1.9704  0.4864 -1.0640
11857TIP3   OH256985   4.619   0.157  13.826  0.1246 -0.5518 -0.2721
11857TIP3    H156986   4.688   0.213  13.791 -1.5723  1.1510 -1.1038
11857TIP3    H256987   4.649   0.068  13.809  1.0225  0.1499 -2.8397
11858TIP3   OH256988   4.672   6.139   4.663  0.3685 -0.7758  0.5279
11858TIP3    H156989   4.579   6.123   4.651 -0.0646  1.5391  0.3594
11858TIP3    H256990   4.710   6.132   4.576 -0.0593  0.4058  0.2230
11859TIP3   OH256991   3.105   6.394  16.522  0.0071  0.4688  0.0924
11859TIP3    H156992   3.198   6.404  16.543 -0.1105  0.9681  0.4085
11859TIP3    H256993   3.103   6.382  16.427  0.6433 -2.9278  0.3750
11860TIP3   OH256994   6.212   4.632   3.059  0.2397 -0.1643 -0.3513
11860TIP3    H156995   6.165   4.713   3.080  1.2613  0.1730  0.7567
11860TIP3    H256996   6.206   4.579   3.138 -2.6663 -2.3923 -1.8522
11861TIP3   OH256997   5.496   2.729   2.026 -0.5731 -0.4773 -0.3091
11861TIP3    H156998   5.435   2.665   2.062 -0.6999  0.0173  0.3652
11861TIP3    H256999   5.572   2.677   1.998 -0.9533 -0.9946 -0.3859
11862TIP3   OH257000   2.512   6.636  16.230  0.8471  0.1224  0.4077
11862TIP3    H157001   2.569   6.599  16.162 -0.8063 -2.0818  0.0898
11862TIP3    H257002   2.447   6.687  16.181  0.7583  0.0901  0.4910
11863TIP3   OH257003   1.052   3.863  13.449 -0.0833  0.4428 -0.1154
11863TIP3    H157004   0.975   3.882  13.396 -0.3515  2.8130  0.9637
11863TIP3    H257005   1.026   3.885  13.538  0.8358 -1.9522  0.8064
11864TIP3   OH257006   5.868   5.734  11.201  0.0734  0.2233  0.1448
11864TIP3    H157007   5.869   5.642  11.228 -0.5863 -0.2105 -1.2184
11864TIP3    H257008   5.913   5.734  11.116  1.5478  1.4434  0.8745
11865TIP3   OH257009   0.277   5.312  16.293  0.2487 -0.3867  0.7418
11865TIP3    H157010   0.306   5.241  16.237 -0.9620 -0.0457 -0.3673
11865TIP3    H257011   0.261   5.385  16.233 -0.7605  0.0922  1.5579
11866TIP3   OH257012   3.243   2.248  11.922 -0.2258 -0.4935 -0.4052
11866TIP3    H157013   3.328   2.288  11.905 -0.7633  0.5835 -0.6371
11866TIP3    H257014   3.255   2.156  11.899  0.9771 -0.4372 -0.0578
11867TIP3   OH257015   6.115   4.374   3.792  0.3774  0.6752  0.2523
11867TIP3    H157016   6.143   4.306   3.732  0.7084 -0.8900  2.0778
11867TIP3    H257017   6.098   4.328   3.875 -0.3163  2.6722  1.3001
11868TIP3   OH257018   3.575   6.131  15.886 -0.2856 -0.3116 -0.5622
11868TIP3    H157019   3.566   6.223  15.910 -0.9440 -0.6972  0.7503
11868TIP3    H257020   3.524   6.123  15.804 -2.0153  0.0795  0.4193
11869TIP3   OH257021   2.963   2.688  14.143 -0.1206  0.2891 -0.4268
11869TIP3    H157022   2.950   2.782  14.155  2.5174  0.5603  1.2561
11869TIP3    H257023   2.889   2.648  14.188 -0.2193  1.5720  0.6362
11870TIP3   OH257024   4.736   4.993   0.287 -0.7061  0.4600 -0.4320
11870TIP3    H157025   4.708   5.055   0.219  0.7630  0.7411 -0.8109
11870TIP3    H257026   4.682   4.915   0.272 -2.9003  1.7498  0.3218
11871TIP3   OH257027   6.487   1.936  13.320 -0.0428  0.1767  0.8010
11871TIP3    H157028   6.417   1.988  13.281  1.5356  0.9701 -1.1480
11871TIP3    H257029   6.453   1.847  13.323 -1.3887  0.6617  0.6011
11872TIP3   OH257030   4.316   4.263  14.307 -0.2752  0.2713  0.9945
11872TIP3    H157031   4.369   4.189  14.276 -1.2852 -0.2428  0.4211
11872TIP3    H257032   4.225   4.232  14.299 -0.7344  1.6495  0.5349
11873TIP3   OH257033   1.739   2.108  12.427  0.0761  0.1979 -0.3331
11873TIP3    H157034   1.807   2.061  12.475 -1.9774 -1.7892  0.8151
11873TIP3    H257035   1.747   2.199  12.456  1.9255 -0.0606  0.0814
11874TIP3   OH257036   0.615   3.801  12.978 -0.1750  0.1645  0.0129
11874TIP3    H157037   0.690   3.845  13.019 -0.0905  1.0241 -1.0228
11874TIP3    H257038   0.632   3.708  12.993  0.7101  0.3821  0.4670
11875TIP3   OH257039   1.443   1.241   5.102 -0.1823 -0.1074 -0.5031
11875TIP3    H157040   1.379   1.170   5.108  0.2129 -0.3758  0.9327
11875TIP3    H257041   1.426   1.295   5.179  0.5980  0.4299 -0.6948
11876TIP3   OH257042   6.478   5.316   4.178 -0.2560  0.9300  0.2821
11876TIP3    H157043   6.400   5.318   4.234  0.7943 -0.2827  1.8963
11876TIP3    H257044   6.493   5.223   4.162  0.1195  1.2228 -1.1200
11877TIP3   OH257045   1.616   0.499   2.999  0.1401  0.3007 -0.1240
11877TIP3    H157046   1.673   0.425   2.979  0.4301 -0.0095  1.6622
11877TIP3    H257047   1.650   0.571   2.945  1.7060 -0.0984  0.2773
11878TIP3   OH257048   2.595   5.692  13.538  0.3090 -0.6078  0.0227
11878TIP3    H157049   2.546   5.622  13.495  0.6571 -0.6754 -0.2638
11878TIP3    H257050   2.542   5.714  13.616  0.0993 -1.0454  0.0060
11879TIP3   OH257051   6.335   4.529  17.302  0.2652  0.2113  0.5869
11879TIP3    H157052   6.413   4.491  17.343  0.5233 -0.5994 -0.5999
11879TIP3    H257053   6.310   4.601  17.360  0.8138 -0.6595  1.9505
11880TIP3   OH257054   3.053   3.870   5.393  0.3791 -0.0523  0.1614
11880TIP3    H157055   3.066   3.776   5.385  1.8403  0.0633  0.8208
11880TIP3    H257056   3.061   3.903   5.304  1.0200 -0.4378  0.0680
11881TIP3   OH257057   6.737   6.555   4.807 -0.2662 -0.0742 -0.4999
11881TIP3    H157058   6.695   6.636   4.834 -1.1954 -0.6966 -0.0102
11881TIP3    H257059   6.732   6.499   4.885  2.3204  0.1248 -0.1050
11882TIP3   OH257060   5.770   5.493   1.580  0.0825  0.3338 -0.2485
11882TIP3    H157061   5.675   5.485   1.588  0.1117  1.1552  1.0797
11882TIP3    H257062   5.783   5.540   1.497 -0.7848  2.2322  0.6489
11883TIP3   OH257063   6.578   1.621  12.813  0.5563 -0.1654 -0.2772
11883TIP3    H157064   6.523   1.633  12.735  0.6705 -0.4661 -0.4059
11883TIP3    H257065   6.621   1.706  12.825  0.6224 -0.1497 -0.6095
11884TIP3   OH257066   5.392   1.247   5.364 -0.1394  0.2446 -0.0028
11884TIP3    H157067   5.355   1.254   5.276 -1.8901  0.5851  0.7339
11884TIP3    H257068   5.369   1.160   5.394 -0.1486  0.3780  0.3850
11885TIP3   OH257069   4.482   1.491  16.807 -0.6572  0.5754  0.2032
11885TIP3    H157070   4.489   1.429  16.734 -2.0032 -0.8559  1.2393
11885TIP3    H257071   4.474   1.576  16.765 -1.8185 -0.2493 -1.3505
11886TIP3   OH257072   2.871   4.897   3.301  0.2208 -0.6256  0.1534
11886TIP3    H157073   2.815   4.927   3.372  1.2758  3.0804 -0.3465
11886TIP3    H257074   2.811   4.882   3.228 -0.3487  3.7316 -0.5338
11887TIP3   OH257075   2.852   0.423   2.874  0.4757  0.1170  0.6299
11887TIP3    H157076   2.881   0.348   2.926  1.7201 -0.5679 -0.9551
11887TIP3    H257077   2.820   0.384   2.792  1.9161  1.3314 -0.5663
11888TIP3   OH257078   1.853   4.643  12.204  0.1799 -0.1736  0.2986
11888TIP3    H157079   1.816   4.700  12.136 -0.0120 -0.6752 -0.0232
11888TIP3    H257080   1.789   4.646  12.275 -0.0326 -0.3224  0.1123
11889TIP3   OH257081   0.160   1.002  15.460 -0.0224 -0.3811  0.3344
11889TIP3    H157082   0.068   0.998  15.488 -0.3609 -3.1704 -0.8231
11889TIP3    H257083   0.210   0.984  15.539 -0.7864 -4.0254  0.1530
11890TIP3   OH257084   2.393   0.603  16.085 -0.3362  0.4187  0.5659
11890TIP3    H157085   2.376   0.694  16.062 -0.0128 -0.0017 -1.4898
11890TIP3    H257086   2.307   0.569  16.110 -0.8730  0.7335 -0.7748
11891TIP3   OH257087   4.222   4.457   1.779 -0.3402 -0.3498  0.0533
11891TIP3    H157088   4.180   4.498   1.855 -0.1380  0.2336 -0.1445
11891TIP3    H257089   4.175   4.493   1.703 -0.0404 -0.3453 -0.1303
11892TIP3   OH257090   1.595   2.737  11.176 -0.0334 -0.2400 -0.2134
11892TIP3    H157091   1.651   2.714  11.250 -0.2894 -0.1151  0.0196
11892TIP3    H257092   1.568   2.827  11.194 -0.0794 -0.2026 -0.4712
11893TIP3   OH257093   2.900   4.853  14.413 -0.3403 -0.7865  0.3347
11893TIP3    H157094   2.930   4.908  14.341 -1.8496 -1.5142 -0.9220
11893TIP3    H257095   2.975   4.798  14.435  0.2692 -0.2629 -0.3954
11894TIP3   OH257096   6.192   3.732   1.563  0.2545 -0.4839  0.3995
11894TIP3    H157097   6.276   3.686   1.572 -0.4076 -1.6846  0.5802
11894TIP3    H257098   6.178   3.774   1.648  0.3557 -0.8331  0.5893
11895TIP3   OH257099   1.788   3.549  11.433  0.8254 -0.8773  0.5578
11895TIP3    H157100   1.698   3.548  11.399  0.7890 -0.4558  0.6447
11895TIP3    H257101   1.809   3.641  11.444  1.5692 -0.9409 -0.2299
11896TIP3   OH257102   1.765   4.740   4.351  0.4228  0.2194  0.2636
11896TIP3    H157103   1.780   4.656   4.309  1.9001  1.1055 -1.1436
11896TIP3    H257104   1.730   4.719   4.437  1.0950 -1.8357  0.0788
11897TIP3   OH257105   5.599   3.465  14.441  0.4574  0.1752 -0.0916
11897TIP3    H157106   5.681   3.430  14.474  0.5551  1.2763  0.9205
11897TIP3    H257107   5.604   3.454  14.346  1.7856  0.2501 -0.0432
11898TIP3   OH257108   2.429   4.897  13.045  0.5461 -0.5739  0.3046
11898TIP3    H157109   2.349   4.940  13.076  1.2316 -0.8183  2.6125
11898TIP3    H257110   2.470   4.962  12.988 -0.6108  0.0892  0.1924
11899TIP3   OH257111   5.793   4.721  12.253 -0.1728  0.0126  0.0625
11899TIP3    H157112   5.797   4.666  12.331  0.4930  0.3471  0.2730
11899TIP3    H257113   5.882   4.719  12.218 -0.1779  0.8076 -0.0209
11900TIP3   OH257114   4.436   3.271  16.894  0.4378  0.0707  0.4287
11900TIP3    H157115   4.475   3.211  16.831 -0.2099  0.4161 -0.3195
11900TIP3    H257116   4.411   3.216  16.969 -2.0702 -0.9898 -1.0859
11901TIP3   OH257117   5.303   0.931   5.032 -0.4603  0.2699  0.3629
11901TIP3    H157118   5.208   0.934   5.024 -0.7509  0.2062  2.8978
11901TIP3    H257119   5.324   0.838   5.039 -0.4495  0.3539  1.6609
11902TIP3   OH257120   3.117   4.982  13.902 -0.3427  0.3666 -0.1855
11902TIP3    H157121   3.133   5.074  13.881 -0.0369  0.4426  0.3533
11902TIP3    H257122   3.133   4.977  13.996  1.4248 -0.6206 -0.5114
11903TIP3   OH257123   4.133   6.263  13.859 -0.1410  0.3523 -0.1858
11903TIP3    H157124   4.137   6.180  13.812  0.4182  0.1280  0.2526
11903TIP3    H257125   4.093   6.324  13.797  1.0234  0.1849 -1.1273
11904TIP3   OH257126   0.183   4.720   1.188 -0.3727  0.5677  0.0123
11904TIP3    H157127   0.100   4.725   1.236 -0.1934  0.3623  0.3432
11904TIP3    H257128   0.229   4.800   1.211  0.6133 -0.4505  1.8566
11905TIP3   OH257129   1.819   1.186   0.376 -0.2926 -0.1441  0.0970
11905TIP3    H157130   1.873   1.108   0.390  0.0353  0.0774  0.0468
11905TIP3    H257131   1.856   1.253   0.433  0.5341  0.5069 -1.1674
11906TIP3   OH257132   0.083   5.133   2.910  0.1581 -0.2374 -0.6332
11906TIP3    H157133   0.048   5.159   2.824  2.2960 -1.5649 -1.9752
11906TIP3    H257134   0.030   5.057   2.935  0.3440 -0.6205 -1.3810
11907TIP3   OH257135   3.327   0.511  14.107 -0.0033 -0.3862 -0.3102
11907TIP3    H157136   3.338   0.572  14.180 -0.2592  0.3660 -0.8964
11907TIP3    H257137   3.270   0.443  14.142  0.5487 -0.4810  0.4513
11908TIP3   OH257138   5.697   2.844  15.479 -0.6488 -0.4414  0.0477
11908TIP3    H157139   5.635   2.785  15.434 -1.3275  0.0841  0.2693
11908TIP3    H257140   5.748   2.786  15.536 -1.4332 -0.8102  0.4001
11909TIP3   OH257141   4.950   0.184  12.294 -0.2577  0.8473  0.5959
11909TIP3    H157142   4.888   0.257  12.297 -1.5823 -0.2676  1.2571
11909TIP3    H257143   4.903   0.110  12.333  1.3456 -0.1555  0.7281
11910TIP3   OH257144   1.742   2.674  15.388  0.1458 -0.0577 -0.1743
11910TIP3    H157145   1.724   2.618  15.464 -0.4925  1.0216  0.4973
11910TIP3    H257146   1.659   2.719  15.371  0.7299  0.9327 -0.4813
11911TIP3   OH257147   0.241   0.141  11.717 -0.3374 -0.1413  0.3883
11911TIP3    H157148   0.332   0.163  11.739  0.2924 -1.1177 -1.0956
11911TIP3    H257149   0.208   0.219  11.673 -0.5030  0.5228  1.6461
11912TIP3   OH257150   3.189   0.558  11.607  0.1542  0.6183 -0.1044
11912TIP3    H157151   3.199   0.531  11.698 -0.9441 -0.5618 -0.3121
11912TIP3    H257152   3.157   0.480  11.562 -0.5823  1.5510 -1.2580
11913TIP3   OH257153   1.077   5.659  14.629 -0.3360 -0.2333 -0.1781
11913TIP3    H157154   0.992   5.626  14.659 -0.0331  0.2490  1.2702
11913TIP3    H257155   1.135   5.646  14.703  0.3714  1.3392 -0.4244
11914TIP3   OH257156   5.193   4.635   1.593  0.0097  0.3795  0.3671
11914TIP3    H157157   5.282   4.628   1.625  0.5289  1.1954 -0.8394
11914TIP3    H257158   5.181   4.558   1.537 -0.8279 -0.9295  2.1939
11915TIP3   OH257159   2.950   2.688   5.526  0.4376 -0.1810  0.3282
11915TIP3    H157160   2.913   2.649   5.606  0.4895  0.3881  0.6385
11915TIP3    H257161   2.897   2.766   5.511  0.5547 -0.1808 -0.0883
11916TIP3   OH257162   0.404   6.175  17.310 -0.1917 -0.6157 -0.2615
11916TIP3    H157163   0.347   6.146  17.381  0.6940  2.5564  1.9394
11916TIP3    H257164   0.465   6.103  17.297 -0.9335 -1.6412  1.5986
11917TIP3   OH257165   3.612   0.471  13.996 -0.0073 -0.6607  0.7300
11917TIP3    H157166   3.549   0.515  14.053  0.4901 -1.4231  1.9100
11917TIP3    H257167   3.693   0.521  14.005 -0.6702  1.0127 -1.6774
11918TIP3   OH257168   1.678   2.072   4.189  0.4413  0.1581 -0.2594
11918TIP3    H157169   1.595   2.115   4.166 -0.2968 -0.7546  0.6144
11918TIP3    H257170   1.685   1.999   4.127  0.4489  0.0589 -0.1409
11919TIP3   OH257171   5.335   5.239  12.420  0.0087  0.0883 -0.0190
11919TIP3    H157172   5.392   5.308  12.386 -0.9509  1.1898  0.5287
11919TIP3    H257173   5.394   5.175  12.459  0.8777  1.2332  0.5936
11920TIP3   OH257174   5.032   1.225   1.954  0.4529  0.0818 -0.1283
11920TIP3    H157175   5.088   1.152   1.926  1.5423  0.2539  1.4452
11920TIP3    H257176   4.952   1.183   1.985  0.6003 -0.3621 -0.3317
11921TIP3   OH257177   5.721   1.785  14.690 -0.7481  0.4200 -0.4916
11921TIP3    H157178   5.649   1.764  14.630 -0.0746 -0.0532 -1.1626
11921TIP3    H257179   5.799   1.751  14.646  0.3808  3.7846 -1.3943
11922TIP3   OH257180   3.487   4.033   2.691 -0.3007  0.2179 -0.4490
11922TIP3    H157181   3.570   4.052   2.648 -0.4109  0.9852 -0.3354
11922TIP3    H257182   3.462   4.115   2.733 -0.6707 -0.2588  0.2814
11923TIP3   OH257183   0.950   4.622   0.093 -0.0969  0.4478  0.6017
11923TIP3    H157184   0.983   4.633   0.182  0.0083  0.1143  0.6064
11923TIP3    H257185   1.025   4.643   0.037  0.2453 -0.6589  0.6179
11924TIP3   OH257186   6.433   5.665   6.036 -0.4527 -0.3988  0.0729
11924TIP3    H157187   6.437   5.584   5.986  0.0290 -0.2745 -0.1000
11924TIP3    H257188   6.343   5.671   6.066 -0.4741 -1.0319  0.1409
11925TIP3   OH257189   1.973   0.082   6.383 -0.0268  0.0476 -0.2692
11925TIP3    H157190   2.042   0.132   6.425  1.5268 -0.6777 -1.8254
11925TIP3    H257191   2.002  -0.009   6.388 -1.3718 -0.3917 -0.0553
11926TIP3   OH257192   3.394   1.765   2.922  0.0448  0.7083 -0.4488
11926TIP3    H157193   3.338   1.709   2.867 -0.1494  2.8513 -2.5868
11926TIP3    H257194   3.482   1.732   2.906 -0.2542 -0.4811  0.2196
11927TIP3   OH257195   0.472   5.678   2.810  1.2156 -0.6372 -0.2500
11927TIP3    H157196   0.478   5.715   2.722 -0.5704 -0.8364 -0.5106
11927TIP3    H257197   0.380   5.692   2.834  1.5341 -1.1499  1.3328
11928TIP3   OH257198   3.415   1.629   6.102  0.2891  0.6658  0.1493
11928TIP3    H157199   3.364   1.594   6.175  2.9213 -0.6642  1.4897
11928TIP3    H257200   3.492   1.572   6.096  2.0989  3.0316 -1.1513
11929TIP3   OH257201   4.331   4.089  14.035  0.3038  0.5888  0.2567
11929TIP3    H157202   4.407   4.073  14.092  0.0215 -0.8722  0.2613
11929TIP3    H257203   4.276   4.011  14.047 -1.7306  2.0652  1.0526
11930TIP3   OH257204   0.186   2.786  17.075  0.1998 -0.3996 -0.5014
11930TIP3    H157205   0.090   2.791  17.080  0.2583  0.6188 -0.1197
11930TIP3    H257206   0.214   2.877  17.072  1.1627 -0.6927 -0.6770
11931TIP3   OH257207   3.191   5.414   4.391 -0.0859  0.4874 -0.4689
11931TIP3    H157208   3.254   5.465   4.341  0.9022 -0.1946  0.0375
11931TIP3    H257209   3.115   5.406   4.334  0.4357  0.9891 -1.2506
11932TIP3   OH257210   3.612   3.015   4.054  0.4018 -0.5684 -0.5120
11932TIP3    H157211   3.696   3.058   4.073  0.8413  0.0329 -3.3349
11932TIP3    H257212   3.548   3.087   4.056  0.2841 -0.6767 -0.3652
11933TIP3   OH257213   0.624   5.425   2.528 -0.0097  0.8264  0.1312
11933TIP3    H157214   0.555   5.387   2.583  0.3811  2.1620  1.6157
11933TIP3    H257215   0.701   5.371   2.544 -0.4231 -0.0335 -0.7213
11934TIP3   OH257216   2.861   3.246   5.837  0.4770 -0.3417  0.6185
11934TIP3    H157217   2.867   3.185   5.910 -0.9075 -1.2967 -0.0316
11934TIP3    H257218   2.780   3.223   5.792  1.4382 -0.0014 -1.4094
11935TIP3   OH257219   5.472   4.039   1.248 -0.0562 -0.1118 -0.1495
11935TIP3    H157220   5.515   4.020   1.332  0.8804  3.4111  0.3464
11935TIP3    H257221   5.517   3.984   1.185  2.0464  0.0627  1.1020
11936TIP3   OH257222   0.405   4.557  14.310 -0.0330 -0.2308  0.1304
11936TIP3    H157223   0.319   4.543  14.351 -0.7218 -0.3276 -1.2778
11936TIP3    H257224   0.432   4.470  14.281  1.1332 -0.4042  1.5994
11937TIP3   OH257225   1.315   5.406  12.387  0.0285  0.4184  0.1369
11937TIP3    H157226   1.227   5.436  12.364 -1.2072 -2.9703 -0.1819
11937TIP3    H257227   1.346   5.361  12.309  1.3687  0.1813  0.7863
11938TIP3   OH257228   2.836   3.855  12.223 -0.1655 -0.1984 -0.6353
11938TIP3    H157229   2.774   3.822  12.158 -1.5622 -0.8978  0.9727
11938TIP3    H257230   2.808   3.945  12.240  0.7093  0.2706 -1.5526
11939TIP3   OH257231   4.363   5.422  15.029 -0.0082  0.5166  0.3340
11939TIP3    H157232   4.304   5.408  14.955 -0.2840 -0.7725  0.7738
11939TIP3    H257233   4.317   5.385  15.104  0.4065  1.5188  1.1070
11940TIP3   OH257234   3.378   1.057  14.918 -0.5611 -0.2205 -0.3528
11940TIP3    H157235   3.447   1.078  14.981 -1.1738 -2.2573  1.1351
11940TIP3    H257236   3.309   1.122  14.935 -0.5886 -0.5471  0.9389
11941TIP3   OH257237   4.061   4.569  12.297 -0.3254  0.0929  0.2934
11941TIP3    H157238   4.067   4.656  12.335 -1.0652 -0.6871  2.3934
11941TIP3    H257239   4.137   4.522  12.332  2.2566  0.7945 -3.7825
11942TIP3   OH257240   2.231   3.267   5.857  0.5275  0.2314  0.2703
11942TIP3    H157241   2.322   3.247   5.832  0.2704  1.4832 -1.9103
11942TIP3    H257242   2.181   3.192   5.826  0.6304  0.2530  0.0479
11943TIP3   OH257243   3.184   6.482  15.347  0.8946 -0.6309  0.7574
11943TIP3    H157244   3.270   6.516  15.371  1.1354 -0.1493 -0.6890
11943TIP3    H257245   3.147   6.450  15.429  1.1727  1.9871  2.0244
11944TIP3   OH257246   1.719   2.736   3.013  0.3323  0.2237 -0.1343
11944TIP3    H157247   1.667   2.747   2.933  0.6411  2.5520 -0.0681
11944TIP3    H257248   1.696   2.648   3.044 -0.3741 -0.4467 -2.3538
11945TIP3   OH257249   3.668   5.191   3.178  0.4730  0.2942  0.3350
11945TIP3    H157250   3.721   5.231   3.247  0.1476  0.4372  0.5069
11945TIP3    H257251   3.578   5.209   3.204  0.3548  2.0166 -1.1000
11946TIP3   OH257252   1.176   4.032  17.284  0.0479 -0.0965 -0.1665
11946TIP3    H157253   1.127   3.996  17.358 -0.6609 -0.2266 -0.6877
11946TIP3    H257254   1.230   3.960  17.254  0.3269 -0.0487  0.2071
11947TIP3   OH257255   5.079   2.209   4.326 -0.0143  0.1406 -0.3886
11947TIP3    H157256   5.171   2.224   4.349 -0.7328  2.3186  1.4613
11947TIP3    H257257   5.047   2.295   4.301 -1.3063 -0.8001 -2.1168
11948TIP3   OH257258   6.580   6.199  14.533  0.0403 -0.1249  0.4229
11948TIP3    H157259   6.598   6.153  14.450 -2.4413  1.4522 -1.1175
11948TIP3    H257260   6.667   6.219  14.568  1.2016 -0.8659 -1.7989
11949TIP3   OH257261   4.607   1.833   3.204 -0.0661  0.4248 -0.0041
11949TIP3    H157262   4.613   1.759   3.265  3.0642  0.0460 -0.6039
11949TIP3    H257263   4.659   1.902   3.245 -0.9786  1.4867 -0.5728
11950TIP3   OH257264   3.285   4.773   2.066 -0.0069  0.7841 -0.4355
11950TIP3    H157265   3.262   4.828   1.990 -0.9369 -0.5378 -1.1449
11950TIP3    H257266   3.378   4.756   2.055 -0.1701  0.4257 -1.4276
11951TIP3   OH257267   4.638   5.628  11.767  0.1289  0.0957  0.5405
11951TIP3    H157268   4.560   5.609  11.819 -0.6612 -0.7700 -0.8796
11951TIP3    H257269   4.643   5.555  11.705 -0.0213  1.9418 -1.7792
11952TIP3   OH257270   0.882   6.301   3.562 -0.5817 -0.0065  0.5437
11952TIP3    H157271   0.887   6.209   3.536 -0.2126  0.0305  0.4827
11952TIP3    H257272   0.905   6.350   3.483 -2.0284  0.1848  0.2110
11953TIP3   OH257273   5.617   4.186   6.249 -0.6006  0.4777  0.8003
11953TIP3    H157274   5.680   4.233   6.302  0.2981  0.3198 -0.1079
11953TIP3    H257275   5.533   4.197   6.295 -0.3608  2.6515  0.7834
11954TIP3   OH257276   6.483   4.903  13.405  0.4478  0.3765  0.0093
11954TIP3    H157277   6.548   4.887  13.474 -0.2250 -0.3405  0.4973
11954TIP3    H257278   6.498   4.994  13.379  1.7362  0.1835  0.0012
11955TIP3   OH257279   6.227   3.889   5.494 -0.2557  0.4058  0.6929
11955TIP3    H157280   6.139   3.863   5.466  0.4008  0.6122 -1.7601
11955TIP3    H257281   6.227   3.873   5.588 -2.7301 -0.1281  0.6812
11956TIP3   OH257282   4.843   3.588   5.680  0.3562  0.0251 -0.2058
11956TIP3    H157283   4.775   3.568   5.615  0.9714 -1.3076 -0.4596
11956TIP3    H257284   4.827   3.528   5.752  0.8096  0.2303  0.0700
11957TIP3   OH257285   1.296   3.848   3.867 -0.1645 -0.3376 -0.3416
11957TIP3    H157286   1.320   3.778   3.807  2.6582  0.6855 -0.5836
11957TIP3    H257287   1.240   3.806   3.932  0.3700 -2.4969 -1.1872
11958TIP3   OH257288   4.783   5.850  10.405  0.0204 -0.4914 -0.5789
11958TIP3    H157289   4.694   5.867  10.375 -0.6093 -1.2418  0.8117
11958TIP3    H257290   4.828   5.934  10.395 -2.1673  1.4075  3.2966
11959TIP3   OH257291   6.058   4.563   4.199  0.6435 -0.3719  0.4383
11959TIP3    H157292   5.996   4.499   4.162  1.1961 -1.4636  1.3399
11959TIP3    H257293   6.052   4.550   4.293  1.1781  0.5480  0.6096
11960TIP3   OH257294   5.912   0.235   5.974 -0.3717  0.2354 -0.0163
11960TIP3    H157295   5.924   0.140   5.979 -2.4428 -0.0449  0.4301
11960TIP3    H257296   5.879   0.261   6.060  0.1408  1.3758 -0.1363
11961TIP3   OH257297   4.011   2.128   3.874 -0.0284 -0.0870  0.5794
11961TIP3    H157298   4.101   2.131   3.843 -0.0091  1.7857  0.6815
11961TIP3    H257299   3.961   2.177   3.809 -0.3684  1.8688  2.1938
11962TIP3   OH257300   1.240   3.133  13.834  0.3989 -0.8653  0.0494
11962TIP3    H157301   1.283   3.170  13.911 -1.0463 -2.9557  2.0142
11962TIP3    H257302   1.200   3.208  13.790 -0.3260  0.2364  2.4295
11963TIP3   OH257303   3.546   3.139  16.742 -0.2314 -0.6103  0.0004
11963TIP3    H157304   3.632   3.176  16.722  0.6527 -1.1602  2.5566
11963TIP3    H257305   3.551   3.048  16.714 -0.8484 -0.1083 -1.9784
11964TIP3   OH257306   2.818   5.960   0.872 -0.8601 -0.3895  0.2255
11964TIP3    H157307   2.779   5.939   0.787 -0.0348 -0.6110 -0.1123
11964TIP3    H257308   2.808   6.054   0.881 -1.5050 -0.4522  0.1658
11965TIP3   OH257309   1.927   1.066   1.675 -0.3817 -0.3692  0.7391
11965TIP3    H157310   1.897   1.136   1.732  1.4773 -1.3990  3.1587
11965TIP3    H257311   2.014   1.093   1.646 -1.1871  0.0131 -1.5162
11966TIP3   OH257312   3.490   4.397   2.505 -0.2394  0.1382  0.0078
11966TIP3    H157313   3.535   4.481   2.495 -1.1107  0.7679  1.1971
11966TIP3    H257314   3.409   4.407   2.456 -0.0528 -0.2575 -0.3928
11967TIP3   OH257315   1.185   4.744  15.881  0.2732 -0.3432  0.0998
11967TIP3    H157316   1.154   4.774  15.966  3.2529  1.2189  0.7566
11967TIP3    H257317   1.148   4.806  15.818  0.2440  0.1224  0.5701
11968TIP3   OH257318   5.114   5.392  13.445  0.2517 -0.4869 -0.5955
11968TIP3    H157319   5.029   5.383  13.488  0.6790  0.1732  0.4253
11968TIP3    H257320   5.111   5.478  13.403  0.6588 -0.1541  0.0381
11969TIP3   OH257321   4.586   1.501  12.658 -0.1943  0.5968 -0.4205
11969TIP3    H157322   4.560   1.515  12.567 -0.1191 -0.8214 -0.6826
11969TIP3    H257323   4.534   1.564  12.707  1.0374  2.6179 -1.5751
11970TIP3   OH257324   4.844   2.924   5.652  0.3156 -0.3160 -0.0224
11970TIP3    H157325   4.766   2.977   5.635  0.3617 -0.1751  0.1944
11970TIP3    H257326   4.904   2.984   5.696  0.9412 -0.1495 -1.0766
11971TIP3   OH257327   0.639   0.025   1.075 -0.6101 -0.1739 -0.1184
11971TIP3    H157328   0.620   0.090   1.142  0.0883 -0.0378 -0.0468
11971TIP3    H257329   0.554   0.009   1.032 -0.4264  2.4311 -1.6537
11972TIP3   OH257330   0.224   0.668  17.313  0.2145  0.7713 -0.0985
11972TIP3    H157331   0.200   0.643  17.224 -0.0357  0.5384  0.0308
11972TIP3    H257332   0.319   0.658  17.317  0.3224  1.5468 -0.5742
11973TIP3   OH257333   2.468   1.269   2.262 -0.1341  0.1761 -0.4349
11973TIP3    H157334   2.454   1.363   2.251 -1.1395 -0.0908 -1.7636
11973TIP3    H257335   2.501   1.239   2.177  1.1196 -0.5230  0.2797
11974TIP3   OH257336   4.185   6.079   3.659  0.2861  0.0767  0.4336
11974TIP3    H157337   4.171   6.148   3.595 -0.3460 -0.5073 -0.0752
11974TIP3    H257338   4.145   6.002   3.620  0.7967 -0.5330  1.0842
11975TIP3   OH257339   3.347   4.498  15.037 -0.0155 -0.3061  0.1303
11975TIP3    H157340   3.416   4.563  15.047 -0.8441  0.5591  0.3938
11975TIP3    H257341   3.317   4.480  15.126  2.0170 -3.1345  0.3623
11976TIP3   OH257342   1.968   3.746   2.614 -0.1444  0.2260 -0.3240
11976TIP3    H157343   1.953   3.757   2.521 -0.3808  2.6081 -0.0486
11976TIP3    H257344   1.888   3.704   2.646 -0.7675  0.9314 -0.9294
11977TIP3   OH257345   5.688   3.285  13.294 -0.5553 -0.1201  0.4908
11977TIP3    H157346   5.662   3.210  13.242 -0.3110 -0.5951  1.0409
11977TIP3    H257347   5.717   3.350  13.230 -1.5372 -0.1861 -0.0250
11978TIP3   OH257348   1.514   3.070   6.128 -0.4004 -0.4757  0.7061
11978TIP3    H157349   1.458   3.088   6.203 -1.7049  3.4439 -0.9360
11978TIP3    H257350   1.464   3.010   6.073 -0.7430 -0.9545  1.5256
11979TIP3   OH257351   3.126   6.633  10.939 -0.0533 -0.5419 -0.0530
11979TIP3    H157352   3.164   6.606  11.022 -0.3013  0.5043  0.4188
11979TIP3    H257353   3.201   6.660  10.885  0.0556 -0.6089  0.0658
11980TIP3   OH257354   5.872   0.880  16.830 -0.4756  0.1428 -0.0929
11980TIP3    H157355   5.813   0.823  16.781 -1.0105  0.2642  0.4005
11980TIP3    H257356   5.959   0.844  16.813 -0.9611 -2.2697  2.0494
11981TIP3   OH257357   5.090   3.527  17.147 -0.0759  0.2683 -0.1339
11981TIP3    H157358   5.108   3.557  17.058  1.4922  1.3913  0.5162
11981TIP3    H257359   5.170   3.482  17.174  0.1337  1.3972  1.2660
11982TIP3   OH257360   1.634   3.440  12.411 -0.4512  0.4963  0.3740
11982TIP3    H157361   1.722   3.402  12.413  1.0002  3.2309 -2.4221
11982TIP3    H257362   1.577   3.371  12.444  2.3118 -2.7370 -1.0379
11983TIP3   OH257363   1.803   0.213   2.471  0.2212  0.6279 -0.4951
11983TIP3    H157364   1.834   0.128   2.501  1.5201  1.0807 -0.4803
11983TIP3    H257365   1.883   0.262   2.452 -0.4490  2.3955  1.0050
11984TIP3   OH257366   4.031   2.362  17.220  0.3848  0.3946  0.1209
11984TIP3    H157367   4.019   2.391  17.311  4.2960  0.2630  0.8303
11984TIP3    H257368   4.024   2.267  17.225  0.6394  0.3840  0.2798
11985TIP3   OH257369   0.503   2.291   0.394 -0.2118 -0.0560  0.6738
11985TIP3    H157370   0.547   2.302   0.478 -2.4270 -0.5781  1.9497
11985TIP3    H257371   0.424   2.241   0.413 -0.6035 -0.5307 -1.7892
11986TIP3   OH257372   4.297   4.431   0.713 -0.3800  0.2851  0.4042
11986TIP3    H157373   4.392   4.434   0.706 -0.2947 -1.6600  0.1445
11986TIP3    H257374   4.273   4.345   0.677 -2.2951  1.0129 -0.1803
11987TIP3   OH257375   6.240   6.701  15.890  0.1053  0.1041 -0.3201
11987TIP3    H157376   6.165   6.659  15.932  0.2562 -0.0623 -0.2172
11987TIP3    H257377   6.226   6.795  15.905  0.5804  0.0107  0.8266
11988TIP3   OH257378   4.286   3.094  16.511  0.3743  0.1707  0.0045
11988TIP3    H157379   4.304   3.013  16.559 -2.7212 -1.5575 -1.4468
11988TIP3    H257380   4.298   3.070  16.419 -1.9511  0.8596 -0.5470
11989TIP3   OH257381   1.684   5.916   1.962  0.0181 -0.0758  0.0213
11989TIP3    H157382   1.595   5.920   1.997  0.2105  0.1958  0.4857
11989TIP3    H257383   1.738   5.957   2.029  0.3455  0.7628 -0.7193
11990TIP3   OH257384   0.896   1.657  15.463 -0.0841  0.9314 -0.4982
11990TIP3    H157385   0.929   1.724  15.523  0.4894  0.3336 -0.1403
11990TIP3    H257386   0.937   1.678  15.379  1.0142  0.3492 -0.1171
11991TIP3   OH257387   5.981   5.080  15.251 -0.3544 -0.7527  0.2052
11991TIP3    H157388   5.995   5.015  15.182 -1.5042 -0.0036 -0.7739
11991TIP3    H257389   5.973   5.028  15.331 -2.0282 -1.9319 -0.6637
11992TIP3   OH257390   4.257   1.792  17.017  0.7700 -0.4907 -0.0620
11992TIP3    H157391   4.247   1.711  16.968  3.2647 -1.0576  0.2582
11992TIP3    H257392   4.324   1.773  17.082 -0.2978  1.1343  1.6427
11993TIP3   OH257393   4.381   0.474   4.630  0.0886  0.6736 -0.4136
11993TIP3    H157394   4.369   0.513   4.543 -1.7313 -0.7843 -0.8848
11993TIP3    H257395   4.470   0.497   4.655  1.2450 -0.1736 -3.3532
11994TIP3   OH257396   2.947   1.155   5.011  0.1860 -0.2652 -0.5011
11994TIP3    H157397   2.863   1.166   5.056 -0.2410  0.7087 -1.5121
11994TIP3    H257398   2.924   1.140   4.920  1.1256  0.8950 -0.9493
11995TIP3   OH257399   6.367   0.462  14.947  0.0879 -0.2780 -0.1713
11995TIP3    H157400   6.341   0.460  14.855  0.9273  0.4443 -0.4430
11995TIP3    H257401   6.318   0.390  14.987 -1.8033  0.5854 -0.7743
11996TIP3   OH257402   3.495   5.087   2.172 -0.0748 -0.4817 -0.0564
11996TIP3    H157403   3.503   5.015   2.110 -2.0051  0.5916 -1.6697
11996TIP3    H257404   3.538   5.161   2.129 -0.3694 -0.0257  0.4135
11997TIP3   OH257405   3.719   3.420   5.432  0.5291  0.1343 -0.4000
11997TIP3    H157406   3.748   3.348   5.377  0.2174  0.8590 -1.5403
11997TIP3    H257407   3.698   3.379   5.516 -0.6816 -1.2782 -1.3403
11998TIP3   OH257408   1.925   6.638   0.283  0.1345 -0.1550  0.3676
11998TIP3    H157409   2.005   6.594   0.313  1.2428  0.0858 -1.9971
11998TIP3    H257410   1.941   6.731   0.302  0.4952 -0.0892 -0.2421
11999TIP3   OH257411   2.494   4.637   3.700 -0.7260  0.1766 -0.4146
11999TIP3    H157412   2.405   4.603   3.708 -0.2433 -0.8455  1.1302
11999TIP3    H257413   2.532   4.625   3.787  1.4528 -0.8840 -1.4365
12000TIP3   OH257414   5.236   2.228   3.040 -1.2390  0.7142  0.2433
12000TIP3    H157415   5.282   2.205   2.959 -1.9563  0.7801 -0.1859
12000TIP3    H257416   5.262   2.319   3.057  0.4217  0.1196  1.1381
12001TIP3   OH257417   6.351   1.096   0.854 -0.5294 -0.2461  0.3791
12001TIP3    H157418   6.341   1.033   0.925  1.2245 -0.4268  0.5146
12001TIP3    H257419   6.437   1.137   0.870 -0.1519 -0.1823 -1.5293
12002TIP3   OH257420   2.190   4.013  15.842 -0.3284 -0.1077 -0.4881
12002TIP3    H157421   2.217   3.967  15.763 -2.1342 -0.4450 -0.9423
12002TIP3    H257422   2.158   3.945  15.901 -1.3663  0.3628 -0.4792
12003TIP3   OH257423   6.130   6.000   6.273  0.0353 -0.4319 -0.0225
12003TIP3    H157424   6.161   6.073   6.219  0.2249 -1.3244 -1.1326
12003TIP3    H257425   6.078   6.043   6.341  1.2094  0.8487  0.1236
12004TIP3   OH257426   2.847   3.229  11.783  0.0610  0.3403  0.2002
12004TIP3    H157427   2.928   3.255  11.738 -1.1084  4.8248  0.2499
12004TIP3    H257428   2.784   3.215  11.713  0.0010  0.3103  0.2603
12005TIP3   OH257429   1.902   0.338   5.732 -0.5211  0.0930 -0.1133
12005TIP3    H157430   1.836   0.296   5.676  0.4630 -0.7142 -0.7039
12005TIP3    H257431   1.881   0.431   5.727 -1.0629 -0.0605 -1.0283
12006TIP3   OH257432   6.197   1.641  12.888  0.5271  0.2682 -0.4791
12006TIP3    H157433   6.204   1.603  12.801 -2.2396 -0.5078 -0.4556
12006TIP3    H257434   6.277   1.693  12.898  1.6739 -0.9069 -2.8049
12007TIP3   OH257435   4.693   0.675  13.774 -0.1568 -0.4197  0.0083
12007TIP3    H157436   4.784   0.698  13.788  0.2656 -2.0965  0.2096
12007TIP3    H257437   4.644   0.754  13.799  1.1799  0.2659  0.5613
12008TIP3   OH257438   4.128   3.649   4.836  0.5280  0.6161  0.0287
12008TIP3    H157439   4.125   3.686   4.924  0.6536  0.1875  0.2138
12008TIP3    H257440   4.040   3.613   4.822  0.8344 -0.3067  0.4125
12009TIP3   OH257441   0.037   3.008  17.312  0.2573 -0.1269  0.3617
12009TIP3    H157442   0.060   3.013  17.404  0.8473 -1.6503  0.3278
12009TIP3    H257443  -0.053   3.041  17.307  0.2784  0.1141  1.4467
12010TIP3   OH257444   3.367   3.449  13.009  0.5191 -0.1072 -0.2128
12010TIP3    H157445   3.415   3.407  13.080 -0.5696  1.4911  1.5557
12010TIP3    H257446   3.431   3.457  12.938  1.8936 -0.9596  0.8793
12011TIP3   OH257447   0.147   0.605   1.620  0.5588  0.4210  0.3050
12011TIP3    H157448   0.205   0.574   1.690 -1.1822 -1.8289  0.8637
12011TIP3    H257449   0.156   0.540   1.551  0.6498  1.4831 -0.7065
12012TIP3   OH257450   1.824   5.438  15.090 -0.1017 -0.4759  0.2608
12012TIP3    H157451   1.813   5.516  15.036  0.8074 -2.4179 -2.9891
12012TIP3    H257452   1.904   5.455  15.140 -0.4463  1.0303  0.3373
12013TIP3   OH257453   2.519   1.476   1.131  0.1046  0.1120 -0.9350
12013TIP3    H157454   2.448   1.494   1.193  2.2045  0.8536  1.3979
12013TIP3    H257455   2.498   1.389   1.096 -0.6846 -0.8094  1.5949
12014TIP3   OH257456   4.766   5.787  13.139 -0.1538  0.0310  0.3362
12014TIP3    H157457   4.778   5.701  13.179 -0.9568 -0.7226 -0.9901
12014TIP3    H257458   4.823   5.786  13.062  0.5491  1.0616  0.8127
12015TIP3   OH257459   6.586   5.832  14.049  0.4848  0.4534 -0.5005
12015TIP3    H157460   6.640   5.910  14.054 -0.0278  0.7382  1.5003
12015TIP3    H257461   6.501   5.864  14.016 -1.0200  1.6283  3.8905
12016TIP3   OH257462   0.125   6.658  11.696  0.0324 -0.1287 -0.2869
12016TIP3    H157463   0.164   6.745  11.680  1.2354 -0.6588 -0.4013
12016TIP3    H257464   0.058   6.674  11.762 -1.5896  1.3083 -2.1558
12017TIP3   OH257465   5.067   5.970  15.203 -0.8995  0.3170 -0.5003
12017TIP3    H157466   5.017   5.965  15.121 -1.4893 -2.2630 -0.0784
12017TIP3    H257467   5.025   5.906  15.260  1.4205 -0.1891  0.7510
12018TIP3   OH257468   1.591   6.294   5.999 -0.3279 -0.2537 -0.2380
12018TIP3    H157469   1.612   6.300   6.093  0.7355 -0.9951 -0.3991
12018TIP3    H257470   1.577   6.384   5.972  4.7322  0.7745 -0.4743
12019TIP3   OH257471   4.732   1.132  13.985  0.3856 -0.0925  0.0322
12019TIP3    H157472   4.795   1.114  13.915  2.3027  0.7586  1.4555
12019TIP3    H257473   4.685   1.210  13.956  1.1607  0.2557 -0.3119
12020TIP3   OH257474   1.136   3.790  16.083 -0.6864 -0.4824  0.0287
12020TIP3    H157475   1.172   3.721  16.027 -1.5231 -0.1393 -0.9581
12020TIP3    H257476   1.130   3.866  16.026  2.6389  1.2727  1.6885
12021TIP3   OH257477   3.554   5.138   0.929  0.7686  0.5307 -0.0394
12021TIP3    H157478   3.639   5.137   0.974 -0.5394  2.6848  2.7539
12021TIP3    H257479   3.494   5.095   0.990 -0.7090  1.6995 -0.6142
12022TIP3   OH257480   0.414   5.083  17.073 -0.1578 -0.1368 -0.1794
12022TIP3    H157481   0.489   5.128  17.034  1.1759 -2.0950 -0.0500
12022TIP3    H257482   0.366   5.046  16.999 -0.7374  0.6807 -0.2284
12023TIP3   OH257483   2.646   2.153  15.659  0.1430 -0.0415 -1.1762
12023TIP3    H157484   2.654   2.223  15.724  3.7395 -1.3647  0.0893
12023TIP3    H257485   2.564   2.171  15.613 -1.7210  2.0273  2.5077
12024TIP3   OH257486   0.784   0.358  15.399  0.1572  0.3232 -0.2868
12024TIP3    H157487   0.826   0.295  15.458  2.4747  1.8586 -0.1349
12024TIP3    H257488   0.772   0.436  15.453  1.9047  1.6104 -1.6242
12025TIP3   OH257489   0.978   0.896  11.416  0.4093 -0.7519  0.0083
12025TIP3    H157490   0.929   0.890  11.334 -0.1145 -0.0802  0.2566
12025TIP3    H257491   1.061   0.851  11.398  0.2409 -0.7439 -0.8389
12026TIP3   OH257492   5.177   1.789   2.763 -0.5528  0.2455 -0.4271
12026TIP3    H157493   5.124   1.763   2.688 -0.2162  0.3848 -0.7194
12026TIP3    H257494   5.158   1.881   2.776 -1.4149 -0.0261  0.3351
12027TIP3   OH257495   3.652   6.499   0.679 -0.0209  0.3974  0.2855
12027TIP3    H157496   3.640   6.519   0.771  0.8544  0.5076  0.3820
12027TIP3    H257497   3.623   6.408   0.669  3.0043 -0.8070  1.3722
12028TIP3   OH257498   2.592   5.610   5.563  0.1975  0.1960 -0.6162
12028TIP3    H157499   2.615   5.542   5.626  0.9677 -0.6605 -1.7693
12028TIP3    H257500   2.669   5.666   5.558  0.2970  0.0283 -1.0695
12029TIP3   OH257501   6.223   5.052  12.204  0.1328 -0.4311 -0.2008
12029TIP3    H157502   6.141   5.080  12.246 -0.6362 -0.0577 -1.8478
12029TIP3    H257503   6.241   4.966  12.240 -2.4707 -1.7102 -1.6711
12030TIP3   OH257504   2.720   5.600  11.556  0.0983 -0.0125 -0.4960
12030TIP3    H157505   2.678   5.536  11.499 -1.0202 -0.0738  0.3660
12030TIP3    H257506   2.655   5.669  11.569  0.2535 -0.0859  0.8432
12031TIP3   OH257507   5.366   4.462  10.813  0.5352 -0.1372 -0.2016
12031TIP3    H157508   5.438   4.427  10.761  0.2144 -0.4961 -0.4135
12031TIP3    H257509   5.401   4.542  10.852  0.9485 -0.1413 -0.5506
12032TIP3   OH257510   0.208   3.131   0.312  0.1440 -0.1455 -0.3165
12032TIP3    H157511   0.144   3.176   0.367  1.4731 -1.0678  2.1576
12032TIP3    H257512   0.251   3.201   0.262 -2.0398  0.5738 -1.3232
12033TIP3   OH257513   3.544   0.185  15.400  0.5358  0.3417 -0.2625
12033TIP3    H157514   3.576   0.120  15.463  1.9480  0.5379 -0.7477
12033TIP3    H257515   3.508   0.133  15.328 -1.9108  0.0955  1.0133
12034TIP3   OH257516   0.746   0.287  16.420 -0.4018 -0.0049 -0.2459
12034TIP3    H157517   0.833   0.315  16.390 -0.2844 -1.0582 -0.9281
12034TIP3    H257518   0.718   0.357  16.480  1.5233 -0.3537  1.1493
12035TIP3   OH257519   5.996   5.013   5.143 -0.2090 -0.2758 -0.1611
12035TIP3    H157520   6.086   5.027   5.111 -0.0992 -1.4729 -0.4241
12035TIP3    H257521   6.008   4.975   5.230 -0.4902  1.0860  0.4870
12036TIP3   OH257522   5.606   2.191   1.996 -0.5711 -0.0194 -0.4298
12036TIP3    H157523   5.567   2.255   2.056 -2.4309  0.5360 -2.1060
12036TIP3    H257524   5.553   2.112   2.008 -0.0345 -0.3685 -0.3361
12037TIP3   OH257525   4.393   1.432  15.143  0.5959  0.2820 -0.4389
12037TIP3    H157526   4.413   1.342  15.167  0.5444  0.3905  0.0173
12037TIP3    H257527   4.464   1.484  15.180 -0.1200  0.5866  0.5459
12038TIP3   OH257528   1.818   6.746   6.116 -0.0736  0.1694  0.0011
12038TIP3    H157529   1.868   6.788   6.186  1.2235  2.0749 -1.9161
12038TIP3    H257530   1.885   6.715   6.054 -1.1397  2.0895 -2.2668
12039TIP3   OH257531   0.417   0.149  13.586 -0.5088  0.0206 -0.2627
12039TIP3    H157532   0.475   0.223  13.564 -0.7791 -0.2917 -2.2294
12039TIP3    H257533   0.460   0.073  13.546 -0.8741 -0.6884  0.6735
12040TIP3   OH257534   1.560   4.039   5.218 -0.7457  0.2849  0.5528
12040TIP3    H157535   1.588   3.978   5.286  0.0651 -0.1990 -0.2044
12040TIP3    H257536   1.465   4.023   5.210 -0.3727 -1.7904 -0.4892
12041TIP3   OH257537   1.925   1.755  15.489 -0.0138  0.4785 -0.7188
12041TIP3    H157538   1.981   1.689  15.530  1.1342  1.4858 -0.5821
12041TIP3    H257539   1.891   1.712  15.410 -1.9710 -1.3534  1.0249
12042TIP3   OH257540   2.182   0.433  16.171 -0.1939 -0.0383  0.2474
12042TIP3    H157541   2.219   0.345  16.173  0.4277  0.2160  0.2104
12042TIP3    H257542   2.089   0.420  16.154  0.2875 -0.5683 -2.3549
12043TIP3   OH257543   1.640   4.930  13.690 -0.0883  0.2243 -0.6382
12043TIP3    H157544   1.598   4.899  13.770  1.1696  1.6997  0.6586
12043TIP3    H257545   1.589   5.008  13.666  1.2030  1.4212  0.3630
12044TIP3   OH257546   3.606   1.533  13.436 -0.4715  0.0263 -0.4456
12044TIP3    H157547   3.687   1.481  13.436  0.0569  0.8231  0.5206
12044TIP3    H257548   3.628   1.612  13.387 -0.8763 -0.0532 -0.7624
12045TIP3   OH257549   3.407   1.113  16.766 -0.3696  0.2499  0.1020
12045TIP3    H157550   3.343   1.097  16.697  0.9646 -0.5752 -0.9772
12045TIP3    H257551   3.482   1.152  16.722  1.2862 -2.0433  0.6923
12046TIP3   OH257552   2.623   4.362   6.139 -0.0525  0.0701  0.3462
12046TIP3    H157553   2.538   4.374   6.095  0.8202 -0.4325 -1.5579
12046TIP3    H257554   2.627   4.269   6.159 -0.6718  0.3738  2.0818
12047TIP3   OH257555   4.750   5.165   1.340  0.0369 -0.6352  0.4746
12047TIP3    H157556   4.810   5.182   1.413 -0.2458 -1.5051  0.9145
12047TIP3    H257557   4.807   5.139   1.267  0.5164  2.2591 -0.2979
12048TIP3   OH257558   4.190   6.703  13.712  0.4339 -0.2736  0.1509
12048TIP3    H157559   4.266   6.757  13.691 -1.1073  0.9782 -2.8638
12048TIP3    H257560   4.122   6.765  13.738 -0.4772 -1.0259 -0.3404
12049TIP3   OH257561   4.149   0.836   3.045 -0.3035 -0.1551  0.0898
12049TIP3    H157562   4.121   0.927   3.035 -2.6672 -0.8230 -0.0773
12049TIP3    H257563   4.186   0.812   2.960 -2.5236 -0.1850 -0.9526
12050TIP3   OH257564   5.780   3.930  15.337  0.2672 -0.3813  0.3592
12050TIP3    H157565   5.771   4.022  15.312 -0.7693 -0.4779  0.3082
12050TIP3    H257566   5.871   3.908  15.318  0.2039  0.2931 -0.8204
12051TIP3   OH257567   5.422   2.638  14.656 -0.2071  0.4491  0.2868
12051TIP3    H157568   5.414   2.728  14.687  0.2484  0.2204  1.1171
12051TIP3    H257569   5.477   2.643  14.578 -0.1164  0.8816  0.3796
12052TIP3   OH257570   2.793   1.184   1.297 -0.3031  0.0213  0.3592
12052TIP3    H157571   2.717   1.180   1.355 -0.2547  1.8868  0.5939
12052TIP3    H257572   2.805   1.277   1.279  1.7180 -0.2506  0.0477
12053TIP3   OH257573   1.028   5.781   5.131 -0.4806 -0.0161  0.0921
12053TIP3    H157574   1.032   5.873   5.103 -0.5738  0.3001  1.0685
12053TIP3    H257575   0.976   5.783   5.211  1.7054 -0.5266  1.6230
12054TIP3   OH257576   0.155   1.444   3.557  0.3682 -0.4435 -0.4319
12054TIP3    H157577   0.215   1.512   3.590  0.4698 -0.1904 -1.1158
12054TIP3    H257578   0.125   1.478   3.473 -0.5021 -0.7172 -0.2366
12055TIP3   OH257579   6.549   4.502  12.842  0.0049 -0.2898  0.5165
12055TIP3    H157580   6.602   4.578  12.864 -1.0846 -0.0006  2.3606
12055TIP3    H257581   6.477   4.536  12.789  0.6130 -0.3831 -0.3855
12056TIP3   OH257582   6.173   3.627  15.166 -0.5939 -0.3860 -0.2362
12056TIP3    H157583   6.142   3.619  15.076 -2.8137 -0.4365  0.4794
12056TIP3    H257584   6.241   3.560  15.174  0.0811  0.0293 -2.0053
12057TIP3   OH257585   1.479   6.440  11.710 -0.2778 -0.3056  0.2380
12057TIP3    H157586   1.443   6.353  11.694 -2.1193  0.3162  0.7831
12057TIP3    H257587   1.529   6.431  11.791  0.0102 -0.9766 -0.0091
12058TIP3   OH257588   2.129   4.078  14.733  0.5720 -0.8859  0.0592
12058TIP3    H157589   2.145   4.166  14.700  0.5663 -1.0285 -0.3234
12058TIP3    H257590   2.079   4.035  14.665  1.9529 -1.6991 -0.4929
12059TIP3   OH257591   0.650   5.562   3.415  0.1953  0.6547  0.5417
12059TIP3    H157592   0.657   5.474   3.452  0.6084  1.0868  1.5399
12059TIP3    H257593   0.598   5.551   3.336 -1.1318 -0.2567  1.4860
12060TIP3   OH257594   3.910   1.781   5.297 -0.2586 -0.6437  0.3518
12060TIP3    H157595   3.956   1.782   5.381  1.5305  0.1395 -0.5982
12060TIP3    H257596   3.916   1.691   5.267 -0.9589 -0.9403  1.0746
12061TIP3   OH257597   5.030   1.534   1.158  0.0732 -0.1810  0.4747
12061TIP3    H157598   5.071   1.480   1.226  0.0847  0.0707  0.6683
12061TIP3    H257599   5.062   1.623   1.176  1.6093 -0.3873 -0.9912
12062TIP3   OH257600   2.372   3.778  17.112  0.6631 -0.3897  0.1227
12062TIP3    H157601   2.406   3.708  17.056  0.7936 -1.2567  1.2409
12062TIP3    H257602   2.277   3.770  17.106  0.6751 -0.3673 -0.1011
12063TIP3   OH257603   1.170   1.577  13.730  0.3493 -0.5472  0.0324
12063TIP3    H157604   1.223   1.642  13.683  3.3592 -3.0078 -0.3015
12063TIP3    H257605   1.102   1.553  13.668  0.7392  0.4540 -0.8151
12064TIP3   OH257606   5.181   0.047   5.154 -0.4284  0.1838 -0.4954
12064TIP3    H157607   5.222  -0.035   5.126 -1.5939 -1.0850  1.2797
12064TIP3    H257608   5.092   0.042   5.121 -1.0316 -0.1276  1.0709
12065TIP3   OH257609   4.875   5.482  11.856 -0.2154 -0.1624  0.3307
12065TIP3    H157610   4.935   5.459  11.785  1.0158  0.8394  0.9782
12065TIP3    H257611   4.831   5.561  11.825 -1.5019 -1.0881 -0.2830
12066TIP3   OH257612   3.246   2.645   0.753 -0.2592 -0.4820  0.4126
12066TIP3    H157613   3.291   2.619   0.673 -2.5324 -0.6108 -0.9286
12066TIP3    H257614   3.272   2.737   0.767  1.0271 -0.7954  0.2002
12067TIP3   OH257615   3.187   2.466   2.262  0.3715 -0.4032  0.0783
12067TIP3    H157616   3.095   2.456   2.287  0.6632  0.8140  1.8054
12067TIP3    H257617   3.190   2.549   2.216  0.4063 -1.1250 -1.2941
12068TIP3   OH257618   6.599   0.667  11.564 -0.1856  0.1506  0.3642
12068TIP3    H157619   6.531   0.661  11.497 -0.4001  0.4207  0.5569
12068TIP3    H257620   6.583   0.593  11.623 -0.4388  0.3354  0.5272
12069TIP3   OH257621   4.910   0.298  15.135 -0.2665 -0.3722 -0.6267
12069TIP3    H157622   4.927   0.251  15.053 -0.3190  1.4478 -1.7482
12069TIP3    H257623   4.826   0.341  15.121 -0.5985 -0.5698  0.6688
12070TIP3   OH257624   3.501   1.011   1.410  0.0618  0.3427  0.2529
12070TIP3    H157625   3.567   0.971   1.466 -0.0002  0.3406  0.3249
12070TIP3    H257626   3.514   0.970   1.324  1.0761  1.3527 -0.1027
12071TIP3   OH257627   4.324   3.438  15.959 -0.3742 -0.2553  0.2163
12071TIP3    H157628   4.294   3.389  16.035  1.8716 -1.1323  0.6264
12071TIP3    H257629   4.305   3.530  15.980  2.0167 -0.2287  2.8685
12072TIP3   OH257630   5.523   0.589   3.715  0.2522 -0.2091 -0.3101
12072TIP3    H157631   5.523   0.638   3.632  0.7869  1.0281  0.3997
12072TIP3    H257632   5.475   0.645   3.776  1.7833 -0.0462  0.7989
12073TIP3   OH257633   2.995   0.199   4.806  0.0170  0.1216 -0.7163
12073TIP3    H157634   3.077   0.217   4.760 -0.1250  1.1070 -0.6169
12073TIP3    H257635   2.984   0.274   4.865  0.3942 -1.2883  1.2410
12074TIP3   OH257636   1.182   6.674  13.068  0.4869  0.3189 -0.1283
12074TIP3    H157637   1.126   6.679  13.146  2.3436  1.2690  1.2235
12074TIP3    H257638   1.270   6.690  13.101  1.4231  0.0971 -2.3604
12075TIP3   OH257639   2.646   6.684  13.544  0.0538  0.5668  0.0812
12075TIP3    H157640   2.622   6.652  13.631 -0.7527 -0.3890 -0.4693
12075TIP3    H257641   2.605   6.622  13.484  0.5519  1.2463 -0.9840
12076TIP3   OH257642   1.715   1.211  12.301 -0.8912  0.8806  0.5339
12076TIP3    H157643   1.753   1.124  12.286 -1.3944  0.7848 -0.2414
12076TIP3    H257644   1.721   1.255  12.216 -1.2924  1.3503  0.7412
12077TIP3   OH257645   6.734   0.730  13.687  0.0859 -0.3952  0.0467
12077TIP3    H157646   6.690   0.806  13.651 -0.2885 -0.0819  1.1286
12077TIP3    H257647   6.771   0.760  13.770 -2.0045 -1.8993  1.6471
12078TIP3   OH257648   3.433   6.205   6.422  0.3704 -0.2476  0.1500
12078TIP3    H157649   3.445   6.152   6.342  1.0861  1.1914 -0.7326
12078TIP3    H257650   3.352   6.171   6.460  0.7383 -1.8990 -0.4356
12079TIP3   OH257651   1.581   2.973   1.348 -0.0908 -0.2255 -0.0231
12079TIP3    H157652   1.609   2.982   1.439  0.4523 -1.4521 -0.0483
12079TIP3    H257653   1.654   2.928   1.305 -1.0070 -1.1017 -0.7007
12080TIP3   OH257654   4.076   6.147   1.853 -0.6014  0.1438 -0.0034
12080TIP3    H157655   4.061   6.147   1.948  2.5840  2.7791  0.6880
12080TIP3    H257656   4.100   6.056   1.833 -0.9398 -0.3821  1.7832
12081TIP3   OH257657   5.725   6.460  14.480 -0.2176 -0.0372 -0.3273
12081TIP3    H157658   5.731   6.402  14.404 -0.5555 -0.9443  0.3161
12081TIP3    H257659   5.740   6.548  14.445  0.2980 -0.5085 -1.3298
12082TIP3   OH257660   4.390   5.672  12.465 -0.5564 -0.2396  0.3310
12082TIP3    H157661   4.383   5.684  12.560  0.5064 -1.1437  0.5475
12082TIP3    H257662   4.350   5.587  12.449 -0.6182 -0.1451 -0.0232
12083TIP3   OH257663   5.467   3.471  11.624 -0.7671 -0.6743 -0.3640
12083TIP3    H157664   5.394   3.513  11.578  0.4807  0.2101 -1.6516
12083TIP3    H257665   5.545   3.517  11.592  0.5983 -3.2013 -0.9605
12084TIP3   OH257666   1.945   5.079   5.747 -0.2142  0.1340  0.5029
12084TIP3    H157667   1.988   5.092   5.663 -1.4503  0.8069 -0.0625
12084TIP3    H257668   2.009   5.106   5.813  0.8032 -0.5121 -0.2077
12085TIP3   OH257669   6.208   2.560  14.998  0.1265 -0.1218  0.2282
12085TIP3    H157670   6.215   2.627  15.066 -2.2910 -0.0235  0.4757
12085TIP3    H257671   6.120   2.573  14.961  0.5517 -1.5853 -1.4105
12086TIP3   OH257672   1.105   0.877   1.572 -0.5803  0.3759 -0.1462
12086TIP3    H157673   1.154   0.943   1.622  0.6656  0.3663 -1.2895
12086TIP3    H257674   1.024   0.865   1.621 -0.5175  2.2178  0.4968
12087TIP3   OH257675   5.954   1.855  12.145 -0.1304 -0.3333  0.4194
12087TIP3    H157676   6.020   1.895  12.089 -0.1674  0.0873  0.6686
12087TIP3    H257677   5.871   1.888  12.111 -0.0896  1.0345  1.5557
12088TIP3   OH257678   1.484   3.536  15.091 -0.3903 -0.2235  0.5862
12088TIP3    H157679   1.389   3.541  15.104 -0.3961  1.1713  0.2324
12088TIP3    H257680   1.519   3.522  15.179 -0.7925  2.5658  1.3082
12089TIP3   OH257681   5.161   3.299   2.126 -0.5515  0.2282  0.3998
12089TIP3    H157682   5.216   3.269   2.054 -1.1874  0.3526 -0.1503
12089TIP3    H257683   5.082   3.334   2.083 -0.5999  1.0240  1.1140
12090TIP3   OH257684   5.399   0.985  10.722  0.0913 -1.0779  0.0247
12090TIP3    H157685   5.438   0.926  10.657 -0.2761 -0.6613 -0.5811
12090TIP3    H257686   5.472   1.010  10.779  0.4305 -1.3980 -0.2633
12091TIP3   OH257687   5.453   3.961   3.775  0.3173  0.1998 -0.0262
12091TIP3    H157688   5.541   3.988   3.750  0.5033 -0.2950  0.0879
12091TIP3    H257689   5.402   4.042   3.773  1.0054  0.6778  0.9326
12092TIP3   OH257690   5.597   5.452   4.735 -0.6008  0.3337  0.5181
12092TIP3    H157691   5.599   5.415   4.824  1.0904 -0.5477  0.1654
12092TIP3    H257692   5.594   5.375   4.677 -1.1951  0.8865 -0.1958
12093TIP3   OH257693   4.921   5.364   5.395 -0.8045  0.5695 -0.0856
12093TIP3    H157694   4.973   5.326   5.324 -1.1507  0.1622 -0.1210
12093TIP3    H257695   4.831   5.339   5.375 -0.6619 -2.4195  2.1849
12094TIP3   OH257696   5.129   1.084  12.429 -0.1362  0.1182  0.1979
12094TIP3    H157697   5.194   1.142  12.390  1.1125  0.0016  1.9807
12094TIP3    H257698   5.153   1.079  12.522 -0.7780 -2.4387  0.3219
12095TIP3   OH257699   0.618   5.994   2.535  0.1558  0.6880  0.1869
12095TIP3    H157700   0.553   5.988   2.464 -2.8111  1.4063  2.6159
12095TIP3    H257701   0.638   5.903   2.556  0.4291  0.4604 -0.9752
12096TIP3   OH257702   0.663   1.227   2.232 -0.1901 -0.1128 -0.1309
12096TIP3    H157703   0.627   1.294   2.174 -1.4225 -0.6074  0.0330
12096TIP3    H257704   0.758   1.229   2.215 -0.4207  0.3626 -1.5021
12097TIP3   OH257705   0.083   4.199  10.954  0.2816  0.0273  0.0165
12097TIP3    H157706   0.150   4.149  11.000  0.8615  1.1270  0.4038
12097TIP3    H257707   0.009   4.139  10.945 -0.2694  0.0388  3.3099
12098TIP3   OH257708   1.719   6.241   0.430 -0.5332  0.2471  0.4139
12098TIP3    H157709   1.706   6.285   0.346  1.1027 -0.3281 -0.1716
12098TIP3    H257710   1.809   6.263   0.454 -0.9704  0.3868  2.0213
12099TIP3   OH257711   1.238   6.193   1.021 -0.4792  0.1806  0.0061
12099TIP3    H157712   1.162   6.136   1.008  1.6364 -2.3124 -2.4940
12099TIP3    H257713   1.266   6.174   1.111 -0.2012 -2.3636 -0.5478
12100TIP3   OH257714   2.321   2.379  12.563 -0.1785  0.3548 -0.0903
12100TIP3    H157715   2.242   2.374  12.617 -1.6190  2.2267 -1.8281
12100TIP3    H257716   2.365   2.458  12.593  0.4074 -0.0482  0.1047
12101TIP3   OH257717   4.119   6.764   0.877  0.5682 -0.3027 -0.4145
12101TIP3    H157718   4.062   6.806   0.940 -0.6117  1.2778 -2.4075
12101TIP3    H257719   4.202   6.812   0.884 -0.2206  1.3214 -1.4438
12102TIP3   OH257720   6.108   5.953  13.077 -0.0899 -0.1903 -0.7015
12102TIP3    H157721   6.147   5.989  13.157  1.2071 -0.2219 -1.3027
12102TIP3    H257722   6.166   5.881  13.052 -0.5764 -0.2874 -1.5810
12103TIP3   OH257723   2.221   2.822   4.500  0.2509 -0.0837  0.6142
12103TIP3    H157724   2.137   2.778   4.510  0.7745 -0.6275  3.3445
12103TIP3    H257725   2.198   2.915   4.494 -0.5465 -0.2286  1.2620
12104TIP3   OH257726   0.966   5.569   5.345 -0.2195  0.1909  0.3999
12104TIP3    H157727   1.004   5.482   5.360  0.6729  0.4181 -0.4365
12104TIP3    H257728   0.991   5.591   5.256 -0.9952  1.0409  0.3806
12105TIP3   OH257729   6.172   3.685  16.308 -0.0939 -0.2264 -0.2672
12105TIP3    H157730   6.137   3.735  16.234  1.1587  1.4019  0.1641
12105TIP3    H257731   6.267   3.689  16.297  0.1579  0.5461  1.6961
12106TIP3   OH257732   4.496   2.482  11.287  0.1342 -0.4130  0.1585
12106TIP3    H157733   4.526   2.553  11.230  0.3610 -0.8577 -0.2843
12106TIP3    H257734   4.568   2.468  11.348  0.1126 -0.3033  0.2097
12107TIP3   OH257735   1.242   1.362   6.057  0.5277  0.1625  0.1293
12107TIP3    H157736   1.250   1.426   6.128  3.2177  1.5789 -1.2918
12107TIP3    H257737   1.306   1.295   6.078 -0.3338 -0.6594  0.1949
12108TIP3   OH257738   0.824   3.554   2.820 -0.5439 -0.3267  0.1371
12108TIP3    H157739   0.824   3.527   2.911 -2.5156 -1.1502 -0.0620
12108TIP3    H257740   0.822   3.650   2.823 -1.1842 -0.3607  0.9547
12109TIP3   OH257741   0.965   0.156   5.462 -0.1184 -0.0655 -0.2190
12109TIP3    H157742   1.053   0.191   5.449 -0.9285  2.1049 -0.2298
12109TIP3    H257743   0.926   0.215   5.526 -1.7837 -0.6179 -0.6963
12110TIP3   OH257744   4.741   3.926   3.753  0.8923  0.5020 -0.3883
12110TIP3    H157745   4.777   3.841   3.776  1.0896  0.1405 -1.9275
12110TIP3    H257746   4.818   3.983   3.744  1.0063  0.1245 -2.1046
12111TIP3   OH257747   5.807   0.451  14.017 -0.0073 -0.4533 -1.1925
12111TIP3    H157748   5.825   0.413  14.103  2.2937  0.7688 -1.0790
12111TIP3    H257749   5.726   0.501  14.030  0.8187  0.5296  0.5673
12112TIP3   OH257750   4.922   5.586  12.127  0.0150  0.6918 -0.3548
12112TIP3    H157751   5.015   5.567  12.133  0.1272  0.5747 -1.8952
12112TIP3    H257752   4.897   5.553  12.040 -0.9779  2.6205 -0.8648
12113TIP3   OH257753   3.233   2.156   3.950 -0.0891 -0.2847  0.1891
12113TIP3    H157754   3.267   2.195   3.869 -0.3373  1.6527  0.9666
12113TIP3    H257755   3.190   2.228   3.995 -0.0751 -1.3523  2.0027
12114TIP3   OH257756   6.459   1.775  16.572  0.6016 -0.0456 -0.0311
12114TIP3    H157757   6.500   1.689  16.558 -0.7939 -0.9492  1.1540
12114TIP3    H257758   6.503   1.809  16.650  0.1567 -0.3465  0.3561
12115TIP3   OH257759   0.076   4.073   0.398 -0.0048  0.1294  0.4490
12115TIP3    H157760   0.057   4.092   0.307  0.0067 -0.5741  0.2964
12115TIP3    H257761   0.068   3.978   0.406 -0.3501  0.2157  1.2600
12116TIP3   OH257762   3.520   6.242  16.792 -0.4975  0.3067 -0.4124
12116TIP3    H157763   3.492   6.241  16.884  0.4803  0.7206 -0.0941
12116TIP3    H257764   3.550   6.331  16.777 -0.1959  0.1128 -0.9896
12117TIP3   OH257765   4.118   2.910  14.889  0.3936 -0.5830  0.1455
12117TIP3    H157766   4.085   2.945  14.972 -0.3042 -0.6450 -0.0999
12117TIP3    H257767   4.199   2.959  14.873  0.3850 -0.3709  0.7201
12118TIP3   OH257768   2.124   4.958  11.756  0.0243 -0.0178  0.5335
12118TIP3    H157769   2.081   5.028  11.804  0.0724 -0.1574  0.7824
12118TIP3    H257770   2.066   4.940  11.682  0.6221  1.1402 -0.2518
12119TIP3   OH257771   0.083   2.512   0.550  0.4679  0.2667  0.4407
12119TIP3    H157772   0.091   2.432   0.499  0.8942  0.6665 -0.1270
12119TIP3    H257773   0.064   2.482   0.639 -0.2522 -0.4363  0.0637
12120TIP3   OH257774   3.042   2.142  16.926 -0.2506  0.2507 -0.5838
12120TIP3    H157775   3.080   2.086  16.858  0.9116  1.0677 -0.6330
12120TIP3    H257776   3.083   2.113  17.007 -1.7416 -0.8188 -0.1605
12121TIP3   OH257777   4.284   6.214  14.454  0.3344  0.5396 -0.1996
12121TIP3    H157778   4.303   6.167  14.373 -1.7670  0.9511 -1.0181
12121TIP3    H257779   4.188   6.210  14.461  0.3784  1.7016  1.5457
12122TIP3   OH257780   1.988   0.593  11.302  0.1977  0.1250  0.0981
12122TIP3    H157781   1.945   0.674  11.275  0.1777  0.0871  0.0164
12122TIP3    H257782   1.980   0.535  11.226  0.0224 -0.0292  0.2333
12123TIP3   OH257783   6.577   2.814  14.812  0.0973 -0.3811 -0.2252
12123TIP3    H157784   6.531   2.772  14.740  0.1533 -0.1665 -0.3863
12123TIP3    H257785   6.577   2.748  14.882 -0.0427 -0.5517 -0.3853
12124TIP3   OH257786   4.340   0.937  15.880 -0.2661  0.5675  0.5130
12124TIP3    H157787   4.376   0.850  15.901  1.0020  1.0031  0.2688
12124TIP3    H257788   4.394   0.998  15.932 -0.9408  1.2292  0.4502
12125TIP3   OH257789   4.217   4.176   5.307 -0.4431  0.2742 -0.1650
12125TIP3    H157790   4.129   4.210   5.328  0.5720  3.0349  0.1066
12125TIP3    H257791   4.237   4.116   5.379 -1.7728  0.2722  0.2332
12126TIP3   OH257792   4.590   2.125   1.127  0.6585 -0.1046  0.5203
12126TIP3    H157793   4.566   2.032   1.127  1.9859 -0.5378 -1.9975
12126TIP3    H257794   4.664   2.131   1.188 -1.5701  0.0785  3.4411
12127TIP3   OH257795   0.059   0.429  12.458  0.5822  0.4143 -0.3686
12127TIP3    H157796   0.122   0.383  12.514 -1.6039 -2.0876  0.2357
12127TIP3    H257797   0.102   0.433  12.372  2.4912  0.9874  0.5551
12128TIP3   OH257798   4.769   3.512  11.075 -0.8023  0.0981 -0.1250
12128TIP3    H157799   4.675   3.501  11.066 -0.9279  0.4886  0.6748
12128TIP3    H257800   4.800   3.427  11.109 -1.3247  0.9671  2.7792
12129TIP3   OH257801   1.612   4.866   3.485 -0.6158 -0.2178 -0.2042
12129TIP3    H157802   1.614   4.770   3.481 -0.6021 -0.1876 -1.0362
12129TIP3    H257803   1.677   4.888   3.552 -0.3563 -0.7705 -0.2661
12130TIP3   OH257804   2.476   0.717   1.274 -0.6984 -0.3034 -0.0197
12130TIP3    H157805   2.427   0.640   1.303 -1.7084  0.0287 -0.7995
12130TIP3    H257806   2.503   0.760   1.355  0.1723 -1.6277  0.4365
12131TIP3   OH257807   2.559   0.863  13.549 -0.1931 -0.7842 -0.5615
12131TIP3    H157808   2.575   0.892  13.459  2.2518  0.9752  0.3430
12131TIP3    H257809   2.537   0.943  13.597  1.8029 -1.1163  1.0281
12132TIP3   OH257810   4.462   3.643   5.452 -0.5099 -0.3149 -0.0026
12132TIP3    H157811   4.465   3.719   5.509 -0.2515 -0.8020  0.6508
12132TIP3    H257812   4.431   3.572   5.509  3.5000 -1.7714  0.6772
12133TIP3   OH257813   0.464   0.231  16.291  0.0838 -0.0296  0.0295
12133TIP3    H157814   0.545   0.259  16.333  0.6605 -1.2381 -0.2439
12133TIP3    H257815   0.398   0.235  16.360  0.7672 -0.8279  0.7539
12134TIP3   OH257816   3.709   4.669   6.677  0.3355  0.0489 -0.1170
12134TIP3    H157817   3.684   4.619   6.754 -0.0279 -0.0721 -0.3140
12134TIP3    H257818   3.805   4.660   6.673  0.3045 -0.3444  0.0403
12135TIP3   OH257819   6.344   6.280   2.736 -0.4190  0.4093  0.1983
12135TIP3    H157820   6.315   6.369   2.717 -0.4674  0.2251 -0.5966
12135TIP3    H257821   6.364   6.242   2.651  2.6899  0.6828  0.6769
12136TIP3   OH257822   5.050   1.707   1.866 -0.1531 -0.1186  0.4433
12136TIP3    H157823   5.106   1.644   1.820 -0.1841  0.7203 -0.8092
12136TIP3    H257824   5.110   1.779   1.888 -0.0750 -0.6458  2.0308
12137TIP3   OH257825   2.919   0.435  12.722  0.1853  0.0807  0.3669
12137TIP3    H157826   2.984   0.370  12.747 -0.6247 -0.7323  0.3901
12137TIP3    H257827   2.936   0.452  12.630 -2.3877 -3.6092 -1.0173
12138TIP3   OH257828   4.949   1.490   1.460  0.0046 -0.1983  0.6271
12138TIP3    H157829   4.888   1.549   1.415  0.2488  1.4376  2.3183
12138TIP3    H257830   4.894   1.439   1.519 -0.0196 -0.5255  0.3221
12139TIP3   OH257831   3.800   1.692  15.894  0.0077 -0.3554  0.0923
12139TIP3    H157832   3.846   1.614  15.863  1.8044  0.4075  0.6527
12139TIP3    H257833   3.838   1.708  15.981 -2.2150 -0.3243  1.1138
12140TIP3   OH257834   3.265   0.310  11.293  0.0145 -0.1737  0.3650
12140TIP3    H157835   3.278   0.319  11.388  1.8076 -0.8158  0.2146
12140TIP3    H257836   3.227   0.223  11.283 -0.7954  0.1490  0.5182
12141TIP3   OH257837   6.240   4.031  12.693 -0.0109 -0.0427 -0.4236
12141TIP3    H157838   6.145   4.042  12.697 -0.2399 -1.4255 -1.2839
12141TIP3    H257839   6.252   3.948  12.646  1.5666 -0.9309  1.4104
12142TIP3   OH257840   1.732   4.648  16.774  0.3094 -0.1577  0.0572
12142TIP3    H157841   1.821   4.627  16.801  0.6817  0.3487 -0.7221
12142TIP3    H257842   1.716   4.736  16.809  0.2637 -0.0903 -0.1294
12143TIP3   OH257843   5.154   0.104  13.440  0.3515  1.0258 -0.1006
12143TIP3    H157844   5.156   0.018  13.398  0.0009  1.6084 -1.3621
12143TIP3    H257845   5.083   0.151  13.396 -1.3121  1.0690  2.4348
12144TIP3   OH257846   3.414   3.382   2.491  0.0489  0.0985 -0.3690
12144TIP3    H157847   3.333   3.381   2.439 -0.6679  0.1683  0.7131
12144TIP3    H257848   3.397   3.446   2.560  0.3458 -1.1934  0.9434
12145TIP3   OH257849   3.016   5.330   0.887 -0.4055 -0.2554 -0.4152
12145TIP3    H157850   3.002   5.272   0.812  1.0378 -0.0128 -0.8995
12145TIP3    H257851   3.095   5.296   0.929 -0.5981  0.2616  0.3783
12146TIP3   OH257852   5.594   5.805   1.421  0.1051  0.5734 -0.3048
12146TIP3    H157853   5.635   5.891   1.427  2.5430 -0.5750  1.1665
12146TIP3    H257854   5.668   5.744   1.414 -1.4017 -1.5748  1.2109
12147TIP3   OH257855   3.593   3.468   6.419 -0.4833 -0.1787 -0.2829
12147TIP3    H157856   3.664   3.529   6.400 -0.1690 -0.2397  0.6458
12147TIP3    H257857   3.513   3.519   6.408 -0.3581 -0.2567 -1.9118
12148TIP3   OH257858   3.254   5.265   0.437 -0.2086 -0.0947 -0.3754
12148TIP3    H157859   3.264   5.330   0.506  0.0495  0.3349 -0.8071
12148TIP3    H257860   3.281   5.311   0.357 -1.2148 -0.3566 -0.8770
12149TIP3   OH257861   4.139   2.734  12.410 -0.6963 -0.8183 -0.1937
12149TIP3    H157862   4.197   2.658  12.417  1.8380  0.8631 -1.4296
12149TIP3    H257863   4.197   2.810  12.420 -3.2061  1.0471  1.7534
12150TIP3   OH257864   6.622   0.454  12.177  1.1624 -0.0752 -0.2583
12150TIP3    H157865   6.545   0.418  12.133  1.6381 -0.0265 -1.1508
12150TIP3    H257866   6.648   0.386  12.239 -0.3293  0.4145  0.9835
12151TIP3   OH257867   4.613   1.499   4.077  0.3331 -0.3589 -0.3819
12151TIP3    H157868   4.635   1.416   4.120 -1.0962 -0.1394  0.8544
12151TIP3    H257869   4.614   1.563   4.148  0.6231  0.5477 -1.1900
12152TIP3   OH257870   1.513   6.653  17.270 -0.2222  0.1277  0.4104
12152TIP3    H157871   1.445   6.641  17.336 -1.3935 -1.1967 -0.9238
12152TIP3    H257872   1.545   6.564  17.253  1.5612  0.6771  0.6754
12153TIP3   OH257873   2.607   5.429   5.083 -0.0831  0.2546 -0.1782
12153TIP3    H157874   2.684   5.372   5.076  1.0421  1.8240 -1.1404
12153TIP3    H257875   2.619   5.475   5.166 -1.2058 -1.1239  0.8075
12154TIP3   OH257876   2.944   1.690   4.333  0.6700 -0.4961 -0.1020
12154TIP3    H157877   3.037   1.688   4.311  0.9292 -1.8984  0.9464
12154TIP3    H257878   2.900   1.657   4.254  1.2840 -2.1218  0.1994
12155TIP3   OH257879   1.880   0.503   1.323  0.0291 -0.2785  0.6871
12155TIP3    H157880   1.841   0.431   1.274  0.1646 -0.3684  0.7110
12155TIP3    H257881   1.827   0.510   1.402  0.2811 -0.6406  0.8936
12156TIP3   OH257882   6.727   1.475   2.300 -0.0990  0.4787  0.1733
12156TIP3    H157883   6.652   1.507   2.250 -0.6585 -0.8983  0.0959
12156TIP3    H257884   6.766   1.408   2.245  2.2125  2.2827 -0.5125
12157TIP3   OH257885   2.412   3.245   2.283 -0.0310  0.4215  0.5644
12157TIP3    H157886   2.361   3.223   2.361  0.8555  1.2518  1.4112
12157TIP3    H257887   2.490   3.191   2.289  1.5845  2.7584  2.0251
12158TIP3   OH257888   0.073   6.158   2.342 -0.2968 -0.2230  0.8243
12158TIP3    H157889   0.106   6.135   2.256  1.2392  0.4647  1.1996
12158TIP3    H257890   0.150   6.185   2.392 -1.4734  2.2517  1.5028
12159TIP3   OH257891   2.057   4.044   0.465  0.0368 -0.5855 -0.6101
12159TIP3    H157892   2.014   4.080   0.543  1.9344  1.5684 -0.4334
12159TIP3    H257893   2.119   3.980   0.500  1.3907  0.8785 -0.1713
12160TIP3   OH257894   2.398   0.881  11.828 -0.1930 -0.1065  0.1296
12160TIP3    H157895   2.363   0.970  11.819 -1.2907 -0.5653 -0.3869
12160TIP3    H257896   2.491   0.893  11.844 -0.0601  1.1193 -1.2894
12161TIP3   OH257897   3.349   5.975  12.914  0.4466 -0.2185 -0.6094
12161TIP3    H157898   3.341   6.070  12.906  0.4464 -0.0362  1.2547
12161TIP3    H257899   3.270   5.948  12.962  0.7581 -1.0809 -0.5633
12162TIP3   OH257900   3.370   6.573   2.134 -0.4275  0.2320 -0.7584
12162TIP3    H157901   3.446   6.583   2.192 -0.6477 -1.7128 -0.0835
12162TIP3    H257902   3.334   6.487   2.155 -2.7214  1.0037 -1.2057
12163TIP3   OH257903   1.848   2.759   2.109  0.4811 -0.6114 -0.2017
12163TIP3    H157904   1.853   2.777   2.015  0.9861 -0.8522 -0.2214
12163TIP3    H257905   1.923   2.704   2.128 -0.1495 -1.3676  0.1743
12164TIP3   OH257906   5.710   6.075   1.768 -0.2515  0.2083 -0.1589
12164TIP3    H157907   5.799   6.047   1.748  0.4288  0.5606  2.1280
12164TIP3    H257908   5.679   6.011   1.832 -0.5733  1.6891  1.2012
12165TIP3   OH257909   6.614   1.516  16.570 -0.0637 -0.8905  0.3967
12165TIP3    H157910   6.645   1.470  16.492  0.1667 -1.5193  0.8456
12165TIP3    H257911   6.688   1.513  16.631 -0.2275 -0.3744  0.6312
12166TIP3   OH257912   1.192   1.390   1.137 -0.3558  0.0090 -0.5553
12166TIP3    H157913   1.181   1.475   1.180  0.9520  0.8143 -1.7559
12166TIP3    H257914   1.103   1.355   1.133 -0.5174 -0.8234  4.0392
12167TIP3   OH257915   4.308   5.987   4.881 -0.0092 -0.4313 -0.2686
12167TIP3    H157916   4.289   6.042   4.956  1.3308 -0.3612  0.0432
12167TIP3    H257917   4.232   5.929   4.873  0.2437 -1.1092  1.7626
12168TIP3   OH257918   6.259   2.652  16.344  0.0786 -0.2364  0.2732
12168TIP3    H157919   6.258   2.712  16.419  0.1796 -0.2409  0.2777
12168TIP3    H257920   6.188   2.684  16.288  0.9690  0.7022 -0.3623
12169TIP3   OH257921   1.592   2.257  12.731  0.0362 -0.0836  0.0722
12169TIP3    H157922   1.680   2.270  12.767 -0.3090  1.6102  0.3766
12169TIP3    H257923   1.536   2.242  12.808  0.2389 -2.7796 -0.1943
12170TIP3   OH257924   1.212   2.709   1.494 -0.2999 -0.4098  0.1592
12170TIP3    H157925   1.254   2.748   1.418  0.5378 -1.6907 -0.0654
12170TIP3    H257926   1.267   2.735   1.568  0.1453 -0.9802  0.0349
12171TIP3   OH257927   2.126   1.793   4.230  0.4712 -0.5470  0.1898
12171TIP3    H157928   2.174   1.876   4.230 -0.0789 -0.1923  1.6785
12171TIP3    H257929   2.111   1.774   4.323 -1.4674 -1.1011 -0.1910
12172TIP3   OH257930   3.560   1.885   4.968  0.3227 -0.0438 -0.1100
12172TIP3    H157931   3.595   1.799   4.945 -0.8252 -1.0529  1.7103
12172TIP3    H257932   3.467   1.880   4.946  0.5184  1.3468 -1.4955
12173TIP3   OH257933   5.526   6.264  12.461 -0.3652  0.2781 -0.4453
12173TIP3    H157934   5.484   6.319  12.528 -0.7277  0.5902 -0.9258
12173TIP3    H257935   5.453   6.223  12.415 -0.1025 -0.4312 -0.2477
12174TIP3   OH257936   1.659   0.809   2.209  0.7999 -0.4921 -0.2083
12174TIP3    H157937   1.691   0.776   2.292  1.4980 -0.6628 -0.5371
12174TIP3    H257938   1.592   0.746   2.182  1.6869 -1.3256 -0.5330
12175TIP3   OH257939   5.357   5.654  14.551  0.0997  0.8665 -0.2633
12175TIP3    H157940   5.309   5.589  14.603  0.5097  0.6858 -0.1107
12175TIP3    H257941   5.413   5.699  14.614  0.7478  0.5138 -0.5848
12176TIP3   OH257942   1.474   0.998   2.394  0.2507 -0.0968  0.1517
12176TIP3    H157943   1.525   0.974   2.317  1.0105 -0.2395  0.6809
12176TIP3    H257944   1.477   1.094   2.397  2.4280 -0.1279  1.3949
12177TIP3   OH257945   5.032   4.883  12.295 -0.2225  0.8096 -0.1159
12177TIP3    H157946   5.100   4.868  12.229 -0.4258  0.3724 -0.2266
12177TIP3    H257947   5.047   4.973  12.324 -0.3945  1.1501 -1.0612
12178TIP3   OH257948   5.780   0.171  11.331 -0.3507 -0.1386  0.1019
12178TIP3    H157949   5.693   0.211  11.332 -0.5874 -0.6568  0.6672
12178TIP3    H257950   5.790   0.139  11.241 -0.2277  1.0156 -0.3161
12179TIP3   OH257951   2.689   4.792   1.952  0.3176 -0.2018  0.5594
12179TIP3    H157952   2.648   4.723   2.005 -0.3268 -2.0076 -2.1283
12179TIP3    H257953   2.632   4.868   1.965 -0.8831 -1.1404  1.0094
12180TIP3   OH257954   6.727   4.168   5.879 -0.3244  0.5129  0.0919
12180TIP3    H157955   6.720   4.218   5.960 -1.4205 -1.5931  1.4072
12180TIP3    H257956   6.640   4.172   5.840  0.1321  1.3013 -0.8669
12181TIP3   OH257957   4.989   3.967   3.675  0.4976 -0.6930 -0.4198
12181TIP3    H157958   5.051   4.040   3.683  0.9554 -0.7288 -2.8691
12181TIP3    H257959   5.043   3.892   3.653 -0.3824 -0.2478 -5.0774
12182TIP3   OH257960   0.102   1.378   6.237  0.6186 -0.4058 -0.2553
12182TIP3    H157961   0.112   1.440   6.310 -0.0751  0.0650 -0.5517
12182TIP3    H257962   0.145   1.298   6.268 -2.1975 -1.2671  1.9166
12183TIP3   OH257963   5.744   1.117  17.058  0.4889 -0.4218  0.6442
12183TIP3    H157964   5.776   1.101  16.969 -0.2123 -0.5669  0.4131
12183TIP3    H257965   5.822   1.114  17.113  0.9319 -0.2822  0.0249
12184TIP3   OH257966   3.492   2.393   5.739 -0.0862 -0.2601  0.1149
12184TIP3    H157967   3.541   2.474   5.746 -1.8142  0.7895  0.7949
12184TIP3    H257968   3.493   2.355   5.827 -3.2987  1.5974  1.1408
12185TIP3   OH257969   6.253   4.620   3.758 -0.2290 -0.1163 -0.0795
12185TIP3    H157970   6.346   4.626   3.781  0.2369 -0.9501 -1.5756
12185TIP3    H257971   6.230   4.529   3.772 -1.0989  0.2639  1.1376
12186TIP3   OH257972   0.164   4.622  13.151  0.0075 -0.4419  0.4308
12186TIP3    H157973   0.231   4.578  13.204  1.3761  0.2672 -0.6534
12186TIP3    H257974   0.168   4.713  13.179  3.0828  0.7066 -2.9641
12187TIP3   OH257975   1.185   3.645  13.673  0.0472  0.2312 -0.3388
12187TIP3    H157976   1.134   3.580  13.624  2.0443 -0.3487 -1.8246
12187TIP3    H257977   1.129   3.722  13.677 -1.5406 -0.8634 -0.4613
12188TIP3   OH257978   4.912   4.263   3.616 -0.0479  0.6312  0.7039
12188TIP3    H157979   5.006   4.278   3.604 -0.1933  1.5430  0.6739
12188TIP3    H257980   4.898   4.174   3.582  0.5303  1.0686 -0.7605
12189TIP3   OH257981   1.849   6.449  16.824 -0.2585 -0.0713  0.2195
12189TIP3    H157982   1.936   6.477  16.794 -0.6114 -0.4498 -1.2209
12189TIP3    H257983   1.862   6.360  16.855 -0.0040  0.1060  0.6290
12190TIP3   OH257984   6.398   6.486   1.457  0.1938  0.2061 -0.5248
12190TIP3    H157985   6.417   6.441   1.540 -1.0421 -0.7331 -0.7105
12190TIP3    H257986   6.470   6.461   1.399  1.3301  1.2617  0.3796
12191TIP3   OH257987   3.546   1.441   4.826  0.1319 -0.0797 -0.1272
12191TIP3    H157988   3.568   1.501   4.898  0.5789  1.3862 -1.4335
12191TIP3    H257989   3.554   1.494   4.747  0.2250 -1.8063 -1.3342
12192TIP3   OH257990   5.188   1.664  16.873  0.3158 -0.4439 -0.1659
12192TIP3    H157991   5.163   1.746  16.829  0.4119 -0.0383  0.5303
12192TIP3    H257992   5.104   1.626  16.900  0.2454 -0.7685 -0.8151
12193TIP3   OH257993   0.363   4.565   3.670 -0.1709  0.5863 -0.6258
12193TIP3    H157994   0.289   4.603   3.718  0.5518  0.7928  0.3695
12193TIP3    H257995   0.340   4.473   3.660 -0.3182  0.5305  0.1769
12194TIP3   OH257996   4.662   6.174  12.300  0.4839 -0.4490  0.0313
12194TIP3    H157997   4.713   6.185  12.220  0.1226 -0.0893 -0.1518
12194TIP3    H257998   4.593   6.112  12.277 -0.6109  0.8849 -0.4161
12195TIP3   OH257999   3.511   0.870   1.181  0.2369 -0.0969 -0.2712
12195TIP3    H158000   3.584   0.873   1.120 -0.8840  0.8410 -1.6313
12195TIP3    H258001   3.435   0.896   1.129 -1.0619 -0.9439  1.1162
12196TIP3   OH258002   4.467   0.189   5.606  0.2988 -0.8212  0.8567
12196TIP3    H158003   4.553   0.156   5.632 -0.5966 -1.2461  3.6524
12196TIP3    H258004   4.485   0.276   5.571  1.8367 -0.6326  1.9697
12197TIP3   OH258005   1.131   5.081  15.388 -0.0722  0.0968 -0.4217
12197TIP3    H158006   1.102   5.164  15.423 -0.4907  0.3283 -1.2866
12197TIP3    H258007   1.220   5.070  15.421 -0.1603  0.6955  0.0143
12198TIP3   OH258008   2.323   2.764   5.150  0.4122  0.4745 -0.7016
12198TIP3    H158009   2.373   2.684   5.130 -0.5327 -1.4021  3.3581
12198TIP3    H258010   2.235   2.746   5.117 -0.0884 -0.7729  1.1655
12199TIP3   OH258011   5.896   5.839   2.927  0.0033 -0.0972 -0.2240
12199TIP3    H158012   5.846   5.775   2.878 -0.4800  0.7013 -0.8003
12199TIP3    H258013   5.969   5.862   2.870 -0.0622  0.1749 -0.2022
12200TIP3   OH258014   4.857   4.591  14.581  0.5954  0.4061  0.5328
12200TIP3    H158015   4.926   4.590  14.514 -0.9004 -0.6849 -1.1016
12200TIP3    H258016   4.835   4.683  14.591 -0.6443  0.5009 -2.2034
12201TIP3   OH258017   5.015   4.762   0.192 -0.0750  0.4335 -0.0714
12201TIP3    H158018   5.044   4.671   0.196  1.6872  0.8457 -2.0002
12201TIP3    H258019   5.011   4.790   0.283 -0.1043 -1.4003  0.5264
12202TIP3   OH258020   2.662   5.727  16.117  0.3157  0.1350 -0.1118
12202TIP3    H158021   2.688   5.797  16.177  0.5058 -0.7777  0.9072
12202TIP3    H258022   2.741   5.705  16.069  0.9350 -1.0795  1.3687
12203TIP3   OH258023   3.936   6.116   2.468  0.0984  0.7226 -0.3365
12203TIP3    H158024   3.899   6.205   2.464 -0.7107  0.3736 -0.7721
12203TIP3    H258025   3.860   6.058   2.465  0.6987 -0.0385 -1.9185
12204TIP3   OH258026   2.026   4.421  11.825 -0.1655 -0.1494 -0.0794
12204TIP3    H158027   1.930   4.422  11.826 -0.1875 -1.1370 -0.2662
12204TIP3    H258028   2.051   4.463  11.908 -0.7219  1.4725 -0.6813
12205TIP3   OH258029   2.790   4.345   3.558 -0.0028  0.1847 -0.0693
12205TIP3    H158030   2.828   4.290   3.627  0.4599  1.0718  0.4012
12205TIP3    H258031   2.712   4.297   3.529 -0.1974 -0.2090  1.0607
12206TIP3   OH258032   3.192   1.110  14.409 -0.2343  0.5392  0.2988
12206TIP3    H158033   3.149   1.026  14.422 -0.5082  0.1603 -2.4317
12206TIP3    H258034   3.209   1.143  14.497 -0.4616 -2.1809  1.4444
12207TIP3   OH258035   3.606   4.989  11.471  0.2712  0.2454  0.2106
12207TIP3    H158036   3.593   5.028  11.557 -1.5025  0.2269 -0.0254
12207TIP3    H258037   3.543   4.917  11.467  1.2175 -0.5844 -0.6311
12208TIP3   OH258038   1.909   4.832  14.115 -0.3306  0.1612  0.3679
12208TIP3    H158039   1.978   4.881  14.159 -2.7858  2.6294  1.7425
12208TIP3    H258040   1.913   4.861  14.024  1.5377 -1.1469 -0.0248
12209TIP3   OH258041   3.493   0.761   0.221 -0.1652  0.1713  0.1480
12209TIP3    H158042   3.554   0.795   0.286 -0.2480  0.1815  0.2211
12209TIP3    H258043   3.489   0.830   0.154  0.4833 -0.1565 -0.2375
12210TIP3   OH258044   1.930   3.159  16.550 -0.1228  0.1606  0.6524
12210TIP3    H158045   1.980   3.205  16.617 -0.7905  0.8520  0.6869
12210TIP3    H258046   1.993   3.099  16.510  0.9845  1.6496  0.0807
12211TIP3   OH258047   5.647   0.949  12.766  0.0224  0.3934  0.1561
12211TIP3    H158048   5.568   0.932  12.714 -0.4030 -3.3227  1.7157
12211TIP3    H258049   5.719   0.933  12.705 -0.3126  2.4323 -0.8909
12212TIP3   OH258050   6.539   6.344   0.505 -0.0002  0.3271 -0.3328
12212TIP3    H158051   6.540   6.439   0.498  1.0312  0.3469  0.0051
12212TIP3    H258052   6.498   6.314   0.424 -1.1112  1.0803 -0.0759
12213TIP3   OH258053   4.117   4.834  16.356 -0.2967  0.3371 -0.1296
12213TIP3    H158054   4.077   4.897  16.416  0.8848  0.3068  0.7241
12213TIP3    H258055   4.077   4.750  16.379 -2.2027  0.7844 -1.5656
12214TIP3   OH258056   0.525   3.939  13.351  0.0567 -0.3172 -0.2534
12214TIP3    H158057   0.475   4.012  13.313 -0.1508 -0.7124 -0.7421
12214TIP3    H258058   0.457   3.878  13.382  0.2149  0.0041  0.7832
12215TIP3   OH258059   0.039   2.612   2.277  0.0181 -0.6414  0.2674
12215TIP3    H158060  -0.015   2.657   2.342 -0.2397  0.8987 -0.9614
12215TIP3    H258061   0.110   2.573   2.328 -0.7265 -0.3497  1.5745
12216TIP3   OH258062   5.652   1.865   5.926 -0.1037  0.2934  0.0479
12216TIP3    H158063   5.742   1.836   5.940 -0.4575 -1.5675 -1.1753
12216TIP3    H258064   5.661   1.941   5.869  0.6780 -0.1700 -0.4699
12217TIP3   OH258065   0.151   3.945  13.984 -0.4200  0.2358  0.2193
12217TIP3    H158066   0.190   3.935  14.070 -1.4736  0.4749  0.7450
12217TIP3    H258067   0.116   4.034  13.983 -1.6879 -0.2369  0.1019
12218TIP3   OH258068   4.345   3.483   5.643  0.6147 -0.4564 -0.6091
12218TIP3    H158069   4.261   3.463   5.601  0.7789 -2.2942 -0.1183
12218TIP3    H258070   4.320   3.528   5.724  0.2026  0.6966 -1.3476
12219TIP3   OH258071   1.128   5.306   5.585 -0.3327  0.4922  0.3739
12219TIP3    H158072   1.180   5.359   5.525 -2.2676  1.3682 -0.6253
12219TIP3    H258073   1.125   5.219   5.544  0.9779  0.1951  0.8656
12220TIP3   OH258074   1.887   1.345  17.310  0.0344 -0.5064  0.1077
12220TIP3    H158075   1.824   1.378  17.247  0.4340 -2.9284 -1.7349
12220TIP3    H258076   1.846   1.357  17.395 -1.7071  0.4132 -0.8239
12221TIP3   OH258077   2.596   1.167  16.045 -0.2823 -0.5260 -0.1516
12221TIP3    H158078   2.650   1.101  16.089 -1.2609 -1.9980 -1.0549
12221TIP3    H258079   2.658   1.221  15.997  0.4949 -1.3991 -0.1564
12222TIP3   OH258080   1.672   2.134  16.558  0.3692 -0.3009 -0.1918
12222TIP3    H158081   1.685   2.056  16.503  1.3991  0.0812 -0.5226
12222TIP3    H258082   1.617   2.192  16.506  0.3473 -0.4369 -0.3203
12223TIP3   OH258083   4.452   2.066  15.378  0.1288  0.2210 -0.1948
12223TIP3    H158084   4.418   2.114  15.303 -0.3293  0.2036 -0.0038
12223TIP3    H258085   4.425   2.119  15.454 -2.0665 -1.2636  0.1586
12224TIP3   OH258086   0.312   2.550  15.716 -0.1198 -0.2465  0.1006
12224TIP3    H158087   0.216   2.546  15.722 -0.2775  2.5207  1.0172
12224TIP3    H258088   0.343   2.510  15.797 -0.4569 -1.5582 -0.4022
12225TIP3   OH258089   3.516   2.093  13.573 -0.3701 -0.1845 -0.9610
12225TIP3    H158090   3.498   2.037  13.649  0.2601  0.2128 -0.5006
12225TIP3    H258091   3.600   2.061  13.540 -0.2527  0.1643 -1.0001
12226TIP3   OH258092   1.672   5.928  14.224 -0.1721  0.1271  0.2006
12226TIP3    H158093   1.667   5.832  14.232  0.5991  0.0119 -0.6243
12226TIP3    H258094   1.757   5.945  14.183 -1.3168  1.0127 -1.9577
12227TIP3   OH258095   0.977   2.916  11.636 -0.0320 -0.1283 -0.1548
12227TIP3    H158096   1.034   2.980  11.678  1.0257 -1.1636  0.0140
12227TIP3    H258097   0.889   2.942  11.662  0.5065  0.0768  1.5490
12228TIP3   OH258098   0.507   1.662   1.713 -0.1546 -0.0693  0.6407
12228TIP3    H158099   0.555   1.581   1.693  0.1785 -0.3511  2.4463
12228TIP3    H258100   0.522   1.718   1.636 -0.8097 -1.8721 -0.8824
12229TIP3   OH258101   0.695   1.542  12.090 -0.3227 -0.0579  0.4575
12229TIP3    H158102   0.737   1.615  12.045  0.4052  0.4866  1.9339
12229TIP3    H258103   0.717   1.465  12.037 -0.3578  0.6644 -0.6398
12230TIP3   OH258104   4.477   2.289  10.475 -0.3762  0.3031 -0.3769
12230TIP3    H158105   4.500   2.298  10.568  0.3464  1.9958 -0.6761
12230TIP3    H258106   4.528   2.214  10.444 -0.8958 -0.5028  0.6533
12231TIP3   OH258107   5.280   2.485   5.414  0.6102  0.0901 -0.2756
12231TIP3    H158108   5.242   2.405   5.450 -1.0954  1.6685  1.6450
12231TIP3    H258109   5.373   2.480   5.437  0.5792 -1.3885 -0.3653
12232TIP3   OH258110   1.174   0.308   2.392  0.4407  0.7041 -0.5622
12232TIP3    H158111   1.232   0.235   2.373  0.3346  0.3339  0.4816
12232TIP3    H258112   1.230   0.385   2.389  1.1009  0.3078  0.8949
12233TIP3   OH258113   3.871   5.461  11.102  0.3808 -0.2020 -0.4228
12233TIP3    H158114   3.782   5.487  11.077 -0.3871 -0.6326  1.6643
12233TIP3    H258115   3.895   5.393  11.038 -0.4315  0.5130 -1.5243
12234TIP3   OH258116   4.588   3.821   4.272 -0.1924 -0.1724  0.1602
12234TIP3    H158117   4.680   3.810   4.251 -0.1359  1.7099 -0.8515
12234TIP3    H258118   4.581   3.802   4.365  1.1356 -0.6819  0.1736
12235TIP3   OH258119   4.148   5.743  12.873  0.0395  0.1937  0.4809
12235TIP3    H158120   4.091   5.814  12.846  1.2628  0.6236 -1.1384
12235TIP3    H258121   4.196   5.777  12.949 -0.2866  0.6173  0.4989
12236TIP3   OH258122   2.003   0.792   2.799 -0.6546  0.7832  0.0885
12236TIP3    H158123   2.060   0.842   2.857  1.0225 -1.3807  0.4431
12236TIP3    H258124   2.031   0.816   2.710  0.4663  0.1645  0.2563
12237TIP3   OH258125   4.784   1.905  12.767 -0.1956  0.5066 -0.6053
12237TIP3    H158126   4.878   1.907  12.787 -0.4714 -0.1802  0.8711
12237TIP3    H258127   4.748   1.838  12.825 -1.7849  1.5490 -0.3057
12238TIP3   OH258128   5.545   1.991  11.660  0.1560  0.5429 -0.1862
12238TIP3    H158129   5.499   1.975  11.577 -1.8252 -2.9183  1.3586
12238TIP3    H258130   5.637   1.996  11.635 -0.3052 -1.1111 -2.5878
12239TIP3   OH258131   3.918   1.514  14.075  0.0520 -0.4871 -0.3371
12239TIP3    H158132   3.916   1.472  13.989  1.6396  0.0487 -0.6772
12239TIP3    H258133   3.942   1.443  14.136 -2.0610 -1.0914 -0.1423
12240TIP3   OH258134   0.645   4.296   3.165  0.0443 -0.2791 -0.0175
12240TIP3    H158135   0.575   4.311   3.229  0.1087 -2.6971  0.7049
12240TIP3    H258136   0.707   4.240   3.211  2.0210  1.0010 -0.9759
12241TIP3   OH258137   4.615   5.214   5.915  0.5917 -0.0632  0.3259
12241TIP3    H158138   4.553   5.245   5.980  0.7160 -1.4807  1.1760
12241TIP3    H258139   4.561   5.187   5.841  0.4877  2.0831 -0.4341
12242TIP3   OH258140   2.735   1.981  13.099  0.3075  0.2610 -0.7640
12242TIP3    H158141   2.680   2.044  13.146  0.2219 -1.5812  1.8863
12242TIP3    H258142   2.672   1.918  13.063  0.4559  0.9918 -2.3666
12243TIP3   OH258143   2.625   5.141   5.528  0.2119 -0.1235  0.4030
12243TIP3    H158144   2.619   5.054   5.567  2.8431  0.4111  2.2735
12243TIP3    H258145   2.615   5.126   5.434  0.4555 -2.4303  0.6930
12244TIP3   OH258146   5.647   1.805   5.541 -0.0042  0.3342  0.1598
12244TIP3    H158147   5.664   1.746   5.468  0.8339  0.6300  0.1022
12244TIP3    H258148   5.693   1.765   5.615  0.2591  0.7209  0.2079
12245TIP3   OH258149   0.508   2.399   0.687 -0.0859 -0.3941  0.3766
12245TIP3    H158150   0.490   2.380   0.779  0.0253  1.7628  0.8892
12245TIP3    H258151   0.518   2.494   0.683 -1.9075 -0.2051 -2.1991
12246TIP3   OH258152   4.947   5.249   0.327  0.3996 -0.0764  0.1102
12246TIP3    H158153   4.862   5.257   0.370  0.4970 -0.3266  0.3531
12246TIP3    H258154   5.007   5.298   0.384 -0.1463  3.1063 -1.7990
12247TIP3   OH258155   3.855   0.356   3.746 -0.0231  0.0673 -0.1682
12247TIP3    H158156   3.864   0.331   3.838 -1.2708 -1.3458 -0.3888
12247TIP3    H258157   3.934   0.322   3.704  0.6849  0.9611  0.4072
12248TIP3   OH258158   6.218   3.924  16.880  0.6248 -0.0946  0.0741
12248TIP3    H158159   6.268   3.925  16.961 -0.6963  2.9002  0.9857
12248TIP3    H258160   6.166   4.005  16.882 -2.6910 -1.9307 -1.7548
12249TIP3   OH258161   5.933   2.504   0.115 -0.7627 -1.0470  0.0879
12249TIP3    H158162   5.857   2.492   0.171 -0.0612 -1.4312  0.9796
12249TIP3    H258163   5.952   2.416   0.082 -1.9416 -0.6529 -1.8362
12250TIP3   OH258164   3.327   3.745   5.500  0.4202  0.0543 -0.2551
12250TIP3    H158165   3.374   3.817   5.542 -0.4452  0.7859 -0.5212
12250TIP3    H258166   3.366   3.666   5.538  2.5029  0.5845 -1.0943
12251TIP3   OH258167   4.671   3.093  14.215 -0.1188  0.6673 -0.7970
12251TIP3    H158168   4.736   3.153  14.178  1.5289 -0.1762  0.5945
12251TIP3    H258169   4.653   3.031  14.144  1.2603  0.4149 -0.9477
12252TIP3   OH258170   5.490   1.944  14.110 -0.2687  0.1091  0.0514
12252TIP3    H158171   5.568   1.986  14.073  0.6631 -2.1930 -0.8425
12252TIP3    H258172   5.441   1.913  14.034 -0.6374 -0.8175  0.6382
12253TIP3   OH258173   2.956   3.216  16.146 -0.4265  0.9753  0.5923
12253TIP3    H158174   3.046   3.182  16.148 -0.1587  1.4962 -1.0654
12253TIP3    H258175   2.965   3.305  16.112 -1.5139  1.2811  1.0788
12254TIP3   OH258176   2.475   0.888  14.681 -0.0242  0.0020  0.2296
12254TIP3    H158177   2.477   0.969  14.732 -0.8446  0.1482  0.0478
12254TIP3    H258178   2.388   0.852  14.696 -0.1890 -0.0971 -0.8416
12255TIP3   OH258179   3.668   6.692   0.918  0.2631 -0.8700  0.4723
12255TIP3    H158180   3.669   6.783   0.888 -0.5970 -0.8125  0.5799
12255TIP3    H258181   3.723   6.691   0.996  1.0258 -0.6345 -0.0590
12256TIP3   OH258182   4.587   3.084  16.753 -0.7062 -0.6442  0.2510
12256TIP3    H158183   4.662   3.135  16.723 -0.8910 -0.2038  0.5244
12256TIP3    H258184   4.624   3.000  16.781 -0.3969 -0.6545 -0.1749
12257TIP3   OH258185   1.676   4.382   3.280 -0.1815  0.1913 -0.3302
12257TIP3    H158186   1.647   4.299   3.317  1.7040  0.6191  2.4301
12257TIP3    H258187   1.735   4.358   3.209  0.0850 -0.8511  0.2208
12258TIP3   OH258188   2.312   3.924  14.900  0.3785  0.0064 -0.2029
12258TIP3    H158189   2.388   3.937  14.957 -0.0018 -1.6452  0.7293
12258TIP3    H258190   2.305   4.007  14.852  1.3759  1.0691  1.3509
12259TIP3   OH258191   4.444   0.903  14.082  0.1384 -0.0127 -0.3729
12259TIP3    H158192   4.459   0.967  14.013  0.0831 -0.2648 -0.6224
12259TIP3    H258193   4.531   0.883  14.117  0.2079 -0.1798 -0.6398
12260TIP3   OH258194   3.191   5.385   1.956  0.0243 -0.0345 -0.4348
12260TIP3    H158195   3.099   5.398   1.979  0.3860 -0.5233  1.3987
12260TIP3    H258196   3.220   5.313   2.011  1.6387  0.4190 -0.6464
12261TIP3   OH258197   1.895   3.907  17.189  0.6290  0.0035  0.5789
12261TIP3    H158198   1.856   3.850  17.255  0.4437  1.1432  1.4873
12261TIP3    H258199   1.827   3.916  17.122  1.2292 -2.0670 -0.3782
12262TIP3   OH258200   5.573   4.279   1.884 -0.0388  0.5693 -0.1021
12262TIP3    H158201   5.488   4.308   1.849 -0.0264  2.1474  1.0358
12262TIP3    H258202   5.552   4.239   1.968  0.2682  0.2052 -0.1972
12263TIP3   OH258203   5.439   5.673  17.196  0.0308  0.4790  0.2103
12263TIP3    H158204   5.534   5.683  17.192  0.1197 -0.5914 -0.6774
12263TIP3    H258205   5.424   5.623  17.277  0.2771  0.1331  0.0454
12264TIP3   OH258206   3.343   1.597  13.308  0.1189  0.5859  0.2202
12264TIP3    H158207   3.356   1.684  13.346  0.7678 -0.2992  2.2264
12264TIP3    H258208   3.391   1.538  13.367  0.2043 -1.0751 -1.4010
12265TIP3   OH258209   0.036   1.598   1.566  0.5315  0.4611  0.0450
12265TIP3    H158210   0.109   1.645   1.524  0.1543  0.8809 -0.1441
12265TIP3    H258211  -0.027   1.584   1.496  0.3551  0.2474  0.2460
12266TIP3   OH258212   5.968   0.369   0.445  0.1298 -0.2641 -1.0759
12266TIP3    H158213   5.987   0.389   0.536  2.1179  1.8226 -1.8407
12266TIP3    H258214   5.878   0.401   0.431  0.2197  0.4346 -0.1138
12267TIP3   OH258215   0.589   6.121   1.828 -0.1045  0.3952 -0.0562
12267TIP3    H158216   0.514   6.067   1.852 -0.4782  1.5850  1.6446
12267TIP3    H258217   0.555   6.178   1.758 -0.3644 -0.0256 -0.2764
12268TIP3   OH258218   4.963   4.741  11.513  0.6065 -0.3238 -0.0817
12268TIP3    H158219   4.898   4.802  11.547  0.1040 -1.3131  0.7806
12268TIP3    H258220   4.993   4.693  11.590  2.7699  0.4706 -0.3679
12269TIP3   OH258221   2.473   1.870   5.184  0.0706 -0.0872 -0.4213
12269TIP3    H158222   2.485   1.965   5.184  0.5400 -0.1414 -0.7915
12269TIP3    H258223   2.447   1.850   5.094  1.8009 -0.5205 -0.8613
12270TIP3   OH258224   1.508   4.559  16.029  0.5742 -0.8051 -0.3354
12270TIP3    H158225   1.574   4.492  16.049 -0.6877 -1.7118  0.9333
12270TIP3    H258226   1.455   4.565  16.108 -0.2715  0.6397 -0.9758
12271TIP3   OH258227   4.847   5.145  11.304  0.1124 -0.2423 -0.2600
12271TIP3    H158228   4.814   5.095  11.230  0.4885  0.6656 -1.0757
12271TIP3    H258229   4.874   5.229  11.266 -0.1628  0.4416  0.9924
12272TIP3   OH258230   2.818   3.675  13.332 -0.0990 -0.0474 -0.5602
12272TIP3    H158231   2.769   3.594  13.317 -1.0360  0.5222 -0.6701
12272TIP3    H258232   2.751   3.741  13.345  0.6494  0.4686  0.9149
12273TIP3   OH258233   3.856   6.572  15.500  0.1075 -0.0050 -0.5086
12273TIP3    H158234   3.770   6.608  15.522  0.6546  1.4622 -0.6246
12273TIP3    H258235   3.863   6.579  15.405  0.1790 -0.5378 -0.5453
12274TIP3   OH258236   5.452   0.862  14.995  1.3294  0.3820  0.6364
12274TIP3    H158237   5.543   0.834  14.982  0.8998 -1.2673  0.9804
12274TIP3    H258238   5.404   0.826  14.921  0.4000 -1.6885  2.1484
12275TIP3   OH258239   3.424   4.956  15.526 -0.0038  0.2751 -0.2235
12275TIP3    H158240   3.440   4.991  15.438  0.9374 -1.4386 -0.7845
12275TIP3    H258241   3.374   4.876  15.511 -1.1467  0.7319  0.9359
12276TIP3   OH258242   2.840   6.431   4.355  0.1122  0.2171  0.2194
12276TIP3    H158243   2.770   6.366   4.349  0.9289 -0.6118 -0.7096
12276TIP3    H258244   2.818   6.496   4.289  1.0740 -0.9359 -1.3012
12277TIP3   OH258245   1.505   5.960  13.031  0.3085  0.4860  0.4733
12277TIP3    H158246   1.501   5.875  13.073  0.1519  0.6096  0.7137
12277TIP3    H258247   1.423   6.003  13.056  0.1878  0.5403 -0.0035
12278TIP3   OH258248   0.125   4.448   1.853 -0.0950  0.8102  0.7085
12278TIP3    H158249   0.191   4.379   1.861  0.3183  1.2459  1.1194
12278TIP3    H258250   0.114   4.460   1.758 -0.3439  0.0254  0.6313
12279TIP3   OH258251   6.238   4.330   5.919  0.0127  0.0901 -0.1415
12279TIP3    H158252   6.188   4.340   6.000 -2.7914  0.8542 -1.8150
12279TIP3    H258253   6.173   4.300   5.855  2.2042 -0.8805 -2.0384
12280TIP3   OH258254   2.755   0.821  16.950  0.6025 -0.6431  0.6870
12280TIP3    H158255   2.659   0.827  16.952  0.6318 -0.2362  0.9089
12280TIP3    H258256   2.780   0.867  16.870  0.5653 -1.4844  0.1746
12281TIP3   OH258257   6.358   6.539   5.002 -0.2081  0.1283 -0.6810
12281TIP3    H158258   6.311   6.484   4.939  0.4737  2.5231 -3.4760
12281TIP3    H258259   6.403   6.476   5.059 -0.5968 -2.2144 -2.7554
12282TIP3   OH258260   2.468   4.744   2.958 -1.0224 -0.0643  0.6419
12282TIP3    H158261   2.496   4.701   2.878  1.8829  0.7190  1.1194
12282TIP3    H258262   2.410   4.681   3.000  0.9615 -2.4356  0.0571
12283TIP3   OH258263   0.849   5.549   5.683  0.6003 -0.6527 -0.0144
12283TIP3    H158264   0.934   5.569   5.642  0.4247 -0.3919 -0.2601
12283TIP3    H258265   0.841   5.614   5.753  0.7990 -0.9568  0.2958
12284TIP3   OH258266   5.363   1.411   0.413 -0.2908  0.0844 -0.0029
12284TIP3    H158267   5.298   1.366   0.467  2.7733 -0.3429  3.6778
12284TIP3    H258268   5.402   1.343   0.359  0.7245 -0.7785  1.7447
12285TIP3   OH258269   1.064   1.938  13.852 -0.6153 -0.4797 -0.0063
12285TIP3    H158270   1.103   1.965  13.936  1.0544 -0.2575 -0.8091
12285TIP3    H258271   1.075   2.014  13.795 -1.0511 -0.8903 -0.6529
12286TIP3   OH258272   4.138   2.973  15.177 -0.4704 -0.3319  0.0734
12286TIP3    H158273   4.094   2.897  15.213 -0.0006 -0.1114  1.1383
12286TIP3    H258274   4.156   3.029  15.252 -1.1722  1.0318 -0.7327
12287TIP3   OH258275   5.327   5.908  11.410 -0.1018 -0.5375  0.0797
12287TIP3    H158276   5.410   5.931  11.367  1.0894 -0.5748  2.1868
12287TIP3    H258277   5.322   5.813  11.404  1.1910 -0.7708  1.8053
12288TIP3   OH258278   3.577   2.368  16.035  0.1106  0.0646  0.2644
12288TIP3    H158279   3.591   2.340  16.125  0.2476  0.8572  0.5048
12288TIP3    H258280   3.585   2.464  16.039 -2.4849  0.3647 -0.0868
12289TIP3   OH258281   5.058   1.386  13.416 -0.6001 -0.2412  0.1106
12289TIP3    H158282   5.144   1.343  13.418 -1.1344 -1.3274  0.2927
12289TIP3    H258283   4.996   1.315  13.401 -1.4025  0.6407 -0.9938
12290TIP3   OH258284   4.721   0.243   1.850  0.3405 -0.6597 -0.1792
12290TIP3    H158285   4.778   0.198   1.913 -0.2333 -0.5441  0.4299
12290TIP3    H258286   4.749   0.335   1.855 -0.1825 -0.5277  0.4434
12291TIP3   OH258287   0.754   2.256   2.518 -0.0602  0.1924  0.2504
12291TIP3    H158288   0.714   2.171   2.500  1.6833 -0.2769 -1.9139
12291TIP3    H258289   0.831   2.236   2.572 -1.0186  0.7451  1.8930
12292TIP3   OH258290   2.634   5.733  10.824 -0.1849 -0.2426 -0.2439
12292TIP3    H158291   2.644   5.806  10.886 -2.1185 -0.9898  1.0480
12292TIP3    H258292   2.559   5.758  10.770 -1.4773 -1.6241  0.8357
12293TIP3   OH258293   6.610   4.727  16.859  0.1725 -0.1155  0.1644
12293TIP3    H158294   6.572   4.689  16.938 -0.3475 -1.2875 -0.6219
12293TIP3    H258295   6.696   4.758  16.886 -0.2113  0.0269  1.3116
12294TIP3   OH258296   3.922   4.103   4.142 -0.4687  0.2679  0.5569
12294TIP3    H158297   3.902   4.010   4.126  0.6252  0.2861 -1.3030
12294TIP3    H258298   3.902   4.146   4.059 -1.2662  1.7855  1.5021
12295TIP3   OH258299   6.146   5.734  16.536  0.0150 -0.2972 -0.4289
12295TIP3    H158300   6.227   5.747  16.585 -0.5963 -1.3474  0.9353
12295TIP3    H258301   6.174   5.697  16.452  0.9175 -1.1587  0.2300
12296TIP3   OH258302   5.288   2.134   2.240  0.4563 -0.7472  0.5804
12296TIP3    H158303   5.333   2.053   2.266  1.6894  0.4136  2.3237
12296TIP3    H258304   5.259   2.173   2.323 -1.1893  0.0303 -0.3115
12297TIP3   OH258305   3.992   4.597   6.657 -0.1209  0.4485  0.1189
12297TIP3    H158306   4.008   4.692   6.655  0.9017  0.2855  0.0300
12297TIP3    H258307   4.046   4.562   6.586 -0.7723 -0.1661 -0.0806
12298TIP3   OH258308   6.180   6.241   0.594 -0.9181 -0.2832 -0.0107
12298TIP3    H158309   6.218   6.307   0.652 -1.2294 -0.8324  0.8442
12298TIP3    H258310   6.247   6.172   0.590 -1.6053 -1.0573  1.1530
12299TIP3   OH258311   6.366   2.243   2.590 -0.3793  0.0794 -0.1665
12299TIP3    H158312   6.359   2.291   2.508  2.1928  0.7748 -0.0736
12299TIP3    H258313   6.366   2.312   2.657 -0.6943 -0.3640  0.2978
12300TIP3   OH258314   4.231   4.606   3.335 -0.8644 -0.5618  0.4917
12300TIP3    H158315   4.309   4.649   3.370  0.8446 -2.1511 -1.1666
12300TIP3    H258316   4.161   4.632   3.395  0.6822  1.8158  1.4162
12301TIP3   OH258317   1.283   0.156   2.804 -0.5272  0.0027  0.5598
12301TIP3    H158318   1.233   0.111   2.736 -0.5821  0.1144  0.5267
12301TIP3    H258319   1.227   0.152   2.882  0.3076 -1.7678  1.1128
12302TIP3   OH258320   5.380   0.651  13.194 -0.3486  0.7136 -0.1129
12302TIP3    H158321   5.284   0.656  13.193 -0.5273 -1.3771  1.0811
12302TIP3    H258322   5.405   0.663  13.103 -1.8248  0.2796 -0.6161
12303TIP3   OH258323   2.326   3.775  14.660  0.2209  0.4705 -0.0716
12303TIP3    H158324   2.318   3.846  14.596 -0.3215  0.0259 -0.5022
12303TIP3    H258325   2.317   3.818  14.745  0.0334  0.9351 -0.3250
12304TIP3   OH258326   0.203   4.510  16.222  0.1492 -0.2871  0.4551
12304TIP3    H158327   0.181   4.441  16.284 -0.3345  1.3897  2.2728
12304TIP3    H258328   0.134   4.506  16.156  1.6628 -3.2728 -1.1076
12305TIP3   OH258329   0.402   2.663  14.319  0.1559  0.5742  0.0331
12305TIP3    H158330   0.488   2.620  14.318 -1.2503 -2.4947 -1.5894
12305TIP3    H258331   0.342   2.598  14.281 -2.4139  3.6518 -1.6215
12306TIP3   OH258332   2.926   3.913   5.643  0.5745  0.0758  0.0565
12306TIP3    H158333   2.863   3.969   5.598  2.3442  1.8455 -0.3413
12306TIP3    H258334   2.989   3.888   5.575  0.1918 -1.9301  0.3686
12307TIP3   OH258335   6.314   6.392   3.172 -0.2295  0.3979 -0.1784
12307TIP3    H158336   6.362   6.328   3.225 -3.6243 -1.4606  1.0204
12307TIP3    H258337   6.253   6.338   3.121 -1.2325  2.5660 -1.3833
12308TIP3   OH258338   1.641   4.750   5.543  0.2439 -0.3149 -0.8482
12308TIP3    H158339   1.632   4.816   5.611  0.1979 -0.2310 -0.9349
12308TIP3    H258340   1.588   4.676   5.574  2.8594 -1.6114  0.8092
12309TIP3   OH258341   4.981   1.722  15.910  0.8513  0.2914  0.2717
12309TIP3    H158342   4.918   1.759  15.848  1.3166 -0.5277 -0.6980
12309TIP3    H258343   5.066   1.729  15.867  1.4685  1.4082  1.5834
12310TIP3   OH258344   2.471   3.357  11.755 -0.2071 -0.0223  0.1934
12310TIP3    H158345   2.516   3.305  11.688 -0.5014  1.3889 -1.1575
12310TIP3    H258346   2.409   3.296  11.795  0.0904 -0.9327 -0.6936
12311TIP3   OH258347   0.240   1.853   2.414  0.1991 -0.8577 -0.2746
12311TIP3    H158348   0.222   1.790   2.344 -0.3040 -1.5284  0.4351
12311TIP3    H258349   0.208   1.936   2.381  1.3860 -0.8431 -1.4572
12312TIP3   OH258350   0.264   3.785  14.225 -0.0993 -0.5655  0.2148
12312TIP3    H158351   0.316   3.744  14.294 -1.2984 -3.0669 -0.2362
12312TIP3    H258352   0.207   3.846  14.270  0.1698 -1.0578  1.2514
12313TIP3   OH258353   0.787   5.327  13.200 -0.4053  0.2705  0.1118
12313TIP3    H158354   0.758   5.416  13.222  0.4269  0.6734 -0.3275
12313TIP3    H258355   0.794   5.328  13.104 -0.3677 -0.2577  0.1097
12314TIP3   OH258356   6.036   1.290   1.751  0.7563  0.4344  0.1793
12314TIP3    H158357   6.119   1.284   1.799  0.1806  1.3532  1.3378
12314TIP3    H258358   6.009   1.381   1.762 -1.4482 -0.3023  1.6536
12315TIP3   OH258359   2.699   5.211  15.265  0.4011 -0.6312  0.2758
12315TIP3    H158360   2.637   5.255  15.207  0.0336 -0.7763  0.5588
12315TIP3    H258361   2.702   5.264  15.344 -0.4619 -1.3914  0.8415
12316TIP3   OH258362   5.547   6.003  11.264 -0.1969 -0.2165 -0.2167
12316TIP3    H158363   5.632   5.968  11.290 -1.8907 -2.8002  2.4638
12316TIP3    H258364   5.530   5.964  11.178 -0.1309 -2.6912  0.8085
12317TIP3   OH258365   0.849   6.504  14.142  0.0197  0.4434  0.0434
12317TIP3    H158366   0.933   6.549  14.148  0.6757 -0.6952 -0.1893
12317TIP3    H258367   0.863   6.436  14.075 -0.0039 -1.9332  2.2728
12318TIP3   OH258368   6.299   1.544   1.720  0.3322  0.1081 -0.0577
12318TIP3    H158369   6.380   1.551   1.771 -0.0431 -0.1106  0.5636
12318TIP3    H258370   6.323   1.489   1.645  1.0360  0.9053 -0.4471
12319TIP3   OH258371   4.151   3.673  15.037 -0.1132 -0.4868  0.1190
12319TIP3    H158372   4.215   3.683  14.967  0.2434 -1.9789  0.2056
12319TIP3    H258373   4.173   3.590  15.078 -2.0250 -0.9784  0.2351
12320TIP3   OH258374   3.302   5.701  12.880  0.1078  0.4635  0.5105
12320TIP3    H158375   3.224   5.688  12.933  1.1314 -1.7701  1.6245
12320TIP3    H258376   3.313   5.796  12.875 -1.6331  0.7786  1.8811
12321TIP3   OH258377   1.952   1.218   2.723  0.0119  0.3190 -0.3513
12321TIP3    H158378   2.013   1.148   2.699 -2.6471 -1.5602 -2.2550
12321TIP3    H258379   1.889   1.177   2.783 -1.4480  1.0857 -1.2799
12322TIP3   OH258380   1.591   5.173   3.007 -0.0648  0.4528  0.0622
12322TIP3    H158381   1.513   5.118   3.020 -0.9822  1.4159 -1.0852
12322TIP3    H258382   1.639   5.129   2.937 -1.0419  1.2941 -1.1904
12323TIP3   OH258383   5.849   1.748  16.346  0.0058  0.1364 -0.1368
12323TIP3    H158384   5.830   1.728  16.254  2.3802 -0.0162 -0.6724
12323TIP3    H258385   5.937   1.786  16.344  0.6549 -1.0582  2.2268
12324TIP3   OH258386   3.402   2.116   4.478 -0.1080  0.3586  0.2247
12324TIP3    H158387   3.496   2.106   4.463 -0.4141  0.9052 -2.8096
12324TIP3    H258388   3.366   2.138   4.392 -3.1056 -0.3539  1.1435
12325TIP3   OH258389   0.548   0.721  13.923  0.8198  0.8716 -0.3675
12325TIP3    H158390   0.552   0.698  13.830  1.4566 -1.6636  0.2161
12325TIP3    H258391   0.639   0.736  13.948  0.9000 -0.4737  0.2513
12326TIP3   OH258392   0.040   2.863  11.268 -0.0660  0.4685 -0.4299
12326TIP3    H158393   0.033   2.851  11.173 -0.0073 -0.6373 -0.3111
12326TIP3    H258394  -0.019   2.798  11.304  0.3367  0.5018  0.3066
12327TIP3   OH258395   1.835   6.412  11.473  0.2416  0.8427  0.2308
12327TIP3    H158396   1.743   6.427  11.452  0.3794  0.3449 -0.7807
12327TIP3    H258397   1.843   6.439  11.564 -1.0835  0.1607  0.5816
12328TIP3   OH258398   2.799   5.998   6.363  0.0160  0.0466 -0.3282
12328TIP3    H158399   2.791   6.084   6.322 -2.7938  0.5251  1.0500
12328TIP3    H258400   2.857   6.012   6.438 -1.3292  1.0513  0.5613
12329TIP3   OH258401   6.094   2.578   3.690 -0.6141 -0.0406  0.2603
12329TIP3    H158402   6.108   2.531   3.773  1.0630 -0.1649 -0.0641
12329TIP3    H258403   6.167   2.638   3.684 -1.8305  1.4599 -0.1650
12330TIP3   OH258404   3.649   2.326  16.310 -0.1064  0.2681 -0.6930
12330TIP3    H158405   3.688   2.372  16.384  0.9891 -1.8806  0.1591
12330TIP3    H258406   3.571   2.283  16.346 -1.1048  1.3665 -1.4672
12331TIP3   OH258407   0.172   1.017  12.392 -0.2742 -0.5556 -0.2396
12331TIP3    H158408   0.157   0.990  12.302 -1.2171 -0.6528 -0.0644
12331TIP3    H258409   0.091   0.993  12.438 -1.6418  3.2930 -0.2502
12332TIP3   OH258410   2.610   3.260  12.057 -0.4233  0.0862  0.1122
12332TIP3    H158411   2.630   3.170  12.085 -1.2251  0.0705  0.6642
12332TIP3    H258412   2.569   3.249  11.971  1.1481  0.0658 -0.6703
12333TIP3   OH258413   2.525   3.005  12.030 -0.0070  0.8357  0.0457
12333TIP3    H158414   2.479   3.022  11.948 -0.7549  2.3839  0.7423
12333TIP3    H258415   2.456   2.979  12.091  0.5869 -0.6395  0.1291
12334TIP3   OH258416   0.863   6.079  11.677 -0.5271  0.2364 -0.3637
12334TIP3    H158417   0.767   6.083  11.682 -0.6272 -1.2334 -0.6548
12334TIP3    H258418   0.882   6.085  11.583 -0.1948  2.2606 -0.2173
12335TIP3   OH258419   2.483   1.060  13.052  0.7486 -0.2573  0.0507
12335TIP3    H158420   2.417   1.036  13.117  0.6629 -1.8722 -0.5912
12335TIP3    H258421   2.555   1.097  13.104  0.9868 -2.1700  1.1780
12336TIP3   OH258422   5.516   3.946   2.505  0.4814  0.5184 -0.4063
12336TIP3    H158423   5.477   3.860   2.486 -0.0958  1.0970 -2.0679
12336TIP3    H258424   5.485   4.002   2.433  0.4735  2.2391  0.8880
12337TIP3   OH258425   4.249   1.023  13.433  0.1435  0.1530 -0.3612
12337TIP3    H158426   4.205   0.951  13.386  1.0080 -0.2502 -0.5851
12337TIP3    H258427   4.230   1.007  13.525  2.1035 -1.6704 -0.1930
12338TIP3   OH258428   2.988   0.506   5.717 -0.2284 -0.1061  0.0814
12338TIP3    H158429   2.901   0.488   5.681  0.1643  1.2284 -1.6259
12338TIP3    H258430   2.972   0.568   5.788 -0.5199  2.3315 -1.9806
12339TIP3   OH258431   1.538   0.398   5.296 -0.2045 -0.2871  0.0005
12339TIP3    H158432   1.471   0.412   5.363 -0.6431 -0.5218 -0.3894
12339TIP3    H258433   1.543   0.303   5.286 -1.1049 -0.2143 -1.2663
12340TIP3   OH258434   2.216   5.310  11.967  1.0829  0.6698  0.7755
12340TIP3    H158435   2.196   5.307  11.873  0.0945 -1.6196  0.9779
12340TIP3    H258436   2.248   5.399  11.982  2.9554  0.6128 -2.0339
12341TIP3   OH258437   5.638   6.274  14.273  0.0923 -0.3481 -0.4488
12341TIP3    H158438   5.546   6.260  14.295  0.6240 -2.3892  0.7263
12341TIP3    H258439   5.666   6.192  14.233  2.1774 -1.1201  2.2313
12342TIP3   OH258440   5.749   0.463   1.759 -0.7233  0.1819  0.2814
12342TIP3    H158441   5.805   0.409   1.703 -1.5012 -0.4016  0.0529
12342TIP3    H258442   5.715   0.402   1.825 -1.7076  0.3537 -0.0573
12343TIP3   OH258443   0.972   6.237  15.814 -0.0411  0.1410  0.0153
12343TIP3    H158444   0.980   6.252  15.720  1.1462  1.0941  0.2401
12343TIP3    H258445   0.912   6.305  15.845 -2.5986 -1.7877 -0.3973
12344TIP3   OH258446   0.641   1.841  14.163 -0.3505  0.2392  0.0497
12344TIP3    H158447   0.644   1.769  14.225 -1.3132  0.3585  0.2492
12344TIP3    H258448   0.560   1.887  14.183  0.4948  1.6943  0.2831
12345TIP3   OH258449   3.084   0.951  15.709  0.0842  0.7184 -0.0078
12345TIP3    H158450   3.069   0.925  15.618  0.8108 -0.8939  0.2920
12345TIP3    H258451   3.178   0.943  15.721 -0.0331  0.6402  0.9622
12346TIP3   OH258452   3.597   5.990  14.895  0.4177  0.1108  0.1348
12346TIP3    H158453   3.530   5.932  14.931 -0.3433  1.4238  0.9038
12346TIP3    H258454   3.680   5.948  14.916 -0.1276 -0.8621  0.3644
12347TIP3   OH258455   4.505   5.557   4.923 -0.3492 -0.5460  0.2905
12347TIP3    H158456   4.444   5.545   4.851  0.6951  0.5718 -0.8169
12347TIP3    H258457   4.560   5.479   4.921 -0.2698 -0.4772 -0.1640
12348TIP3   OH258458   4.032   5.755   3.127 -0.0449 -0.1570  0.2689
12348TIP3    H158459   4.020   5.673   3.079  0.9315 -0.8965  1.2388
12348TIP3    H258460   4.122   5.781   3.108  0.1351 -0.1080  1.1453
12349TIP3   OH258461   4.759   1.096  13.508  0.1853 -0.0761  0.4556
12349TIP3    H158462   4.827   1.102  13.441  1.2776 -3.0027  1.1585
12349TIP3    H258463   4.698   1.031  13.474 -1.5389  1.4518  0.5038
12350TIP3   OH258464   0.597   5.919   3.613  0.3729  0.1350  0.3925
12350TIP3    H158465   0.635   5.833   3.631 -0.5282 -0.7074 -1.4959
12350TIP3    H258466   0.672   5.978   3.610  1.3861 -1.1376 -1.2383
12351TIP3   OH258467   3.835   2.812  15.755  0.7348 -0.4908  0.5346
12351TIP3    H158468   3.908   2.863  15.720  0.4597 -0.4655 -0.0138
12351TIP3    H258469   3.757   2.855  15.720  0.5119 -1.6451 -0.4407
12352TIP3   OH258470   5.534   0.878  13.253  0.3268 -0.3679 -0.2312
12352TIP3    H158471   5.532   0.919  13.166 -0.1117  0.1320  0.0045
12352TIP3    H258472   5.491   0.793  13.240  1.0680 -0.6804 -0.6848
12353TIP3   OH258473   3.345   3.321   1.275  0.2136 -0.6794 -0.1678
12353TIP3    H158474   3.335   3.228   1.296 -0.7351 -0.3531  0.9470
12353TIP3    H258475   3.395   3.357   1.348 -1.5760  0.1364  0.7055
12354TIP3   OH258476   0.533   3.228   1.752  0.1140  0.1462  0.2238
12354TIP3    H158477   0.551   3.314   1.716 -0.0089  0.1690  0.2157
12354TIP3    H258478   0.613   3.204   1.799 -0.1184  0.5831  0.8555
12355TIP3   OH258479   4.206   3.516   4.400  0.1313 -0.0892 -0.1508
12355TIP3    H158480   4.250   3.468   4.470  1.1669  0.2278 -0.5728
12355TIP3    H258481   4.276   3.563   4.355 -0.6677  0.5997 -0.7057
12356TIP3   OH258482   5.173   6.418  16.879 -0.3335 -0.0533 -0.1386
12356TIP3    H158483   5.171   6.487  16.945 -1.4510 -0.9041  0.7679
12356TIP3    H258484   5.100   6.439  16.821 -0.5886 -0.3817  0.0585
12357TIP3   OH258485   6.468   0.062  15.830  0.1330  0.0081 -0.5687
12357TIP3    H158486   6.558   0.080  15.854  0.7308 -1.6780 -1.3669
12357TIP3    H258487   6.435   0.005  15.900 -0.1628  0.2260 -0.5265
12358TIP3   OH258488   6.028   3.792   5.845  0.5172 -0.1339  0.0880
12358TIP3    H158489   5.953   3.741   5.874 -0.7989  2.0362  0.7218
12358TIP3    H258490   6.055   3.751   5.763 -1.5253 -0.8105 -0.2903
12359TIP3   OH258491   2.829   4.490   4.394 -0.1017  0.2521  0.3173
12359TIP3    H158492   2.890   4.461   4.462  0.2026 -0.9960 -0.4636
12359TIP3    H258493   2.881   4.492   4.314 -0.5950  1.1736  0.0007
12360TIP3   OH258494   1.860   5.202  16.911 -0.9097 -0.5046 -0.1885
12360TIP3    H158495   1.951   5.200  16.882 -1.0735 -0.9750 -0.6842
12360TIP3    H258496   1.843   5.113  16.944 -1.2786 -0.5056 -0.3795
12361TIP3   OH258497   5.270   2.613   1.235  0.1618  0.0241 -0.4162
12361TIP3    H158498   5.194   2.559   1.254  0.4635 -1.2453 -2.4975
12361TIP3    H258499   5.345   2.557   1.254  0.5278  0.5557 -0.2761
12362TIP3   OH258500   6.180   0.353   5.934 -0.2929 -0.6141 -0.6892
12362TIP3    H158501   6.222   0.351   6.020  1.4631  2.2439 -1.3345
12362TIP3    H258502   6.099   0.304   5.946  0.1833 -0.8677  2.4188
12363TIP3   OH258503   3.690   0.628  12.595 -0.5733  0.5947  0.2578
12363TIP3    H158504   3.668   0.690  12.525 -1.3791  0.5633  0.4773
12363TIP3    H258505   3.695   0.543  12.551  1.1291  0.8598 -0.1574
12364TIP3   OH258506   2.411   5.167  12.614 -0.2565 -0.0182  0.2598
12364TIP3    H158507   2.358   5.159  12.535 -0.2782  0.4513  0.2239
12364TIP3    H258508   2.474   5.236  12.594 -1.6997  1.7210  1.4425
12365TIP3   OH258509   1.639   0.662   6.156 -0.1264 -0.0822  0.3164
12365TIP3    H158510   1.668   0.618   6.236 -0.6472  0.5475  0.8622
12365TIP3    H258511   1.719   0.697   6.117  0.1454 -0.5229  0.4783
12366TIP3   OH258512   0.179   5.051   4.819  0.0337  0.6171  0.1177
12366TIP3    H158513   0.239   5.108   4.867 -0.0871 -0.2580  1.3473
12366TIP3    H258514   0.231   5.019   4.745  0.7539  0.7102  0.5702
12367TIP3   OH258515   6.473   4.719  14.295  0.5809 -0.1707  0.3565
12367TIP3    H158516   6.553   4.686  14.254  0.2473  0.6474 -1.0227
12367TIP3    H258517   6.497   4.734  14.386  2.2465  0.8620 -0.2115
12368TIP3   OH258518   1.685   5.142   5.213 -0.5240  0.4224 -0.3052
12368TIP3    H158519   1.625   5.216   5.205 -1.6128 -0.4369 -0.4493
12368TIP3    H258520   1.643   5.072   5.163 -0.9986 -1.1432  2.1140
12369TIP3   OH258521   6.204   1.708  17.243  0.4750 -0.2998 -0.0334
12369TIP3    H158522   6.194   1.795  17.204  2.6868  1.4331  2.8786
12369TIP3    H258523   6.175   1.718  17.333  0.3867 -2.7506  0.2863
12370TIP3   OH258524   2.088   1.263  10.290  0.3804  0.5706  0.5120
12370TIP3    H158525   2.017   1.320  10.261  0.1923  0.3908  0.6090
12370TIP3    H258526   2.048   1.210  10.359  0.0102 -1.0028 -0.8616
12371TIP3   OH258527   5.326   2.930   2.925 -0.1174 -0.2251  0.5138
12371TIP3    H158528   5.310   3.024   2.913  0.0127  0.0929  2.3940
12371TIP3    H258529   5.403   2.912   2.871 -0.1003  0.7775  0.1760
12372TIP3   OH258530   1.163   3.281   4.002  0.2717 -1.1164 -0.2261
12372TIP3    H158531   1.166   3.268   3.907 -0.1978 -0.1751 -0.3827
12372TIP3    H258532   1.232   3.345   4.020 -0.7252 -0.0170 -0.1762
12373TIP3   OH258533   2.009   1.019  12.021 -0.2621  0.6016 -0.1712
12373TIP3    H158534   1.976   1.050  11.936 -0.8083  0.1372 -0.1342
12373TIP3    H258535   1.981   0.928  12.025 -2.1584  1.1798  1.4318
12374TIP3   OH258536   2.716   4.789  12.933 -0.1209 -0.4929  0.0319
12374TIP3    H158537   2.637   4.842  12.944 -1.5864 -2.6108  0.2451
12374TIP3    H258538   2.693   4.724  12.867  2.1556  0.0589 -1.4014
12375TIP3   OH258539   0.807   5.260   5.652 -0.4325 -0.0715 -0.1709
12375TIP3    H158540   0.881   5.200   5.665 -0.4012 -0.2108 -0.9357
12375TIP3    H258541   0.848   5.345   5.637 -0.4301 -0.1072 -0.3743
12376TIP3   OH258542   1.645   2.330  10.898 -0.2496  0.2694  0.0312
12376TIP3    H158543   1.628   2.421  10.919  0.3813  0.5607 -0.6578
12376TIP3    H258544   1.560   2.295  10.871 -0.2496  1.0421 -1.0515
12377TIP3   OH258545   3.644   5.967   4.462  0.9423  0.0449  0.6168
12377TIP3    H158546   3.653   6.045   4.408  0.4101 -0.4724 -0.2379
12377TIP3    H258547   3.683   5.991   4.546 -0.1400  1.5865  0.7141
12378TIP3   OH258548   3.056   1.065  16.915 -0.4155 -0.0993 -0.0098
12378TIP3    H158549   2.971   1.107  16.906 -0.1349  0.6146  0.5600
12378TIP3    H258550   3.119   1.135  16.900  0.0651 -0.3926  0.5919
12379TIP3   OH258551   5.186   6.649   2.268  0.1532 -0.2277 -0.4940
12379TIP3    H158552   5.157   6.730   2.309 -0.7346 -0.6033 -0.3520
12379TIP3    H258553   5.280   6.645   2.287  0.2685  0.9011 -0.7634
12380TIP3   OH258554   1.640   0.994  12.024 -0.3437  0.7494 -0.4986
12380TIP3    H158555   1.671   0.957  12.107 -1.7541  1.5744  0.4423
12380TIP3    H258556   1.598   0.920  11.980  1.0461  0.1337 -0.8372
12381TIP3   OH258557   6.227   3.744  17.312 -0.7894  0.6733  0.5637
12381TIP3    H158558   6.197   3.672  17.256  0.2863 -0.7126  1.6654
12381TIP3    H258559   6.151   3.765  17.366 -0.8115 -0.4583  1.0122
12382TIP3   OH258560   3.466   5.101   4.242  0.0018 -0.0612 -0.1748
12382TIP3    H158561   3.400   5.143   4.187  2.6486  0.5994 -3.0863
12382TIP3    H258562   3.492   5.168   4.305 -1.8382 -0.2750  0.9019
12383TIP3   OH258563   5.220   2.252  15.744  0.3524  0.0554  0.3328
12383TIP3    H158564   5.183   2.294  15.821  1.5407 -0.3084  1.1317
12383TIP3    H258565   5.220   2.320  15.676 -0.4241  0.4644  0.7342
12384TIP3   OH258566   4.956   6.632  17.111  0.3100  0.4338  0.2711
12384TIP3    H158567   4.902   6.630  17.032 -0.4483  4.2158  0.4915
12384TIP3    H258568   5.046   6.636  17.079  0.2641 -1.4968 -0.2193
12385TIP3   OH258569   2.185   6.046   3.085  0.0830  0.2695  0.0589
12385TIP3    H158570   2.135   5.992   3.023  1.4792  1.0422 -1.8433
12385TIP3    H258571   2.122   6.068   3.153 -0.8596 -2.7383  0.3145
12386TIP3   OH258572   2.559   1.618   3.395 -0.1703  0.7775 -0.5265
12386TIP3    H158573   2.550   1.681   3.468 -1.1088 -0.7881  0.7839
12386TIP3    H258574   2.645   1.578   3.409 -0.7132 -0.1557  0.3050
12387TIP3   OH258575   0.639   6.573   5.412 -0.2266 -0.0870 -0.3606
12387TIP3    H158576   0.629   6.524   5.331 -1.4626 -1.3995  0.5444
12387TIP3    H258577   0.569   6.541   5.469  0.0159  1.4722  0.9054
12388TIP3   OH258578   1.101   4.577  14.728  0.1761 -0.0446 -0.0257
12388TIP3    H158579   1.172   4.586  14.665 -0.1265  0.4686 -0.3016
12388TIP3    H258580   1.124   4.500  14.780 -0.5072 -1.6308 -1.9601
12389TIP3   OH258581   0.039   4.750  13.783  0.3339  0.1716 -0.0331
12389TIP3    H158582   0.029   4.790  13.869 -0.0555  0.0242 -0.0073
12389TIP3    H258583  -0.015   4.671  13.786 -0.0375  0.4021 -0.5641
12390TIP3   OH258584   0.422   2.039   2.171  0.3756 -0.2879  0.2057
12390TIP3    H158585   0.447   2.034   2.079  0.3692  0.8802  0.1302
12390TIP3    H258586   0.354   1.972   2.181  1.7285 -1.7779 -0.1631
12391TIP3   OH258587   5.856   1.001   2.967  0.2612  0.1380  0.4010
12391TIP3    H158588   5.821   0.935   3.027 -0.4238 -1.1773 -1.3471
12391TIP3    H258589   5.779   1.046   2.932  0.4291 -0.8437 -1.3467
12392TIP3   OH258590   1.683   3.587  13.741 -0.0727  0.5650  0.3770
12392TIP3    H158591   1.670   3.624  13.654  0.5600  0.8905  0.4213
12392TIP3    H258592   1.632   3.506  13.740 -1.7374  1.5616  0.3803
12393TIP3   OH258593   6.209   3.741   3.423  0.0999  0.0630  0.0684
12393TIP3    H158594   6.286   3.790   3.392  0.5694 -0.4985  0.3258
12393TIP3    H258595   6.139   3.767   3.364  1.0027 -1.0720 -1.5960
12394TIP3   OH258596   2.119   3.039   5.737 -0.4471  0.2849 -0.3347
12394TIP3    H158597   2.194   2.992   5.772 -2.3644 -1.4053  1.7894
12394TIP3    H258598   2.080   2.979   5.674 -0.9536  0.4848 -0.2134
12395TIP3   OH258599   4.112   3.483  11.716 -0.0039 -0.3747  0.6100
12395TIP3    H158600   4.201   3.450  11.709  0.0930  0.2155 -1.1186
12395TIP3    H258601   4.104   3.548  11.647 -1.0743  1.2549  2.1959
12396TIP3   OH258602   1.724   0.695   4.112 -0.1102  0.2243  0.3311
12396TIP3    H158603   1.751   0.626   4.173 -0.9918 -1.6263 -1.2370
12396TIP3    H258604   1.691   0.647   4.036 -2.6173  2.3804 -0.0677
12397TIP3   OH258605   1.368   6.340   0.856 -0.3814 -0.2154 -0.4196
12397TIP3    H158606   1.292   6.380   0.812  0.2995  2.2314  0.4941
12397TIP3    H258607   1.330   6.293   0.930 -0.9592  3.3442  1.7594
12398TIP3   OH258608   3.360   3.599  13.791 -0.1750 -0.0459 -0.1098
12398TIP3    H158609   3.448   3.577  13.762 -0.0037 -0.7472  0.9218
12398TIP3    H258610   3.310   3.518  13.780 -0.4314  0.0509  0.3142
12399TIP3   OH258611   0.077   4.490  12.060  0.1298  0.2789  0.1672
12399TIP3    H158612   0.016   4.421  12.033 -0.4281  1.1307 -0.7993
12399TIP3    H258613   0.095   4.471  12.153 -2.8519  0.8903  0.9619
12400TIP3   OH258614   1.474   3.034  13.686  0.1415  0.2589 -0.0662
12400TIP3    H158615   1.487   2.960  13.746  0.8008  1.5002  1.4110
12400TIP3    H258616   1.401   3.082  13.725  0.6827  1.1711 -0.1513
12401TIP3   OH258617   5.184   5.703  15.139 -0.0810 -0.4044  0.1058
12401TIP3    H158618   5.124   5.681  15.210 -0.6368  0.7145  0.0150
12401TIP3    H258619   5.232   5.622  15.121 -1.2322 -1.1944  0.4991
12402TIP3   OH258620   0.394   0.445  14.461 -0.3428 -0.2499 -0.1913
12402TIP3    H158621   0.422   0.511  14.397  0.3606  0.3473  0.6937
12402TIP3    H258622   0.302   0.464  14.476 -0.3744 -0.0513 -0.6225
12403TIP3   OH258623   0.007   4.513   2.577  0.3441  0.6300  0.0296
12403TIP3    H158624  -0.042   4.497   2.658  0.6566  1.1233  0.3166
12403TIP3    H258625   0.040   4.426   2.552 -0.9180  0.2313 -0.3380
12404TIP3   OH258626   1.508   1.117  11.510  0.3425 -0.4487 -0.4074
12404TIP3    H158627   1.452   1.052  11.550 -0.1823 -0.3443 -0.9499
12404TIP3    H258628   1.587   1.119  11.564 -0.8209  0.5622  1.3500
12405TIP3   OH258629   1.208   0.013   3.528  0.0439  0.4609 -0.1871
12405TIP3    H158630   1.217   0.057   3.443 -1.3173 -0.2284 -0.7178
12405TIP3    H258631   1.121  -0.027   3.525  1.1340 -2.1311  0.3237
12406TIP3   OH258632   0.648   1.940   3.996  0.3761  0.1327 -0.0075
12406TIP3    H158633   0.698   2.011   3.955  0.4270  0.2287  0.2181
12406TIP3    H258634   0.713   1.874   4.017  0.4153  0.2724  0.3179
12407TIP3   OH258635   3.184   3.153   6.131 -0.2197  0.1753  0.3063
12407TIP3    H158636   3.220   3.205   6.203 -0.8121  1.4787 -0.3216
12407TIP3    H258637   3.260   3.106   6.096  0.7300  2.0977 -0.3418
12408TIP3   OH258638   4.917   0.880   1.213  0.5036 -0.4171 -0.5979
12408TIP3    H158639   4.899   0.964   1.172  0.4639 -0.1653 -0.0709
12408TIP3    H258640   4.880   0.815   1.153  0.6707 -0.0700 -1.0818
12409TIP3   OH258641   5.736   6.532  12.805 -0.6360  0.3928 -0.4457
12409TIP3    H158642   5.662   6.550  12.863 -1.2891 -1.4518 -0.6470
12409TIP3    H258643   5.748   6.437  12.810  0.1298  0.3484 -2.3262
12410TIP3   OH258644   0.432   5.122   3.227  0.1341  0.5547  0.0197
12410TIP3    H158645   0.522   5.146   3.252  1.1686 -0.3222 -2.4753
12410TIP3    H258646   0.421   5.161   3.140 -2.6357  2.1673  0.9859
12411TIP3   OH258647   0.541   4.064   0.657 -0.3107  0.0302 -0.5409
12411TIP3    H158648   0.526   4.046   0.749 -0.0334  0.9665 -0.3055
12411TIP3    H258649   0.528   4.158   0.648 -1.7835 -0.2306 -1.7425
12412TIP3   OH258650   4.273   5.059   3.298 -0.0988  0.1705 -0.7730
12412TIP3    H158651   4.271   5.141   3.249  0.8599  1.3184  1.0091
12412TIP3    H258652   4.200   5.066   3.359  0.0613 -0.2639 -0.5302
12413TIP3   OH258653   2.243   3.597  14.387 -0.2660 -0.0487  0.5242
12413TIP3    H158654   2.293   3.592  14.305 -0.3213 -3.3398  0.5310
12413TIP3    H258655   2.310   3.609  14.454 -0.1006  1.4292  0.1218
12414TIP3   OH258656   2.905   4.283  14.561  0.2111  0.0645 -0.2084
12414TIP3    H158657   3.000   4.288  14.577  0.4889 -1.2181 -1.2259
12414TIP3    H258658   2.873   4.223  14.628  0.3092 -0.3740 -0.5530
12415TIP3   OH258659   4.819   2.783   0.784 -0.0541  0.0266 -0.2878
12415TIP3    H158660   4.848   2.692   0.787 -0.3300 -0.0658 -0.4006
12415TIP3    H258661   4.773   2.796   0.867 -0.1815  0.0046 -0.3537
12416TIP3   OH258662   1.412   6.647   0.425  0.4676 -0.2657  0.1890
12416TIP3    H158663   1.505   6.629   0.439  0.9384  1.1714 -0.8139
12416TIP3    H258664   1.411   6.724   0.367 -1.3459 -0.0722  0.4148
12417TIP3   OH258665   1.005   5.083  13.374  0.2552  0.5016  0.6570
12417TIP3    H158666   0.916   5.101  13.405 -0.3440  1.1842 -1.2975
12417TIP3    H258667   0.992   5.050  13.285  2.0020  1.4292  0.0252
12418TIP3   OH258668   1.388   3.240   3.317 -0.2612  0.1556 -0.3083
12418TIP3    H158669   1.314   3.190   3.283  0.0850 -1.0921  0.6921
12418TIP3    H258670   1.461   3.217   3.260 -0.2161 -0.1118 -0.1455
12419TIP3   OH258671   5.741   4.614  17.262  0.2238  0.0453  0.2557
12419TIP3    H158672   5.718   4.598  17.170  0.3071 -2.3319  0.5755
12419TIP3    H258673   5.805   4.546  17.282 -1.1305 -0.6424  2.5606
12420TIP3   OH258674   6.768   1.739  10.740  0.0796 -0.0177  0.2429
12420TIP3    H158675   6.852   1.710  10.704 -1.1487 -1.1357 -1.9386
12420TIP3    H258676   6.791   1.791  10.816  2.8119  0.8357 -1.0446
12421TIP3   OH258677   4.107   0.485  16.955 -0.8273 -0.4813 -0.4023
12421TIP3    H158678   4.057   0.488  16.874  0.3068 -0.2819 -1.1109
12421TIP3    H258679   4.138   0.394  16.961  1.9213  0.2273 -2.0122
12422TIP3   OH258680   1.010   2.836   1.684 -0.0571 -0.2610  0.1955
12422TIP3    H158681   1.058   2.789   1.617 -0.3292  0.8477 -0.8231
12422TIP3    H258682   0.933   2.871   1.638  0.1022  1.0956  0.8987
12423TIP3   OH258683   2.452   1.334  14.699 -0.4906 -0.3526 -0.2315
12423TIP3    H158684   2.490   1.277  14.633  1.1617 -0.7835  1.0334
12423TIP3    H258685   2.503   1.318  14.778 -1.9944  0.5915  1.0144
12424TIP3   OH258686   1.569   2.254  13.660 -0.2566  0.0158  0.3747
12424TIP3    H158687   1.576   2.317  13.588 -0.6503  1.4133  1.5176
12424TIP3    H258688   1.642   2.193  13.646 -0.0341  0.5485 -0.9186
12425TIP3   OH258689   1.064   1.526  14.616  0.5326 -0.0176  0.2002
12425TIP3    H158690   1.084   1.517  14.523 -1.4213 -1.6174 -0.1517
12425TIP3    H258691   1.069   1.436  14.650 -0.0901  0.3524  1.3304
12426TIP3   OH258692   4.045   4.702   0.732  0.0942  0.5600 -0.1576
12426TIP3    H158693   4.139   4.713   0.746  0.4850 -1.4522 -0.8863
12426TIP3    H258694   4.007   4.786   0.759  1.9821  1.0813  1.0916
12427TIP3   OH258695   0.333   1.568  14.959 -0.3330  0.3988 -0.0157
12427TIP3    H158696   0.264   1.503  14.945 -0.7097  1.1786 -2.3350
12427TIP3    H258697   0.373   1.578  14.872  1.9210  0.8652  1.0096
12428TIP3   OH258698   1.578   2.258   3.697  0.1211 -0.1479  0.1010
12428TIP3    H158699   1.654   2.200   3.698 -0.9561 -1.6259  2.0790
12428TIP3    H258700   1.503   2.200   3.683 -1.0216  0.6836  2.3268
12429TIP3   OH258701   6.582   4.376   4.554 -0.1034  0.1706  0.5117
12429TIP3    H158702   6.494   4.411   4.540  0.0034  0.2306 -0.0348
12429TIP3    H258703   6.569   4.283   4.573 -0.3139  0.2729  0.8740
12430TIP3   OH258704   0.662   6.497   4.417  0.0623  0.0547 -0.0769
12430TIP3    H158705   0.738   6.552   4.397 -0.1712  0.3277 -0.2333
12430TIP3    H258706   0.604   6.553   4.469  1.1550 -0.9944  2.4366
12431TIP3   OH258707   3.495   5.322  15.290  0.0615  0.0701 -0.7113
12431TIP3    H158708   3.588   5.325  15.264  0.3202  0.6860  0.2311
12431TIP3    H258709   3.477   5.229  15.303  0.7272 -0.0112 -0.3052
12432TIP3   OH258710   4.536   5.605   1.334  0.3322 -0.0066  0.6415
12432TIP3    H158711   4.549   5.558   1.252 -0.7437  0.3687  0.2289
12432TIP3    H258712   4.486   5.683   1.309  0.2741  0.2824  1.6060
12433TIP3   OH258713   0.425   5.256  15.384 -0.5190 -0.7373  0.1072
12433TIP3    H158714   0.357   5.191  15.399 -2.2779  1.0637  0.2917
12433TIP3    H258715   0.381   5.326  15.337  1.4962  0.0289 -0.7298
12434TIP3   OH258716   4.941   2.604   2.671 -0.7663 -0.4025 -0.0883
12434TIP3    H158717   5.021   2.633   2.715 -1.2521 -0.4983  0.8962
12434TIP3    H258718   4.943   2.647   2.586 -1.4289  2.5454  1.2748
12435TIP3   OH258719   0.849   6.327  16.834 -0.3521 -0.1394 -0.0115
12435TIP3    H158720   0.834   6.363  16.746  0.3755  0.3840  0.0683
12435TIP3    H258721   0.943   6.312  16.838 -0.4775 -0.8940  0.4143
12436TIP3   OH258722   2.341   3.289  13.915  0.1479 -0.0382  0.2085
12436TIP3    H158723   2.248   3.263  13.915  0.5491 -1.5891 -0.5399
12436TIP3    H258724   2.374   3.261  14.000  0.7730 -2.9274 -0.8881
12437TIP3   OH258725   5.306   0.821   0.094  0.4979  0.3637 -0.3839
12437TIP3    H158726   5.295   0.853   0.004  0.4830 -1.7524 -1.1887
12437TIP3    H258727   5.363   0.745   0.086 -0.3903 -0.5360  1.2635
12438TIP3   OH258728   3.074   0.116  14.035 -0.2056  0.1184 -0.7178
12438TIP3    H158729   3.015   0.148  13.967 -0.9663  0.1462 -0.0706
12438TIP3    H258730   3.017   0.064  14.093 -0.2291  2.3250  1.4386
12439TIP3   OH258731   3.414   3.223  14.945 -0.0302 -0.3232 -0.4037
12439TIP3    H158732   3.480   3.155  14.955  0.4888  0.2928  0.5636
12439TIP3    H258733   3.418   3.272  15.027 -3.5596 -1.8562  0.8309
12440TIP3   OH258734   0.383   5.045  15.021  0.5493 -0.3494  0.0587
12440TIP3    H158735   0.322   5.119  15.014 -0.1575 -0.5610  2.6669
12440TIP3    H258736   0.403   5.021  14.931 -3.3723 -0.3486 -0.9872
12441TIP3   OH258737   4.002   1.560  12.585 -0.0470  0.1878  0.3355
12441TIP3    H158738   3.950   1.638  12.568  0.4216  0.1467 -1.4238
12441TIP3    H258739   4.077   1.567  12.527 -0.3571 -1.9255 -0.4172
12442TIP3   OH258740   2.386   4.400   3.943  0.3491 -0.2822 -0.8924
12442TIP3    H158741   2.413   4.448   4.021 -0.3273 -0.8678 -0.2810
12442TIP3    H258742   2.290   4.402   3.946  0.3087 -1.3862 -1.0143
12443TIP3   OH258743   4.710   4.413   0.313 -0.0762 -0.7476 -0.2338
12443TIP3    H158744   4.778   4.395   0.378 -1.2317 -1.0187  0.9484
12443TIP3    H258745   4.653   4.336   0.315 -0.1995 -0.7246 -1.5191
12444TIP3   OH258746   4.595   0.122  14.188  0.5386 -0.5101 -0.1454
12444TIP3    H158747   4.532   0.120  14.260  1.8852  0.0676  1.1260
12444TIP3    H258748   4.609   0.215  14.171  1.9741 -0.5698  0.5139
12445TIP3   OH258749   1.490   0.797  10.816  0.8271 -0.4021 -0.0782
12445TIP3    H158750   1.408   0.831  10.780  0.5279  1.4406  2.0635
12445TIP3    H258751   1.487   0.703  10.798 -1.3854 -0.2736 -0.7505
12446TIP3   OH258752   3.017   3.778   3.888 -0.2350  0.0299  0.3139
12446TIP3    H158753   3.040   3.781   3.981 -0.7088  1.4302  0.4084
12446TIP3    H258754   2.960   3.702   3.880 -0.2193 -0.0813  1.1844
12447TIP3   OH258755   4.488   5.448   1.741  0.0940  0.0671  0.4841
12447TIP3    H158756   4.445   5.444   1.656 -2.0574  0.8528  1.4308
12447TIP3    H258757   4.482   5.359   1.775 -1.9342  0.3481  1.0361
12448TIP3   OH258758   4.620   4.749  12.546 -0.1460 -0.3429 -0.4454
12448TIP3    H158759   4.678   4.725  12.474 -0.6608 -0.0842 -0.9554
12448TIP3    H258760   4.621   4.673  12.604  2.5450  0.5240  0.8086
12449TIP3   OH258761   3.468   2.250   2.952 -0.1759  0.2358  0.2907
12449TIP3    H158762   3.439   2.279   2.866  2.9495 -0.9617 -1.3408
12449TIP3    H258763   3.500   2.330   2.994 -1.3958  0.7761  0.2327
12450TIP3   OH258764   4.503   6.055   0.976 -0.0021  0.2507 -0.2150
12450TIP3    H158765   4.456   6.082   1.055  2.1532 -0.8726  1.5865
12450TIP3    H258766   4.490   5.960   0.972 -1.5465  0.4895 -2.3080
12451TIP3   OH258767   2.670   5.759   2.007  0.3600  0.4154  0.7345
12451TIP3    H158768   2.586   5.741   1.965  0.4161  3.7450 -1.0952
12451TIP3    H258769   2.659   5.844   2.049  2.2965  0.0778  2.1131
12452TIP3   OH258770   6.125   6.611  11.348 -0.0235  0.1192 -0.9733
12452TIP3    H158771   6.030   6.612  11.336 -0.2325 -0.3099  0.4707
12452TIP3    H258772   6.150   6.704  11.347 -0.4411  0.2283 -1.4528
12453TIP3   OH258773   3.262   0.641  12.690  0.6135 -0.2470  0.0079
12453TIP3    H158774   3.189   0.675  12.742  0.3183  0.4976 -0.8608
12453TIP3    H258775   3.324   0.607  12.755  0.6162  1.3527  0.9027
12454TIP3   OH258776   5.292   0.417   3.338 -0.7903 -0.1046  0.2154
12454TIP3    H158777   5.315   0.334   3.297 -1.5622  0.2125 -0.9071
12454TIP3    H258778   5.327   0.411   3.426 -0.8777 -1.6368  0.1663
12455TIP3   OH258779   6.256   4.998   0.188  0.2923 -0.1323 -0.3263
12455TIP3    H158780   6.225   5.084   0.158 -1.3786 -1.1058 -1.6214
12455TIP3    H258781   6.303   4.963   0.112 -0.9155 -1.1974 -0.6228
12456TIP3   OH258782   5.469   4.688  14.673 -0.0668 -0.3081 -0.3703
12456TIP3    H158783   5.516   4.670  14.592  2.0573 -1.6433  1.0546
12456TIP3    H258784   5.377   4.679  14.650  0.4552 -0.4766 -2.6518
12457TIP3   OH258785   2.546   2.072  15.004  0.2231  0.1043 -0.1292
12457TIP3    H158786   2.502   2.008  14.949 -0.6345 -0.0021  0.6487
12457TIP3    H258787   2.537   2.155  14.957 -1.7004  0.2758  0.4343
12458TIP3   OH258788   3.794   6.689  15.247 -0.0537  0.4231  0.2387
12458TIP3    H158789   3.703   6.710  15.226 -0.4420  0.9120  2.2011
12458TIP3    H258790   3.835   6.774  15.261  0.4099  0.1590  0.5005
12459TIP3   OH258791   6.084   6.072  15.796 -0.1941 -0.5301  0.3272
12459TIP3    H158792   6.094   6.045  15.705 -0.6924 -0.3206  0.2094
12459TIP3    H258793   5.997   6.111  15.800  0.5394  1.1591  0.4813
12460TIP3   OH258794   5.447   3.883  10.820 -0.5413 -0.5941  0.4215
12460TIP3    H158795   5.537   3.866  10.791 -0.5493 -2.9601  1.5573
12460TIP3    H258796   5.400   3.802  10.802 -2.2556  0.3001  0.6452
12461TIP3   OH258797   3.070   5.707  16.774 -0.0735 -0.3434  0.3145
12461TIP3    H158798   3.030   5.780  16.726  0.0408  0.4425  1.3748
12461TIP3    H258799   3.007   5.686  16.843  0.4351 -0.4444  0.7530
12462TIP3   OH258800   3.465   2.372   2.683  0.3503 -0.1987  0.1955
12462TIP3    H158801   3.560   2.359   2.678  0.3628  0.3375 -1.2165
12462TIP3    H258802   3.455   2.462   2.714  0.3591  0.6222 -2.0073
12463TIP3   OH258803   1.728   0.145  16.636  0.1652 -0.2755 -0.1421
12463TIP3    H158804   1.643   0.174  16.670  0.6029 -0.4835  1.1579
12463TIP3    H258805   1.782   0.131  16.713  1.1368 -0.9555 -0.9165
12464TIP3   OH258806   5.447   6.348   1.387 -0.1512  0.1749  0.3971
12464TIP3    H158807   5.472   6.439   1.401  0.1839  0.0858  0.3803
12464TIP3    H258808   5.428   6.314   1.474 -1.8751  0.7129  0.2678
12465TIP3   OH258809   5.965   5.155  12.294  0.1724 -0.1456  0.2987
12465TIP3    H158810   5.874   5.136  12.317  0.1122 -0.0576  0.1333
12465TIP3    H258811   5.967   5.251  12.285  1.1327  0.3966  4.1903
12466TIP3   OH258812   4.028   6.226  16.887 -0.1961  0.4209  0.0125
12466TIP3    H158813   3.963   6.251  16.953  1.9859  0.6522  2.1822
12466TIP3    H258814   3.975   6.192  16.814 -2.7395  0.6854  1.5956
12467TIP3   OH258815   5.047   0.385  16.264  0.1829 -0.0008 -0.1258
12467TIP3    H158816   4.974   0.443  16.286  1.3695  1.4759  0.1065
12467TIP3    H258817   5.012   0.327  16.197 -0.7307  1.8079 -1.2907
12468TIP3   OH258818   5.979   4.879   3.829 -0.0229 -0.0598 -0.0006
12468TIP3    H158819   6.045   4.844   3.889  1.1488  0.8191 -0.7342
12468TIP3    H258820   5.904   4.821   3.840  1.5351 -2.3308 -0.5871
12469TIP3   OH258821   1.706   0.147   1.318  0.0352  0.0831  0.0692
12469TIP3    H158822   1.777   0.151   1.382 -2.0717  0.5881  2.5846
12469TIP3    H258823   1.711   0.059   1.281  0.8021 -0.5885  1.6765
12470TIP3   OH258824   3.914   5.288   6.153 -0.2505 -0.2178 -0.4762
12470TIP3    H158825   3.917   5.227   6.227 -1.6315  1.3501  0.9607
12470TIP3    H258826   3.820   5.304   6.139  0.0460  0.6222 -1.6427
12471TIP3   OH258827   0.473   1.740   4.757 -0.6525 -0.3184  0.0980
12471TIP3    H158828   0.481   1.782   4.842  0.6689  0.5555 -0.4440
12471TIP3    H258829   0.467   1.646   4.777 -2.2659 -0.0233  1.2260
12472TIP3   OH258830   6.262   0.409   0.367  0.7199 -0.6269 -0.4319
12472TIP3    H158831   6.175   0.419   0.328  0.3777 -1.6298  0.0422
12472TIP3    H258832   6.302   0.495   0.356 -0.3438 -0.1278 -0.6175
12473TIP3   OH258833   2.492   1.986   0.895  0.3973 -0.2245 -0.6252
12473TIP3    H158834   2.553   1.954   0.828  0.6696 -1.3428  0.1280
12473TIP3    H258835   2.482   1.912   0.955 -1.6443 -0.0374 -0.6757
12474TIP3   OH258836   5.920   2.454  14.156  0.2957  0.0721 -0.0878
12474TIP3    H158837   5.948   2.368  14.124  1.0786  0.0601  0.5765
12474TIP3    H258838   5.832   2.439  14.190  1.0951 -0.9268  1.7051
12475TIP3   OH258839   1.555   3.450   5.084  0.4911  0.1428  0.2456
12475TIP3    H158840   1.533   3.363   5.117  1.6610  0.4905  2.1095
12475TIP3    H258841   1.483   3.472   5.026 -0.7005 -1.3820  1.0519
12476TIP3   OH258842   6.375   1.465  11.731 -0.4687  0.0183 -0.8207
12476TIP3    H158843   6.384   1.370  11.732 -1.0090 -0.0441 -1.6308
12476TIP3    H258844   6.339   1.486  11.817  1.5990 -0.2888  0.1873
12477TIP3   OH258845   1.104   5.319   2.581  0.2754  0.1508  0.6135
12477TIP3    H158846   1.122   5.413   2.575  1.6897 -0.1417 -0.1257
12477TIP3    H258847   1.077   5.294   2.493  0.9939 -0.3297  0.5164
12478TIP3   OH258848   0.053   2.399   0.835 -0.0242 -0.1064  0.3536
12478TIP3    H158849  -0.011   2.357   0.778  1.8135 -3.9395  0.7763
12478TIP3    H258850   0.003   2.423   0.913 -1.8132  1.7383 -1.2441
12479TIP3   OH258851   1.091   4.647  12.652 -0.1161 -0.1810  0.0707
12479TIP3    H158852   1.143   4.727  12.647 -2.7108  1.6416 -0.0494
12479TIP3    H258853   1.113   4.609  12.737  1.8771  0.1089 -0.2811
12480TIP3   OH258854   0.655   2.826   5.764  0.1269 -0.3329 -0.2602
12480TIP3    H158855   0.577   2.871   5.796  0.7560  0.2715  0.4538
12480TIP3    H258856   0.672   2.865   5.679 -0.4599 -0.6106 -0.5121
12481TIP3   OH258857   1.958   4.734   6.231  0.4442 -0.0153  0.2560
12481TIP3    H158858   2.020   4.666   6.204  2.4505  1.3757  1.1446
12481TIP3    H258859   1.959   4.729   6.327 -0.4479  0.3900  0.2943
12482TIP3   OH258860   0.583   3.006  14.941 -0.2461 -0.2638 -0.1307
12482TIP3    H158861   0.657   3.001  15.002  0.6647 -0.3792 -1.2155
12482TIP3    H258862   0.522   2.939  14.972  1.1830 -1.8632 -0.5984
12483TIP3   OH258863   2.718   0.341  15.048  0.2366 -0.1114  0.5790
12483TIP3    H158864   2.691   0.384  14.967  1.1670  0.0301  0.3345
12483TIP3    H258865   2.642   0.347  15.105 -0.1655  0.4728 -0.0111
12484TIP3   OH258866   0.273   3.984   1.138 -0.4566 -0.0442  0.3124
12484TIP3    H158867   0.320   3.915   1.184 -1.1701  0.8915  2.6293
12484TIP3    H258868   0.196   3.941   1.102  0.4481 -0.9357 -0.6165
12485TIP3   OH258869   3.198   1.443  14.937  0.1901  0.0468  0.0662
12485TIP3    H158870   3.196   1.348  14.949  0.4480  0.1791  1.2629
12485TIP3    H258871   3.114   1.473  14.971 -0.0448  0.2104 -0.6587
12486TIP3   OH258872   0.219   0.623   1.951 -0.2913 -0.1515 -0.8044
12486TIP3    H158873   0.168   0.543   1.958  0.0232 -0.1991  2.5960
12486TIP3    H258874   0.304   0.601   1.991  0.3588  1.4682 -1.1919
12487TIP3   OH258875   0.336   5.301   1.338  0.6514 -0.3388 -0.5487
12487TIP3    H158876   0.363   5.368   1.400  0.1132 -0.5646 -0.0525
12487TIP3    H258877   0.261   5.339   1.293 -0.4038 -1.0142  0.5551
12488TIP3   OH258878   4.738   6.467   6.546 -0.1211 -0.5885 -0.1412
12488TIP3    H158879   4.768   6.424   6.626  0.8579  0.9180  0.3514
12488TIP3    H258880   4.819   6.493   6.501 -0.6688 -0.8645 -1.3095
12489TIP3   OH258881   1.680   2.324  11.264 -0.4353 -0.7219  0.4129
12489TIP3    H158882   1.620   2.357  11.331 -2.5471  0.2427 -1.7805
12489TIP3    H258883   1.634   2.250  11.226 -0.8561  0.6993 -2.0608
12490TIP3   OH258884   1.362   1.646   0.894 -0.2224 -0.2607  0.1540
12490TIP3    H158885   1.271   1.636   0.921 -0.2803  1.2832  0.5903
12490TIP3    H258886   1.365   1.609   0.806 -1.0983 -0.9969  0.4161
12491TIP3   OH258887   6.453   5.906  15.554 -0.1923 -0.4577 -0.5733
12491TIP3    H158888   6.415   5.828  15.594 -0.2632 -1.2210 -2.0959
12491TIP3    H258889   6.407   5.916  15.471  1.1634  0.0597 -1.3012
12492TIP3   OH258890   1.587   3.047   5.087 -0.0791 -0.6024  0.4303
12492TIP3    H158891   1.538   3.102   5.149  0.3703  0.3601 -0.0471
12492TIP3    H258892   1.663   3.017   5.136 -0.3351 -0.8345  0.6973
12493TIP3   OH258893   6.339   5.027   2.095 -0.2962 -0.6548 -0.5565
12493TIP3    H158894   6.430   5.031   2.125 -0.7391 -1.3297  0.9913
12493TIP3    H258895   6.290   5.077   2.162 -1.0423 -0.1009 -1.4899
12494TIP3   OH258896   2.262   1.297   1.257  0.1790 -0.1298  0.0865
12494TIP3    H158897   2.325   1.226   1.244  0.4016 -0.4846  2.5469
12494TIP3    H258898   2.315   1.369   1.291 -0.4195  0.3439  0.0281
12495TIP3   OH258899   2.992   1.868  10.462 -0.0483  0.0084 -0.0036
12495TIP3    H158900   2.915   1.826  10.423 -1.0276  0.5117  1.3112
12495TIP3    H258901   3.041   1.796  10.502 -0.2212 -0.2312 -0.2204
12496TIP3   OH258902   2.563   4.210  12.522  0.1080  0.4015 -0.0758
12496TIP3    H158903   2.615   4.237  12.598  3.8344  0.1531 -2.3083
12496TIP3    H258904   2.550   4.116  12.536  1.5436  0.1687 -0.0835
12497TIP3   OH258905   1.161   3.757   4.134  0.3348  0.2842 -0.3234
12497TIP3    H158906   1.080   3.808   4.142  0.3068  0.2326 -0.2776
12497TIP3    H258907   1.231   3.820   4.153  0.3764  0.6092 -1.4640
12498TIP3   OH258908   0.581   5.307  14.923 -0.2606  0.1154 -0.4799
12498TIP3    H158909   0.602   5.264  15.006 -1.5520  0.1875 -0.0969
12498TIP3    H258910   0.488   5.289  14.910 -0.7815  2.5115 -0.4594
12499TIP3   OH258911   2.193   5.089   0.256 -0.3950  0.3349 -0.4089
12499TIP3    H158912   2.140   5.167   0.235 -1.6018 -0.6176 -1.0445
12499TIP3    H258913   2.135   5.036   0.310 -0.0811 -0.7380 -1.1131
12500TIP3   OH258914   2.458   0.832   0.068 -0.1296  0.3294  0.3420
12500TIP3    H158915   2.524   0.793   0.125  1.6558 -1.4455 -2.7072
12500TIP3    H258916   2.508   0.882   0.003 -1.7005 -0.9595 -2.0089
12501TIP3   OH258917   2.883   3.573   4.819  0.3420 -0.0835 -0.2906
12501TIP3    H158918   2.809   3.515   4.835 -0.3201  0.7716 -0.1556
12501TIP3    H258919   2.884   3.585   4.724  1.1565 -1.1610 -0.4372
12502TIP3   OH258920   6.728   2.303   3.315 -0.4047 -0.1517 -0.0201
12502TIP3    H158921   6.798   2.366   3.335  0.2623 -0.6577 -0.6961
12502TIP3    H258922   6.691   2.335   3.233 -1.4661  0.5148  0.6902
12503TIP3   OH258923   4.565   6.009   4.455  0.6790  0.2783 -0.3911
12503TIP3    H158924   4.522   6.034   4.373  0.1862 -2.4164 -1.0399
12503TIP3    H258925   4.648   5.970   4.428  1.2426  0.8043  0.5240
12504TIP3   OH258926   5.603   2.924  12.648  0.3893  0.0946 -0.1498
12504TIP3    H158927   5.693   2.894  12.633  0.7598  0.8473  0.4762
12504TIP3    H258928   5.553   2.844  12.661  0.6220 -0.4481 -2.1751
12505TIP3   OH258929   4.336   3.915   4.064  0.4485  0.8534  0.1270
12505TIP3    H158930   4.423   3.955   4.068  1.2467 -0.7602  0.1311
12505TIP3    H258931   4.352   3.829   4.023 -1.0365  0.2577  0.7355
12506TIP3   OH258932   5.643   4.588   1.926 -0.0818 -0.5546 -0.2600
12506TIP3    H158933   5.734   4.567   1.909 -0.1542 -1.3852  0.3117
12506TIP3    H258934   5.603   4.505   1.951 -0.8556 -0.0982  0.0896
12507TIP3   OH258935   3.296   2.528   3.935 -0.2346  0.1650  0.5007
12507TIP3    H158936   3.232   2.593   3.903  0.2536  0.5718  0.3348
12507TIP3    H258937   3.249   2.481   4.004 -1.0768 -0.2675 -0.3446
12508TIP3   OH258938   5.126   0.710  15.155 -0.1733 -0.2914 -0.2193
12508TIP3    H158939   5.202   0.747  15.198 -0.8650  0.9147 -0.0082
12508TIP3    H258940   5.126   0.618  15.181 -0.1599  0.2364  1.7490
12509TIP3   OH258941   2.530   3.554   4.365 -0.0226  0.2483  0.1590
12509TIP3    H158942   2.551   3.615   4.436 -1.9858 -1.5201  2.4308
12509TIP3    H258943   2.593   3.483   4.375 -0.4137 -0.0889  0.2730
12510TIP3   OH258944   4.808   0.219  14.861 -1.0006 -0.0537  0.0374
12510TIP3    H158945   4.738   0.157  14.843 -1.1242  0.8081 -2.9717
12510TIP3    H258946   4.790   0.294  14.804  0.8574  1.3941  1.2161
12511TIP3   OH258947   1.049   0.042  13.960  0.1282  0.1694 -0.4568
12511TIP3    H158948   1.072   0.038  14.053  0.7565 -0.9574 -0.6414
12511TIP3    H258949   0.969   0.093  13.958 -0.4333 -0.6001  0.8223
12512TIP3   OH258950   3.717   6.756  16.641 -0.0978  0.4054 -0.6079
12512TIP3    H158951   3.804   6.738  16.606 -0.0316  1.5312 -1.0923
12512TIP3    H258952   3.734   6.797  16.727 -0.0477  2.0427 -1.3495
12513TIP3   OH258953   5.862   2.586  14.545  0.0349 -0.6774  0.2425
12513TIP3    H158954   5.927   2.520  14.525 -0.7722 -1.8109  1.2600
12513TIP3    H258955   5.794   2.540  14.595  0.5323  1.3491  3.0436
12514TIP3   OH258956   1.884   3.178   4.647 -0.7438  0.4198  0.2915
12514TIP3    H158957   1.935   3.204   4.724 -1.4894 -0.0226  0.9441
12514TIP3    H258958   1.802   3.144   4.682 -0.9731 -0.0796 -0.6857
12515TIP3   OH258959   2.761   2.948  16.499 -0.3459  0.1074  0.3703
12515TIP3    H158960   2.767   2.915  16.410  1.1799 -0.8926  0.8002
12515TIP3    H258961   2.826   3.019  16.503 -1.2005  0.9085  0.3972
12516TIP3   OH258962   2.371   0.606  15.388 -0.4891 -0.4109  0.1618
12516TIP3    H158963   2.380   0.698  15.415  2.0144 -0.4482 -0.3025
12516TIP3    H258964   2.359   0.558  15.470 -1.1951  0.2512  0.4609
12517TIP3   OH258965   3.425   0.363   3.390  0.0823  0.7686  0.0266
12517TIP3    H158966   3.489   0.331   3.453  0.5046  1.4910 -0.0256
12517TIP3    H258967   3.342   0.323   3.418  0.8623 -1.9697 -1.1865
12518TIP3   OH258968   6.622   1.175   1.775 -0.3525 -0.0582 -0.9204
12518TIP3    H158969   6.612   1.080   1.783 -1.0651  0.1274  0.8106
12518TIP3    H258970   6.557   1.211   1.835  0.6508  1.5217 -0.7199
12519TIP3   OH258971   5.248   5.445   4.258  0.1325  0.2214  0.4427
12519TIP3    H158972   5.341   5.449   4.280  0.4419  0.4404 -0.7967
12519TIP3    H258973   5.241   5.372   4.196 -0.1165  1.5452 -1.1698
12520TIP3   OH258974   6.575   5.737  14.303 -0.9081  0.3584  0.1581
12520TIP3    H158975   6.567   5.775  14.215 -0.2749  1.3814  0.5212
12520TIP3    H258976   6.669   5.721  14.313 -1.0298 -0.1538  0.4904
12521TIP3   OH258977   4.935   3.548  16.543 -0.1724  0.0632 -0.2356
12521TIP3    H158978   4.864   3.526  16.483 -0.4129  0.0496  0.0527
12521TIP3    H258979   4.945   3.643  16.535 -0.0669  0.0345 -0.4464
12522TIP3   OH258980   2.899   3.295   2.957  0.1386  0.5226  0.1930
12522TIP3    H158981   2.887   3.312   2.864  0.8981  1.1596  0.1996
12522TIP3    H258982   2.948   3.213   2.960 -0.6470  0.0370  0.0670
12523TIP3   OH258983   4.407   4.204   1.796 -0.0585 -0.4413 -0.2217
12523TIP3    H158984   4.374   4.211   1.885  1.1098 -0.2288  0.2135
12523TIP3    H258985   4.389   4.289   1.757  2.3980  0.7240  0.9137
12524TIP3   OH258986   1.332   5.595  13.899  0.0379 -0.3439  0.2952
12524TIP3    H158987   1.256   5.610  13.955  0.4111  0.1253  0.6792
12524TIP3    H258988   1.341   5.675  13.848 -3.1080 -2.3069 -3.9186
12525TIP3   OH258989   6.428   0.258   2.922 -0.6996  0.1030 -0.0470
12525TIP3    H158990   6.380   0.285   2.843 -1.2656  0.0507  0.2764
12525TIP3    H258991   6.372   0.285   2.994 -1.3622 -1.9888  0.3017
12526TIP3   OH258992   3.244   5.701  14.352  0.1924 -0.0269 -0.1327
12526TIP3    H158993   3.170   5.761  14.342 -1.1705 -1.3909  1.2560
12526TIP3    H258994   3.303   5.746  14.411  0.8452  1.3569 -1.7556
12527TIP3   OH258995   0.172   3.756  16.431  0.1347  0.0684 -0.1328
12527TIP3    H158996   0.096   3.813  16.420 -0.1377 -0.4133 -0.8990
12527TIP3    H258997   0.226   3.799  16.496  0.1331  1.4173 -0.9823
12528TIP3   OH258998   2.829   2.937   2.363  0.5872 -0.3041  0.2066
12528TIP3    H158999   2.752   2.913   2.415 -0.1490 -1.6488 -1.3836
12528TIP3    H259000   2.807   3.023   2.327  1.0047  0.5285  1.8613
12529TIP3   OH259001   5.943   6.125   0.185 -0.2981  0.2986  0.3832
12529TIP3    H159002   6.030   6.096   0.159 -0.6754 -1.1550  0.6448
12529TIP3    H259003   5.944   6.120   0.281 -0.3472  1.3049  0.4492
12530TIP3   OH259004   4.482   1.112   0.234  0.0634 -0.2692 -0.1902
12530TIP3    H159005   4.473   1.084   0.143  0.5733  0.5050 -0.4912
12530TIP3    H259006   4.573   1.140   0.242  0.0077 -0.2617  0.5452
12531TIP3   OH259007   4.938   4.888   0.418  0.3344 -0.3676  0.5698
12531TIP3    H159008   4.862   4.938   0.387 -1.3114 -1.4895  2.5754
12531TIP3    H259009   4.987   4.950   0.472  0.2562  0.0608  0.1550
12532TIP3   OH259010   4.970   4.581   1.013 -0.3890 -0.1101 -0.2541
12532TIP3    H159011   4.936   4.649   1.071 -1.5704 -0.4409 -0.5235
12532TIP3    H259012   4.963   4.500   1.064  1.1534 -0.0401  0.1218
12533TIP3   OH259013   4.972   2.206  12.805 -0.5945 -0.1899 -0.0133
12533TIP3    H159014   4.899   2.234  12.860 -1.5034 -0.6450 -0.9430
12533TIP3    H259015   4.968   2.111  12.806  0.1003 -0.2176  0.0753
12534TIP3   OH259016   0.288   5.007   1.355  0.1392 -0.3767 -0.4523
12534TIP3    H159017   0.205   4.977   1.392  0.9202 -1.1564  0.7600
12534TIP3    H259018   0.295   5.098   1.383  0.3230 -0.7156  0.6530
12535TIP3   OH259019   0.523   1.746   2.419  0.3065  0.4581  0.0754
12535TIP3    H159020   0.429   1.757   2.435  0.3839 -1.0089  1.8945
12535TIP3    H259021   0.534   1.763   2.326 -1.8545  0.1853 -0.2720
12536TIP3   OH259022   6.587   2.156   0.122  0.4875  0.4095 -0.0932
12536TIP3    H159023   6.556   2.070   0.093  0.5658  0.3533 -0.0106
12536TIP3    H259024   6.530   2.219   0.077 -0.8752  0.2768  1.3818
12537TIP3   OH259025   0.896   5.065   5.237 -0.6232  0.0388 -0.0719
12537TIP3    H159026   0.844   5.100   5.309 -0.0828  0.4484  0.1268
12537TIP3    H259027   0.833   5.018   5.182 -1.3478  1.2207 -0.2847
12538TIP3   OH259028   3.745   6.245   0.072 -0.2315 -0.0724 -0.5153
12538TIP3    H159029   3.725   6.328   0.029 -0.0810  1.3277  1.9195
12538TIP3    H259030   3.840   6.237   0.066 -0.1213  0.5489  0.2310
12539TIP3   OH259031   3.988   1.823  12.460  0.2362 -0.0359 -0.6642
12539TIP3    H159032   3.992   1.907  12.414 -0.1534 -0.4690 -1.5122
12539TIP3    H259033   4.076   1.786  12.452  0.0179 -0.3811 -1.6105
12540TIP3   OH259034   4.078   4.386  13.053 -0.1029 -0.1505 -0.2352
12540TIP3    H159035   4.062   4.411  13.144  0.1438 -1.9427  0.3337
12540TIP3    H259036   4.054   4.464  13.002  0.0106  0.9717  1.3655
12541TIP3   OH259037   0.445   0.058  15.326  0.1567  0.4178  0.3275
12541TIP3    H159038   0.426   0.076  15.234  0.5499 -0.9636 -0.0457
12541TIP3    H259039   0.360   0.040  15.365  0.1115 -0.3708 -0.1023
12542TIP3   OH259040   2.122   2.855  14.286 -0.2822  0.0399  0.1751
12542TIP3    H159041   2.171   2.805  14.351  0.3608  1.5345  0.9126
12542TIP3    H259042   2.066   2.913  14.338 -0.7082  0.3697 -0.6341
12543TIP3   OH259043   4.138   3.257  16.070  0.0492  0.9855  0.2451
12543TIP3    H159044   4.066   3.199  16.047  1.0066 -1.0315  1.9810
12543TIP3    H259045   4.098   3.325  16.125 -0.9255  1.4392 -0.9848
12544TIP3   OH259046   2.080   5.059   4.044 -0.1755  0.1199 -0.5160
12544TIP3    H159047   2.128   5.135   4.078 -0.0293  0.0997 -0.6763
12544TIP3    H259048   2.054   5.085   3.956  1.6829 -0.7975 -1.3733
12545TIP3   OH259049   4.464   0.823   4.807 -0.1687 -0.4573  0.1775
12545TIP3    H159050   4.408   0.770   4.750 -0.3603  1.1825 -1.2512
12545TIP3    H259051   4.411   0.899   4.830  0.8098  0.1982  0.3647
12546TIP3   OH259052   3.403   0.286  11.552 -0.6089 -0.3201 -0.2943
12546TIP3    H159053   3.459   0.363  11.541 -2.3908  0.7996 -2.5059
12546TIP3    H259054   3.390   0.279  11.647  0.9546  1.0762  0.0600
12547TIP3   OH259055   1.463   4.797   2.269  0.2669  0.2295 -0.0697
12547TIP3    H159056   1.454   4.732   2.199 -2.2607  0.7578 -0.3711
12547TIP3    H259057   1.419   4.875   2.234  1.5005  1.4710  1.0248
12548TIP3   OH259058   6.115   4.442  15.515 -0.0978 -0.7471  0.1795
12548TIP3    H159059   6.194   4.453  15.567 -0.2266 -1.7224  0.6007
12548TIP3    H259060   6.121   4.509  15.447  0.5208 -0.0647  0.8955
12549TIP3   OH259061   6.540   4.717   6.468  0.5389 -0.2750  0.5624
12549TIP3    H159062   6.468   4.772   6.437  0.9413 -1.1357 -2.2595
12549TIP3    H259063   6.497   4.643   6.510 -0.3502 -0.9415 -1.3614
12550TIP3   OH259064   2.461   4.287   6.414 -0.4068  0.3719  0.2573
12550TIP3    H159065   2.499   4.229   6.348  0.5853  1.8791 -0.5619
12550TIP3    H259066   2.387   4.329   6.370 -0.6807  0.2762  0.6155
12551TIP3   OH259067   5.377   4.979  11.360  0.9879  0.7060  0.2212
12551TIP3    H159068   5.334   4.965  11.445  1.0154 -1.3543 -0.0440
12551TIP3    H259069   5.306   5.002  11.301  0.6603  0.1658  0.3950
12552TIP3   OH259070   3.735   5.029  16.517  0.9100  0.1558  0.3149
12552TIP3    H159071   3.721   4.969  16.444  0.7625  0.2234  0.2875
12552TIP3    H259072   3.710   4.979  16.595  0.9814  0.1131  0.3104
12553TIP3   OH259073   5.865   5.382   2.239  0.5893 -0.4189 -0.9301
12553TIP3    H159074   5.826   5.373   2.326  0.5300 -0.1230 -0.9247
12553TIP3    H259075   5.929   5.452   2.248 -0.1260  0.3070 -1.3628
12554TIP3   OH259076   5.192   0.961   3.652  0.1528 -0.2444 -0.8187
12554TIP3    H159077   5.145   1.031   3.606 -0.5553 -0.8272 -1.0110
12554TIP3    H259078   5.200   0.891   3.587  1.4992 -0.0801 -0.8523
12555TIP3   OH259079   1.986   1.168  15.572 -0.5070 -0.2190  0.0146
12555TIP3    H159080   1.964   1.258  15.551  0.9352  0.0741 -0.3393
12555TIP3    H259081   1.902   1.125  15.588 -1.1795  1.2754  0.5899
12556TIP3   OH259082   6.077   4.919  16.289 -0.5838  0.4226  0.1602
12556TIP3    H159083   6.153   4.962  16.327  0.8120  0.1805 -2.1681
12556TIP3    H259084   6.003   4.974  16.315  0.4656  1.1078  1.8195
12557TIP3   OH259085   3.916   5.446  14.984 -0.6572 -0.2147 -0.2318
12557TIP3    H159086   3.902   5.426  15.076  1.0549  3.3229  0.9969
12557TIP3    H259087   3.839   5.497  14.959 -0.1573  0.6509 -0.0575
12558TIP3   OH259088   4.815   4.551   4.395  0.2128  0.2990 -0.2892
12558TIP3    H159089   4.808   4.579   4.486  2.9388 -0.6097  0.3007
12558TIP3    H259090   4.865   4.620   4.352  0.9895 -0.3446 -0.4674
12559TIP3   OH259091   3.017   4.075  12.992 -0.0002  1.1780 -0.3416
12559TIP3    H159092   3.002   4.001  13.051 -0.4108 -0.0011 -1.8769
12559TIP3    H259093   3.076   4.041  12.925 -0.7242  2.0430 -1.4444
12560TIP3   OH259094   4.743   6.549  14.256 -1.3498 -0.4092 -0.0295
12560TIP3    H159095   4.735   6.483  14.187 -1.9069 -0.7882  0.3917
12560TIP3    H259096   4.789   6.504  14.327 -3.5275 -1.0067  1.0639
12561TIP3   OH259097   6.653   1.392   5.760  0.1654  0.1244  0.1793
12561TIP3    H159098   6.613   1.330   5.700  0.2467  0.3397 -0.1025
12561TIP3    H259099   6.736   1.352   5.784  1.5744  1.3713 -2.2475
12562TIP3   OH259100   1.055   0.177  12.834  0.0956  0.1177  0.1070
12562TIP3    H159101   1.065   0.260  12.880  0.2710  0.1754 -0.0313
12562TIP3    H259102   0.964   0.175  12.806  0.0302  0.1568  0.3124
12563TIP3   OH259103   5.804   4.712   5.087  0.7016  0.5903  0.4857
12563TIP3    H159104   5.733   4.748   5.140  0.1922 -0.8599  0.8511
12563TIP3    H259105   5.864   4.673   5.151  1.1037  0.5665  0.1006
12564TIP3   OH259106   5.103   5.865  10.473  0.1237 -0.2283 -0.5557
12564TIP3    H159107   5.036   5.933  10.479  1.1031  0.8817 -1.5772
12564TIP3    H259108   5.076   5.811  10.399 -0.1539 -0.3769 -0.3465
12565TIP3   OH259109   5.387   6.680   4.625  0.9237 -0.4075 -0.0408
12565TIP3    H159110   5.448   6.723   4.685  1.4702 -1.5968  0.2834
12565TIP3    H259111   5.442   6.622   4.572  0.1611 -0.9651 -0.2349
12566TIP3   OH259112   3.111   0.100  13.539  0.5023 -0.3912  0.1505
12566TIP3    H159113   3.164   0.116  13.617  0.8359  3.1291 -0.6520
12566TIP3    H259114   3.044   0.039  13.569  0.5415  0.8870  3.2726
12567TIP3   OH259115   1.308   4.604  15.120 -0.1994 -0.2796 -0.0040
12567TIP3    H159116   1.261   4.539  15.068 -1.0758 -0.4580  0.9720
12567TIP3    H259117   1.240   4.647  15.172  0.5343  0.5324  0.3068
12568TIP3   OH259118   6.009   2.086   5.009 -0.3286 -0.6685  0.1438
12568TIP3    H159119   5.916   2.096   4.991  0.2282  1.0751 -2.3017
12568TIP3    H259120   6.040   2.175   5.028  1.1155 -0.9502 -0.7401
12569TIP3   OH259121   1.843   5.284  17.180 -0.2649  0.5800  0.3305
12569TIP3    H159122   1.921   5.231  17.200 -0.0610  1.3266  1.6777
12569TIP3    H259123   1.837   5.284  17.085  0.7257 -0.4397  0.2499
12570TIP3   OH259124   3.347   3.560  16.742 -0.0773  0.5178  0.8844
12570TIP3    H159125   3.377   3.523  16.659 -0.4227  2.7967 -0.3257
12570TIP3    H259126   3.284   3.628  16.718 -0.3233  1.1473  3.0163
12571TIP3   OH259127   0.495   6.171  15.342  0.2878  0.0044  0.0729
12571TIP3    H159128   0.443   6.101  15.303  0.4282  0.2706 -0.6069
12571TIP3    H259129   0.577   6.128  15.366  0.0139 -0.2698  0.5447
12572TIP3   OH259130   4.654   0.739   2.825 -0.2671 -0.2281  1.1632
12572TIP3    H159131   4.739   0.768   2.791 -0.7416  0.2372  0.3413
12572TIP3    H259132   4.668   0.648   2.849  0.4121 -0.2174  0.8419
12573TIP3   OH259133   3.408   2.522  15.300 -0.3225  0.0579  0.5154
12573TIP3    H159134   3.445   2.438  15.326  1.1579  0.4299 -0.2717
12573TIP3    H259135   3.435   2.582  15.369 -2.8446 -0.3761  2.0049
12574TIP3   OH259136   4.970   1.082  14.479  0.2046 -0.4715 -0.0469
12574TIP3    H159137   4.879   1.099  14.453  0.1088 -0.0960  0.5140
12574TIP3    H259138   4.969   0.992  14.511  0.6659 -1.5788 -2.8270
12575TIP3   OH259139   6.123   1.238   0.789 -0.3842 -0.1061  0.0479
12575TIP3    H159140   6.199   1.180   0.797 -1.4638 -1.6944 -0.5461
12575TIP3    H259141   6.157   1.316   0.745  1.0148 -0.5292  0.3259
12576TIP3   OH259142   4.978   0.049   3.658 -0.6808 -0.3071 -0.3166
12576TIP3    H159143   4.978  -0.036   3.613 -1.8206 -0.8759  0.7052
12576TIP3    H259144   5.004   0.027   3.748  1.3112  0.7700 -0.5699
12577TIP3   OH259145   3.890   0.449  15.770  0.0400  0.6937  0.5213
12577TIP3    H159146   3.843   0.460  15.853 -1.6832 -2.1520  0.0347
12577TIP3    H259147   3.949   0.375  15.786  0.6128  0.9255 -0.4504
12578TIP3   OH259148   5.731   6.653   5.900 -0.8898 -0.2372 -0.6107
12578TIP3    H159149   5.735   6.709   5.978  1.0745 -1.5928  0.3514
12578TIP3    H259150   5.639   6.627   5.894 -0.8885 -1.2496  2.1783
12579TIP3   OH259151   4.466   3.167   4.986 -0.6916  0.0484 -0.1498
12579TIP3    H159152   4.447   3.213   5.067  1.1356 -1.0673  0.9918
12579TIP3    H259153   4.420   3.083   4.994  0.0668 -0.3550  0.0807
12580TIP3   OH259154   2.947   1.302  13.134  0.2267  0.3165 -0.1212
12580TIP3    H159155   3.024   1.259  13.172 -0.8967 -0.7389  1.0221
12580TIP3    H259156   2.914   1.240  13.069  1.2937  1.5034 -1.8929
12581TIP3   OH259157   2.145   0.306   0.544  0.0120  0.6424  0.2740
12581TIP3    H159158   2.224   0.312   0.490  0.4480  1.1029  0.9379
12581TIP3    H259159   2.174   0.335   0.631 -0.4111 -1.0567  1.0180
12582TIP3   OH259160   1.077   6.039  11.965  0.6073  0.4984 -0.0191
12582TIP3    H159161   1.084   6.062  12.058  0.6717 -0.9684  0.3610
12582TIP3    H259162   0.989   6.001  11.956 -0.3267  2.7404 -1.0809
12583TIP3   OH259163   4.623   5.612  12.876  0.5921  0.0051  0.0063
12583TIP3    H159164   4.547   5.654  12.837 -0.3850 -1.5477  0.1453
12583TIP3    H259165   4.599   5.600  12.968  0.8405 -0.8178 -0.0266
12584TIP3   OH259166   2.500   2.285   0.913  0.6391 -0.0292 -0.0386
12584TIP3    H159167   2.446   2.234   0.974 -0.8156 -0.9007 -1.9083
12584TIP3    H259168   2.588   2.249   0.921  0.5725  0.1414  1.7603
12585TIP3   OH259169   6.101   2.213  14.927 -0.0335  0.3124 -0.4606
12585TIP3    H159170   6.194   2.217  14.946 -0.2047  0.5476  0.3938
12585TIP3    H259171   6.059   2.229  15.012 -0.8434 -0.5838 -0.6719
12586TIP3   OH259172   3.149   6.638  12.795 -0.2441  0.0825 -0.1472
12586TIP3    H159173   3.199   6.595  12.864  0.0792  0.4744 -0.1303
12586TIP3    H259174   3.079   6.685  12.841  0.9832  1.7635  0.1041
12587TIP3   OH259175   2.002   2.169   0.164 -0.3477 -0.1567  0.3116
12587TIP3    H159176   2.079   2.138   0.117 -1.5445 -0.7243 -1.4033
12587TIP3    H259177   2.024   2.159   0.257  1.8954  0.4328 -0.0929
12588TIP3   OH259178   1.063   0.048  14.263  0.6464 -0.4070 -0.6604
12588TIP3    H159179   0.975   0.078  14.287  0.3958 -0.6542 -1.2398
12588TIP3    H259180   1.076  -0.032  14.313  0.4134 -0.5368 -0.8037
12589TIP3   OH259181   5.023   3.952   4.958 -0.3828 -0.3481  0.2942
12589TIP3    H159182   4.961   3.957   5.031  0.5077  0.3831  1.0242
12589TIP3    H259183   5.106   3.982   4.995  0.2386 -0.5871 -0.8613
12590TIP3   OH259184   4.727   3.837   2.325 -0.1142 -0.1194 -0.4157
12590TIP3    H159185   4.821   3.823   2.319  0.0007 -0.4491  1.4319
12590TIP3    H259186   4.718   3.924   2.364 -0.5421 -0.3088 -0.0810
12591TIP3   OH259187   1.317   3.908  13.485  0.1842  0.4278  0.3867
12591TIP3    H159188   1.223   3.891  13.481  0.3214 -0.1496 -2.1908
12591TIP3    H259189   1.323   3.999  13.514 -1.0349 -0.0580  2.4193
12592TIP3   OH259190   6.451   4.208  17.153 -0.7901  0.1765 -0.1114
12592TIP3    H159191   6.414   4.201  17.065  0.5236  1.5104 -0.7976
12592TIP3    H259192   6.378   4.185  17.211 -1.7356 -0.5229 -1.5238
12593TIP3   OH259193   4.982   3.180  14.858 -0.2845 -0.3005 -0.2506
12593TIP3    H159194   4.982   3.093  14.897  0.9983 -0.1741  0.0971
12593TIP3    H259195   5.024   3.236  14.924  0.6290  0.1956 -1.2230
12594TIP3   OH259196   5.916   3.452  12.726  0.4462 -0.1580 -0.1385
12594TIP3    H159197   5.932   3.546  12.736 -0.9754 -0.0341  1.5492
12594TIP3    H259198   5.917   3.418  12.815  2.3452 -2.0585 -0.8061
12595TIP3   OH259199   0.847   3.710   5.940 -0.2990 -0.0518 -0.7264
12595TIP3    H159200   0.895   3.718   6.022 -0.3681  0.8378 -0.7678
12595TIP3    H259201   0.780   3.644   5.957  1.3221 -1.8288 -0.8601
12596TIP3   OH259202   0.074   2.046  11.157 -0.1098  0.1124  0.1967
12596TIP3    H159203   0.098   2.127  11.111 -0.0402  0.9274  1.6008
12596TIP3    H259204   0.083   2.068  11.249 -0.3883 -1.4311  0.6164
12597TIP3   OH259205   5.579   0.875   2.182 -0.2703  0.0451  0.2391
12597TIP3    H159206   5.639   0.884   2.108 -2.1337 -3.0522 -1.9166
12597TIP3    H259207   5.615   0.803   2.234 -1.9931 -2.0318 -1.2240
12598TIP3   OH259208   0.012   6.440  14.346  0.6258  0.0083  0.1999
12598TIP3    H159209   0.103   6.462  14.366  0.7399  0.0973 -0.3997
12598TIP3    H259210  -0.011   6.498  14.273 -0.0842  0.3727  0.7034
12599TIP3   OH259211   3.650   2.070   5.150  0.2003 -0.0891  0.3450
12599TIP3    H159212   3.745   2.077   5.138  0.3016  0.9554  1.5419
12599TIP3    H259213   3.622   2.010   5.081  1.3957  1.4479 -1.6321
12600TIP3   OH259214   4.219   3.710   1.478  0.5444  0.4016  0.2804
12600TIP3    H159215   4.180   3.655   1.545 -0.3457  0.1689 -0.4027
12600TIP3    H259216   4.151   3.774   1.457 -0.8770 -1.8774 -3.1568
12601TIP3   OH259217   5.693   1.518  17.012 -0.5895  0.3511 -0.0606
12601TIP3    H159218   5.664   1.583  16.948  0.4313  1.4716  0.5614
12601TIP3    H259219   5.613   1.491  17.057 -1.4521 -1.1023 -2.3281
12602TIP3   OH259220   1.801   6.009   2.185 -0.3010 -0.3258 -0.3323
12602TIP3    H159221   1.746   6.087   2.190 -0.4353 -0.3132 -1.5650
12602TIP3    H259222   1.772   5.954   2.258 -1.7430 -0.1782 -0.7494
12603TIP3   OH259223   2.001   0.187  14.364  0.6922 -0.2662  0.5835
12603TIP3    H159224   2.009   0.141  14.280  1.4087 -0.4366  0.7440
12603TIP3    H259225   1.924   0.243  14.352  1.3474  0.4453 -0.5432
12604TIP3   OH259226   3.307   5.635   3.308 -0.3967  0.0831  0.6032
12604TIP3    H159227   3.230   5.680   3.274 -0.1330  0.2167  0.1763
12604TIP3    H259228   3.317   5.558   3.252 -0.4973 -0.1932  0.9582
12605TIP3   OH259229   3.193   1.356   0.654  0.0979  0.2316  0.2339
12605TIP3    H159230   3.288   1.356   0.672  0.1830 -1.4727 -0.0377
12605TIP3    H259231   3.155   1.319   0.734 -0.2153 -0.2912 -0.1570
12606TIP3   OH259232   1.317   6.474  12.041 -0.3678  0.1388  0.3653
12606TIP3    H159233   1.352   6.560  12.063  2.6523 -0.7311 -0.5144
12606TIP3    H259234   1.388   6.414  12.062 -1.6893 -1.9479 -0.8241
12607TIP3   OH259235   6.760   5.647   3.842 -0.1246 -0.3016 -0.1061
12607TIP3    H159236   6.749   5.603   3.926  2.2682  0.8642  0.9132
12607TIP3    H259237   6.843   5.693   3.850 -0.3388  0.7087 -2.7576
12608TIP3   OH259238   0.358   3.824   2.251  0.3464  0.5972 -0.0345
12608TIP3    H159239   0.441   3.787   2.220  1.3101  2.2598  0.4636
12608TIP3    H259240   0.332   3.885   2.182 -1.5453 -1.2940 -1.1339
12609TIP3   OH259241   1.100   1.085   3.232 -0.1262  0.1133 -0.2521
12609TIP3    H159242   1.034   1.140   3.192  1.3008  1.7334 -0.4958
12609TIP3    H259243   1.183   1.126   3.209  0.8689 -0.0960  2.5821
12610TIP3   OH259244   4.935   4.833   2.979 -0.8662 -0.1480  0.4277
12610TIP3    H159245   4.867   4.885   2.936 -0.1067  1.4764  1.0947
12610TIP3    H259246   4.989   4.898   3.024  1.2887 -1.3610 -0.2975
12611TIP3   OH259247   3.056   0.329   1.266  0.1589 -0.8367  0.2980
12611TIP3    H159248   3.115   0.354   1.195  1.1854  0.4179  1.5249
12611TIP3    H259249   2.976   0.379   1.249  0.1133 -1.1134 -0.3538
12612TIP3   OH259250   3.349   3.115   4.548 -0.5933  0.5104  0.1528
12612TIP3    H159251   3.326   3.022   4.544 -0.1259  0.4149 -0.4321
12612TIP3    H259252   3.321   3.143   4.635 -0.1425 -0.3289  0.5732
12613TIP3   OH259253   4.633   2.657  16.619  0.2581  0.4059 -0.0459
12613TIP3    H159254   4.715   2.666  16.668  0.2822 -1.0230  0.2269
12613TIP3    H259255   4.565   2.686  16.680  0.2917 -1.3199  0.8808
12614TIP3   OH259256   1.368   6.146  12.344  0.9345 -0.3038  0.0205
12614TIP3    H159257   1.419   6.220  12.311  1.0588 -0.1006  0.6523
12614TIP3    H259258   1.422   6.109  12.413 -0.4111  0.8925  1.8248
12615TIP3   OH259259   6.368   6.632  11.449 -0.1136 -0.0441  0.4106
12615TIP3    H159260   6.351   6.609  11.541 -0.8156  0.5496  0.4373
12615TIP3    H259261   6.285   6.615  11.405  0.6394 -1.7865 -0.4291
12616TIP3   OH259262   3.172   4.210  11.813  0.5561  0.3428  1.0587
12616TIP3    H159263   3.242   4.148  11.792  0.3044  0.5067 -0.3362
12616TIP3    H259264   3.193   4.240  11.901  3.2758  1.7509  0.0435
12617TIP3   OH259265   3.071   2.247  13.472  1.0783 -0.4789 -0.2254
12617TIP3    H159266   2.997   2.237  13.531 -0.8729  2.6392 -1.8552
12617TIP3    H259267   3.143   2.279  13.527 -0.7730  2.7013  0.6291
12618TIP3   OH259268   3.943   4.788  13.914 -0.2672  0.0739 -0.0664
12618TIP3    H159269   3.882   4.859  13.932 -1.6443 -0.5267 -1.9847
12618TIP3    H259270   4.019   4.831  13.875  1.5500  1.0485  3.9849
12619TIP3   OH259271   0.544   4.722   0.327  0.3605 -0.4531 -0.1406
12619TIP3    H159272   0.538   4.646   0.384 -0.7076 -0.6987 -0.5589
12619TIP3    H259273   0.558   4.796   0.387 -0.2440 -0.7707  0.3976
12620TIP3   OH259274   1.108   0.725  14.121  0.1301  0.0073  0.0739
12620TIP3    H159275   1.119   0.630  14.116 -1.9616 -0.2660 -0.5771
12620TIP3    H259276   1.175   0.761  14.064  1.9757 -0.9506  1.5367
12621TIP3   OH259277   1.596   4.566  12.365  0.2792  0.3817 -0.8220
12621TIP3    H159278   1.553   4.644  12.400  0.6862  0.3378 -0.1946
12621TIP3    H259279   1.536   4.533  12.299  0.0485  1.1634 -1.0182
12622TIP3   OH259280   4.041   5.761   3.848 -0.3022 -0.0495 -0.2364
12622TIP3    H159281   4.107   5.701   3.885 -2.3328 -2.0294  0.3980
12622TIP3    H259282   4.062   5.764   3.755  1.0705 -0.1042  0.0458
12623TIP3   OH259283   6.369   1.549   4.944 -0.0051  0.0818 -0.0814
12623TIP3    H159284   6.363   1.542   5.040  0.5125  0.2697 -0.0348
12623TIP3    H259285   6.357   1.642   4.927  0.1500  0.0833 -0.1815
12624TIP3   OH259286   6.008   5.395  11.897 -0.3509  0.5716 -0.2464
12624TIP3    H159287   6.082   5.339  11.875 -0.1241  0.2148  1.3036
12624TIP3    H259288   6.023   5.476  11.848 -0.4692 -0.5263 -2.1926
12625TIP3   OH259289   5.865   6.557   3.626 -0.0806  0.6579  0.1178
12625TIP3    H159290   5.847   6.464   3.636  1.7821  0.2754  0.2566
12625TIP3    H259291   5.881   6.569   3.532  1.8170  0.3634  0.3569
12626TIP3   OH259292   3.184   0.040  11.251  0.1788 -0.1556  0.0812
12626TIP3    H159293   3.098  -0.002  11.247  0.8946 -1.6252 -0.9287
12626TIP3    H259294   3.240  -0.017  11.199  1.8667  0.5554  1.0526
12627TIP3   OH259295   0.863   1.128   1.322 -0.4719  0.8694  0.5045
12627TIP3    H159296   0.905   1.159   1.402  0.6008  1.9753 -0.4410
12627TIP3    H259297   0.864   1.203   1.264 -3.4055  0.8030  0.2402
12628TIP3   OH259298   0.784   2.354   1.352  0.2886 -0.1330 -0.3986
12628TIP3    H159299   0.700   2.397   1.341  0.1598 -0.4231 -0.5571
12628TIP3    H259300   0.848   2.425   1.349  0.0786  0.0484 -0.6503
12629TIP3   OH259301   0.575   5.319  14.366  0.1875  0.2809 -0.3468
12629TIP3    H159302   0.581   5.356  14.278 -2.3493 -1.3399 -1.3250
12629TIP3    H259303   0.617   5.233  14.358  2.5745  1.2482  0.8832
12630TIP3   OH259304   3.089   1.988  14.210  0.4329 -0.1427 -0.5077
12630TIP3    H159305   3.162   1.961  14.267 -0.8752 -0.9108  0.8756
12630TIP3    H259306   3.021   1.923  14.227 -1.0216  1.2446 -0.8668
12631TIP3   OH259307   4.535   1.233   5.088 -0.0916 -0.2195 -0.3167
12631TIP3    H159308   4.480   1.217   5.165  1.8175  1.4970  1.5417
12631TIP3    H259309   4.610   1.176   5.099  1.2175  1.5247  0.3126
12632TIP3   OH259310   0.104   1.760  11.205  0.0219  0.2127  0.1263
12632TIP3    H159311   0.017   1.747  11.167  0.1818  2.0617 -0.9789
12632TIP3    H259312   0.123   1.852  11.189  1.3695  0.3312  2.1166
12633TIP3   OH259313   3.016   0.155   5.662 -0.1423 -0.3266  0.1777
12633TIP3    H159314   2.972   0.147   5.577  1.2145 -2.7369 -0.4149
12633TIP3    H259315   3.014   0.249   5.681 -1.7061  0.1408 -1.8270
12634TIP3   OH259316   3.905   1.370  13.844 -0.3895  0.5415  0.5926
12634TIP3    H159317   3.967   1.377  13.771  0.0781 -1.1790  0.7953
12634TIP3    H259318   3.819   1.366  13.802 -0.0729 -1.3302  0.0422
12635TIP3   OH259319   2.136   3.093   4.518  0.1155  0.1958 -0.0529
12635TIP3    H159320   2.043   3.112   4.527  0.2731  0.6854  0.5899
12635TIP3    H259321   2.180   3.163   4.566  0.7724 -0.7086  0.7080
12636TIP3   OH259322   6.204   2.831  15.178  0.2829 -0.1294  0.3329
12636TIP3    H159323   6.225   2.924  15.190  1.3830  0.3558 -3.7346
12636TIP3    H259324   6.113   2.823  15.207  0.6905  1.7431  2.4279
12637TIP3   OH259325   3.216   5.906  13.584  0.7767 -0.1084 -0.7339
12637TIP3    H159326   3.241   5.849  13.511  0.5237  1.9238 -2.5096
12637TIP3    H259327   3.268   5.986  13.571 -0.4622  0.9291  0.3632
12638TIP3   OH259328   2.575   6.645  10.414  0.1909  0.3850 -0.4453
12638TIP3    H159329   2.650   6.704  10.423  0.4441 -0.2389  2.6696
12638TIP3    H259330   2.499   6.701  10.431  0.3761  0.1017  1.6292
12639TIP3   OH259331   4.973   0.322   0.402 -0.3459  0.1113  0.0842
12639TIP3    H159332   4.950   0.263   0.473  0.0445 -1.0872 -0.7442
12639TIP3    H259333   5.060   0.356   0.426 -0.5751  0.3547  0.5688
12640TIP3   OH259334   4.572   2.607   2.872  0.1049 -0.0912 -0.3363
12640TIP3    H159335   4.481   2.603   2.841 -0.8975 -0.1021  2.3111
12640TIP3    H259336   4.608   2.686   2.833 -0.5820 -0.7388 -2.4408
12641TIP3   OH259337   4.345   2.864  16.649  0.2315 -0.2023  0.0473
12641TIP3    H159338   4.307   2.808  16.717 -1.4911  2.1069  1.0862
12641TIP3    H259339   4.415   2.911  16.694  1.2141 -0.9345 -0.6538
12642TIP3   OH259340   2.229   6.297   1.495  0.0141 -0.1648  0.0455
12642TIP3    H159341   2.291   6.364   1.525  0.5742 -1.0451  0.9003
12642TIP3    H259342   2.160   6.298   1.561  0.3908 -0.9220  0.4650
12643TIP3   OH259343   1.555   5.662  14.286  0.0772  0.2881  0.3766
12643TIP3    H159344   1.517   5.602  14.222  0.7003 -1.2847  1.4333
12643TIP3    H259345   1.496   5.657  14.362 -0.9624  2.5477 -0.1737
12644TIP3   OH259346   1.586   0.111   0.649 -0.5169 -0.5695 -0.4073
12644TIP3    H159347   1.667   0.161   0.642 -1.2382  0.5796 -0.8223
12644TIP3    H259348   1.607   0.040   0.709 -0.0321  1.4707  2.0103
12645TIP3   OH259349   4.783   2.458   0.321 -0.3935  0.3028 -0.8114
12645TIP3    H159350   4.825   2.469   0.406 -1.4784 -0.2642 -0.1768
12645TIP3    H259351   4.841   2.398   0.274 -0.7841 -0.9783  0.2806
12646TIP3   OH259352   3.053   5.858   1.066 -0.2418 -0.1920  0.1002
12646TIP3    H159353   2.994   5.899   1.002  2.9183 -1.8939 -4.3979
12646TIP3    H259354   2.999   5.791   1.108 -1.8345 -1.3305 -3.3685
12647TIP3   OH259355   5.995   4.309  11.646 -0.1818  0.2782  0.2905
12647TIP3    H159356   6.021   4.221  11.618  0.3718  0.5409 -0.0504
12647TIP3    H259357   6.057   4.367  11.602 -0.4197  0.8269  0.6663
12648TIP3   OH259358   4.823   5.528  15.683  0.2725 -0.4954  0.0127
12648TIP3    H159359   4.797   5.532  15.775  0.8033 -0.8024  0.1796
12648TIP3    H259360   4.876   5.449  15.677  0.7000 -0.1780 -0.4403
12649TIP3   OH259361   2.652   1.711   2.190  0.2185 -0.4713 -0.0452
12649TIP3    H159362   2.743   1.686   2.173  1.1616  2.1731  0.5568
12649TIP3    H259363   2.628   1.665   2.270  1.2768 -0.6577  0.1795
12650TIP3   OH259364   4.563   3.951   1.733  0.5229  0.2132 -0.2659
12650TIP3    H159365   4.635   3.974   1.792  0.7251  2.1651 -1.2224
12650TIP3    H259366   4.493   4.012   1.755 -0.1960 -0.4695 -0.6023
12651TIP3   OH259367   1.827   0.526  13.368  0.2585 -1.1522  0.1123
12651TIP3    H159368   1.842   0.618  13.345 -0.7340 -0.6907  1.2186
12651TIP3    H259369   1.799   0.486  13.286  1.2176 -0.6127 -0.5102
12652TIP3   OH259370   2.137   5.719   2.402  0.0899 -0.0590  0.5050
12652TIP3    H159371   2.173   5.676   2.324 -1.4106  1.5133 -1.1709
12652TIP3    H259372   2.212   5.763   2.442  0.4388  1.8371 -1.9796
12653TIP3   OH259373   1.758   4.831  15.419 -0.1888  0.0453  0.5318
12653TIP3    H159374   1.695   4.899  15.396 -0.6627 -0.8646 -1.0331
12653TIP3    H259375   1.767   4.837  15.514 -2.0091  0.7307  0.6951
12654TIP3   OH259376   4.256   3.223   5.993  0.1720 -0.0929 -0.5672
12654TIP3    H159377   4.243   3.215   6.087 -0.9068  0.6747 -0.6277
12654TIP3    H259378   4.350   3.241   5.983  0.0596  1.2247  0.4722
12655TIP3   OH259379   3.756   6.257   5.092  0.1395  0.1088 -0.3306
12655TIP3    H159380   3.722   6.221   5.174 -1.0509 -1.2198 -1.3548
12655TIP3    H259381   3.846   6.225   5.087  0.1537  0.0255  0.3428
12656TIP3   OH259382   5.410   0.763  17.127 -0.6214 -0.1201  0.2844
12656TIP3    H159383   5.354   0.688  17.106 -0.6722 -0.1404  0.4860
12656TIP3    H259384   5.426   0.805  17.043  0.0577 -0.8094  0.0548
12657TIP3   OH259385   1.904   6.094   4.574 -0.0308 -0.9967  0.0873
12657TIP3    H159386   1.833   6.047   4.531 -1.2547  0.6655  0.2011
12657TIP3    H259387   1.983   6.045   4.550 -0.9364 -1.5444 -1.9929
12658TIP3   OH259388   0.308   4.109  11.767  0.8540 -0.0361  0.2311
12658TIP3    H159389   0.212   4.103  11.765  0.8591  0.1447 -0.6315
12658TIP3    H259390   0.327   4.146  11.853  0.1047  0.7167  0.0891
12659TIP3   OH259391   3.145   3.739   2.832 -0.2805  0.5524 -0.5433
12659TIP3    H159392   3.117   3.731   2.923  1.2506  0.4428 -0.0438
12659TIP3    H259393   3.177   3.829   2.824 -1.6896  1.0150 -1.3923
12660TIP3   OH259394   2.422   0.625  13.769  0.6472  0.3256  0.3243
12660TIP3    H159395   2.341   0.588  13.806 -0.0132  1.5757  0.2049
12660TIP3    H259396   2.472   0.653  13.846  0.9682 -0.4470  0.3990
12661TIP3   OH259397   3.397   2.748   2.340 -0.0737  0.4399 -0.1404
12661TIP3    H159398   3.318   2.731   2.393  0.1178  0.4000  0.1349
12661TIP3    H259399   3.435   2.826   2.380 -0.1100  0.6076 -0.4341
12662TIP3   OH259400   0.597   5.101  16.740 -0.8298  0.4463 -0.3570
12662TIP3    H159401   0.621   5.040  16.809  3.0220  0.7922 -1.1508
12662TIP3    H259402   0.639   5.067  16.661 -2.8718  1.4562 -1.9928
12663TIP3   OH259403   4.899   2.518  12.896  0.5863 -0.2651 -0.3729
12663TIP3    H159404   4.901   2.593  12.956 -1.1159 -1.4694  1.2897
12663TIP3    H259405   4.960   2.542  12.826  0.0589  2.7126  0.0322
12664TIP3   OH259406   4.918   3.199  14.054  0.5136 -0.0216  0.7599
12664TIP3    H159407   4.985   3.222  14.118  2.2946 -1.0043 -0.6756
12664TIP3    H259408   4.965   3.195  13.970 -1.2973 -0.9776 -0.2652
12665TIP3   OH259409   1.732   5.879  13.740 -0.3286  0.2011  0.6898
12665TIP3    H159410   1.715   5.814  13.808  1.4559  0.6033  1.5781
12665TIP3    H259411   1.819   5.913  13.761  0.9733 -0.6851 -2.6182
12666TIP3   OH259412   4.544   1.350  13.908  0.1043 -0.3192  0.4252
12666TIP3    H159413   4.489   1.429  13.900 -1.1084 -1.2163 -0.5015
12666TIP3    H259414   4.483   1.277  13.900  1.4314 -1.3725 -0.6568
12667TIP3   OH259415   0.249   3.138   0.867  0.2939  0.0316  0.1256
12667TIP3    H159416   0.217   3.052   0.896 -0.0476 -0.0959 -0.6180
12667TIP3    H259417   0.298   3.121   0.787 -0.7158  0.6534 -0.6491
12668TIP3   OH259418   5.849   4.601  11.941 -0.0461  0.1242  0.5179
12668TIP3    H159419   5.809   4.599  11.854  0.5392 -1.3403  0.2661
12668TIP3    H259420   5.782   4.565  11.999 -0.0668  0.1704  0.5230
12669TIP3   OH259421   5.549   4.952   1.682 -0.4203 -0.2966  0.1605
12669TIP3    H159422   5.622   5.012   1.666  0.0424 -0.7021  0.7276
12669TIP3    H259423   5.559   4.925   1.773 -0.6599 -1.1935 -0.0710
12670TIP3   OH259424   3.275   3.401   5.786  0.1598 -0.3662  0.6318
12670TIP3    H159425   3.342   3.405   5.855 -1.0119 -0.1588  1.8005
12670TIP3    H259426   3.232   3.317   5.800 -1.1329  0.3619  1.1999
12671TIP3   OH259427   1.127   6.664  12.797 -0.7546 -0.7128 -0.1447
12671TIP3    H159428   1.178   6.668  12.878 -0.3189 -1.0522 -0.3927
12671TIP3    H259429   1.092   6.752  12.786  0.2846 -0.2942 -0.2751
12672TIP3   OH259430   4.121   3.633   0.687 -0.3259  0.3923 -0.0684
12672TIP3    H159431   4.126   3.595   0.775  0.8463  0.4422 -0.0930
12672TIP3    H259432   4.092   3.723   0.701 -1.0725  0.1163  0.1801
12673TIP3   OH259433   2.878   1.617   0.998  0.1672  0.4482  0.0894
12673TIP3    H159434   2.798   1.628   0.947  0.7559  0.5780 -0.8184
12673TIP3    H259435   2.948   1.615   0.933  0.9752  1.0554  0.9162
12674TIP3   OH259436   6.325   5.264  17.032  0.3985 -0.6732  0.6599
12674TIP3    H159437   6.263   5.300  17.096 -0.0019  0.1572 -0.1776
12674TIP3    H259438   6.278   5.190  16.993 -0.6195  0.6742 -0.8348
12675TIP3   OH259439   5.362   6.323   2.740 -0.0419  0.0376 -0.1105
12675TIP3    H159440   5.313   6.388   2.790  0.5621  0.0643  0.4605
12675TIP3    H259441   5.299   6.253   2.723 -0.4014  0.2785  0.2104
12676TIP3   OH259442   2.682   3.620   4.116  0.3859  0.0795  0.0866
12676TIP3    H159443   2.594   3.630   4.151 -0.8470  1.7758 -3.0646
12676TIP3    H259444   2.736   3.681   4.167 -0.9027  1.1693  0.2034
12677TIP3   OH259445   3.091   3.877  17.112  0.0646  0.4663  0.2664
12677TIP3    H159446   3.083   3.785  17.139  1.0776  0.5975  1.0621
12677TIP3    H259447   3.184   3.887  17.088  0.0739  1.4068  0.6608
12678TIP3   OH259448   0.792   5.620   0.980 -0.0184  0.9103 -0.1877
12678TIP3    H159449   0.859   5.686   0.961 -0.2978  0.6681 -2.1641
12678TIP3    H259450   0.839   5.537   0.976 -0.0773  0.8441  0.3386
12679TIP3   OH259451   0.077   1.240  13.578 -0.2036  0.1525  0.2260
12679TIP3    H159452   0.003   1.296  13.556 -0.6770 -0.3675  0.4765
12679TIP3    H259453   0.057   1.207  13.666  1.0789  1.2481  0.9572
12680TIP3   OH259454   5.312   4.242   2.593  0.1795  0.1590 -0.7782
12680TIP3    H159455   5.328   4.336   2.601 -0.5109  0.2383 -0.1335
12680TIP3    H259456   5.335   4.220   2.503  0.2451  0.9686 -0.9616
12681TIP3   OH259457   0.637   2.956   0.736 -0.8830  0.4754 -0.3904
12681TIP3    H159458   0.715   2.944   0.683 -0.6084  0.2231  0.0585
12681TIP3    H259459   0.566   2.965   0.673 -0.5098  0.5799 -0.7999
12682TIP3   OH259460   3.107   6.045  16.364 -0.7724 -0.0312  0.4153
12682TIP3    H159461   3.160   6.001  16.431  0.5699 -1.1228 -1.2699
12682TIP3    H259462   3.069   5.973  16.312  1.1547  0.6622 -2.1629
12683TIP3   OH259463   0.593   1.647  14.363  0.0425 -0.1864 -0.2315
12683TIP3    H159464   0.606   1.571  14.420  0.3221  0.1852  0.2110
12683TIP3    H259465   0.501   1.641  14.336 -0.1597 -0.2400  0.4540
12684TIP3   OH259466   3.318   3.049  13.826 -0.1595  0.0318 -0.6356
12684TIP3    H159467   3.340   2.968  13.871 -0.5183  0.0179 -0.4756
12684TIP3    H259468   3.246   3.086  13.878  1.6690  1.7739  0.8095
12685TIP3   OH259469   6.518   0.288   5.650 -0.1646  0.5859  0.0178
12685TIP3    H159470   6.563   0.320   5.572 -1.4780 -0.5320 -1.2604
12685TIP3    H259471   6.580   0.304   5.722  2.2161 -0.7473 -1.5995
12686TIP3   OH259472   6.054   3.890   0.176 -0.0234 -0.1263 -0.1227
12686TIP3    H159473   5.993   3.842   0.120 -0.7820  0.2443  0.3585
12686TIP3    H259474   6.044   3.850   0.263  1.0594 -0.6234 -0.2099
12687TIP3   OH259475   3.933   4.605   4.752 -0.4822 -0.1696  0.2914
12687TIP3    H159476   3.967   4.608   4.662 -0.8529  2.8522  0.1263
12687TIP3    H259477   3.998   4.554   4.800 -0.5480 -2.3581 -1.7226
12688TIP3   OH259478   5.751   4.672   4.474 -0.3041  0.2388 -0.7301
12688TIP3    H159479   5.839   4.691   4.507 -0.6920 -0.4029  0.7552
12688TIP3    H259480   5.763   4.594   4.419 -0.1116 -0.5691  0.4284
12689TIP3   OH259481   1.623   0.469   0.168  0.0555  0.5148 -0.5376
12689TIP3    H159482   1.667   0.478   0.083  0.8685 -0.1817 -0.2071
12689TIP3    H259483   1.537   0.431   0.147  1.4916 -2.9682 -0.8368
12690TIP3   OH259484   3.700   4.190  14.819  0.2568  1.1816  0.2405
12690TIP3    H159485   3.700   4.215  14.727  1.6307 -0.0262 -0.1113
12690TIP3    H259486   3.611   4.210  14.849 -0.2323  1.5189 -1.3486
12691TIP3   OH259487   3.223   1.588   4.977 -0.0503 -0.1089 -0.3658
12691TIP3    H159488   3.288   1.641   4.932  0.3157  0.0670  0.3658
12691TIP3    H259489   3.147   1.588   4.918  0.2480  0.5182 -0.7583
12692TIP3   OH259490   6.697   5.771  16.883  0.8018  0.3401  0.3488
12692TIP3    H159491   6.669   5.775  16.791 -1.6322  0.8375  1.0339
12692TIP3    H259492   6.689   5.861  16.914  0.0139 -0.0922  1.4591
12693TIP3   OH259493   4.925   2.819  14.557 -0.0897  0.3933  0.3365
12693TIP3    H159494   4.850   2.871  14.585 -2.0179 -1.7069 -0.6218
12693TIP3    H259495   4.949   2.768  14.634 -0.0987  0.5497  0.4433
12694TIP3   OH259496   1.289   5.702   1.002  0.2570 -0.4317  0.6664
12694TIP3    H159497   1.356   5.716   0.936  0.7953  0.2290  1.3246
12694TIP3    H259498   1.338   5.679   1.081 -0.3531 -0.9251  0.9102
12695TIP3   OH259499   0.193   4.076  13.122 -0.1626  0.3606  0.4064
12695TIP3    H159500   0.270   4.100  13.174 -0.5654  0.8137  0.8053
12695TIP3    H259501   0.198   3.981  13.114 -0.9562  0.0520  2.6975
12696TIP3   OH259502   0.391   3.247   4.600 -0.1605  0.5220  0.0703
12696TIP3    H159503   0.368   3.326   4.648 -0.5662  0.7812 -0.5356
12696TIP3    H259504   0.306   3.213   4.569  0.2121  2.3717 -3.6364
12697TIP3   OH259505   6.109   3.024  15.725  0.0361  0.2423  0.4909
12697TIP3    H159506   6.200   3.042  15.746 -0.5907  2.0653  1.8856
12697TIP3    H259507   6.072   3.108  15.698 -1.6544 -0.0497  1.6897
12698TIP3   OH259508   1.146   3.331   2.500  0.2422  0.2833 -0.1034
12698TIP3    H159509   1.165   3.298   2.412  0.1049  0.1694 -0.0904
12698TIP3    H259510   1.115   3.254   2.548 -1.4654  0.6929 -0.4681
12699TIP3   OH259511   5.025   5.268  11.560  0.2536 -0.4373 -0.5128
12699TIP3    H159512   5.007   5.174  11.560  1.7011 -0.7576  1.1872
12699TIP3    H259513   5.105   5.277  11.508  1.6132 -0.5424  1.4448
12700TIP3   OH259514   3.959   2.002  16.695  0.0481 -0.0090 -0.5757
12700TIP3    H159515   4.043   1.984  16.738 -1.1415 -0.1185  1.8395
12700TIP3    H259516   3.979   2.072  16.633  1.9121  0.0119 -0.0229
12701TIP3   OH259517   6.111   5.400  17.169  0.2837 -0.1039  0.2664
12701TIP3    H159518   6.108   5.478  17.225  0.5507  0.9124 -1.0799
12701TIP3    H259519   6.019   5.378  17.155  0.2204 -0.9177  1.8063
12702TIP3   OH259520   3.091   0.904   3.003 -0.2329 -0.0698 -0.0570
12702TIP3    H159521   3.136   0.904   3.087 -0.7730 -1.1517  0.2628
12702TIP3    H259522   3.055   0.815   2.995 -0.4953  0.1187 -1.2664
12703TIP3   OH259523   0.780   1.066   4.832 -0.4951  0.3787 -0.4435
12703TIP3    H159524   0.723   1.048   4.758  0.2028  0.3895 -0.9921
12703TIP3    H259525   0.733   1.031   4.908 -2.1283  2.1262 -0.5816
12704TIP3   OH259526   3.755   4.655   3.272  0.3112  0.2473  0.4211
12704TIP3    H159527   3.678   4.608   3.306 -0.6816  0.1305 -1.8094
12704TIP3    H259528   3.817   4.586   3.250  1.2432  0.3516  2.4474
12705TIP3   OH259529   3.615   2.931   3.507 -0.1930  0.0540 -0.2790
12705TIP3    H159530   3.688   2.896   3.558  0.6506 -1.9367 -2.6284
12705TIP3    H259531   3.537   2.894   3.548  0.4906 -1.9190 -0.6541
12706TIP3   OH259532   2.950   4.160   1.051 -0.1046 -0.7540  0.2188
12706TIP3    H159533   2.914   4.205   1.128  0.2833  2.6674 -1.4333
12706TIP3    H259534   3.022   4.108   1.087  0.1199  0.7742  2.2134
12707TIP3   OH259535   2.423   4.234  15.390 -0.4022  0.7408 -0.3840
12707TIP3    H159536   2.386   4.146  15.391 -0.2422  0.6621  0.9140
12707TIP3    H259537   2.355   4.289  15.429  1.0355  0.4604  2.8225
12708TIP3   OH259538   3.873   6.195  16.374 -0.5325 -0.4394  0.6595
12708TIP3    H159539   3.806   6.230  16.316 -1.4523 -1.2706  1.1923
12708TIP3    H259540   3.870   6.100  16.360  2.6992 -0.3735 -1.6144
12709TIP3   OH259541   1.110   0.207   6.271  0.1418 -0.0893  0.2080
12709TIP3    H159542   1.078   0.165   6.351  0.0315 -1.3825 -0.4933
12709TIP3    H259543   1.203   0.189   6.270  0.4130  1.1465  0.7395
12710TIP3   OH259544   0.694   5.184  17.090  0.4123 -0.0938  0.2007
12710TIP3    H159545   0.674   5.259  17.146  0.9593 -1.1258  1.8489
12710TIP3    H259546   0.683   5.107  17.146 -1.0900 -1.3689 -1.6803
12711TIP3   OH259547   5.350   5.832  11.687  0.0714  0.0808  0.1391
12711TIP3    H159548   5.320   5.741  11.692 -0.2751  0.2602  1.4653
12711TIP3    H259549   5.324   5.861  11.599  1.8485 -1.6592 -1.0749
12712TIP3   OH259550   2.265   5.752   0.538  0.1411  0.0766  0.4565
12712TIP3    H159551   2.274   5.660   0.562 -1.8562  0.2910  2.3826
12712TIP3    H259552   2.327   5.765   0.467  2.2841 -2.1455  1.7748
12713TIP3   OH259553   0.151   3.913   4.940  0.1676  0.3766 -0.1722
12713TIP3    H159554   0.133   3.955   4.856  0.0684 -1.7044 -1.2592
12713TIP3    H259555   0.085   3.845   4.948  1.2593 -0.6231  0.7376
12714TIP3   OH259556   6.638   3.893  14.940 -0.3668 -0.3366 -0.1603
12714TIP3    H159557   6.570   3.849  14.889 -0.1866 -0.4340 -0.3172
12714TIP3    H259558   6.694   3.822  14.972 -0.6855 -0.3095  0.4784
12715TIP3   OH259559   0.030   2.830   5.179  0.1875 -0.1821  0.3376
12715TIP3    H159560   0.031   2.736   5.198  0.9400 -0.0230  1.2003
12715TIP3    H259561  -0.056   2.846   5.141 -0.1520 -1.1296  0.6721
12716TIP3   OH259562   0.960   0.620  15.255 -0.0883  0.3442 -0.3019
12716TIP3    H159563   0.922   0.550  15.201  0.4512 -0.8411  0.7881
12716TIP3    H259564   1.052   0.622  15.229 -0.6218  2.6548 -2.3612
12717TIP3   OH259565   3.010   1.839  15.009 -0.0252  0.0322 -0.4282
12717TIP3    H159566   3.080   1.894  15.044 -0.1044 -1.3435  2.1648
12717TIP3    H259567   2.930   1.891  15.021  0.1531  0.2291 -0.0794
12718TIP3   OH259568   2.912   2.830  11.752  0.2280  0.6323  0.5378
12718TIP3    H159569   2.943   2.836  11.843  0.7892  2.0345  0.2871
12718TIP3    H259570   2.817   2.837  11.760  0.3579  4.3199  0.9011
12719TIP3   OH259571   2.589   6.747   3.260  0.5851 -0.4149 -0.5892
12719TIP3    H159572   2.593   6.767   3.166  0.5020  0.6929 -0.3724
12719TIP3    H259573   2.505   6.701   3.271  1.6986 -2.8301 -1.4254
12720TIP3   OH259574   0.274   1.449   2.945 -0.3326 -0.3317  0.0645
12720TIP3    H159575   0.250   1.357   2.939  0.6854 -0.5464 -1.0518
12720TIP3    H259576   0.193   1.494   2.971 -1.2655 -1.3267 -1.0364
12721TIP3   OH259577   3.829   0.383   4.874  0.1426 -0.3461  0.4701
12721TIP3    H159578   3.847   0.477   4.885 -2.0042  0.4977 -2.2522
12721TIP3    H259579   3.749   0.368   4.925 -0.9919 -0.0324 -1.1573
12722TIP3   OH259580   0.918   5.766   0.020  0.0077  0.1904  0.4494
12722TIP3    H159581   0.968   5.685   0.005  1.6081  1.3562 -0.9912
12722TIP3    H259582   0.843   5.759  -0.039 -0.5881 -0.7748  1.2830
12723TIP3   OH259583   5.619   4.196   0.966  0.4268 -0.0077 -0.1761
12723TIP3    H159584   5.678   4.179   1.040 -1.6335 -0.7758  1.3796
12723TIP3    H259585   5.578   4.280   0.986 -0.1710 -0.2302 -0.4380
12724TIP3   OH259586   2.196   3.438  13.097 -0.1564  0.2672 -0.0234
12724TIP3    H159587   2.292   3.432  13.098 -0.1946 -0.2984  1.4808
12724TIP3    H259588   2.179   3.532  13.107  0.2218  0.4676 -1.0599
12725TIP3   OH259589   0.258   2.021   5.691  0.1658  0.6430 -0.1117
12725TIP3    H159590   0.210   2.091   5.648  2.3833  1.6466 -1.1030
12725TIP3    H259591   0.320   1.990   5.626  0.3768 -1.1452  0.8548
12726TIP3   OH259592   0.915   4.721   1.709  0.3672  0.0842 -0.0787
12726TIP3    H159593   0.899   4.813   1.730  1.2920 -0.0074  1.1880
12726TIP3    H259594   0.831   4.688   1.679  0.1761  1.4927 -1.1549
12727TIP3   OH259595   2.758   5.275  11.153 -0.1418 -0.5962 -0.0799
12727TIP3    H159596   2.852   5.276  11.137 -0.1979  0.5669 -0.3909
12727TIP3    H259597   2.742   5.191  11.198  1.3470  0.1371  1.9377
12728TIP3   OH259598   2.338   4.812   6.892 -0.3202 -0.5609  0.9730
12728TIP3    H159599   2.268   4.783   6.834 -1.4984  1.3100  1.3685
12728TIP3    H259600   2.357   4.902   6.864  0.9756 -0.5746  1.7493
12729TIP3   OH259601   3.275   4.089   1.995  0.3785 -0.5408 -0.1861
12729TIP3    H159602   3.251   4.137   2.075 -0.2269  1.1450 -1.3167
12729TIP3    H259603   3.307   4.005   2.027  3.5753  1.3135  2.0921
12730TIP3   OH259604   0.100   4.864   5.201 -0.5301 -0.0780 -0.4786
12730TIP3    H159605   0.137   4.830   5.282 -0.5968 -0.2980 -0.5413
12730TIP3    H259606   0.007   4.876   5.220 -0.3473  0.9532 -0.1580
12731TIP3   OH259607   1.758   2.216   5.681 -0.1755  0.2070 -0.9373
12731TIP3    H159608   1.685   2.259   5.637  0.2065  0.3578 -1.4300
12731TIP3    H259609   1.802   2.286   5.729 -1.6821 -0.2619  1.2485
12732TIP3   OH259610   2.636   5.717   3.364 -0.0670  0.8507 -0.2327
12732TIP3    H159611   2.561   5.661   3.342  1.1124 -2.0557  2.2699
12732TIP3    H259612   2.683   5.728   3.282 -1.5742  0.0452 -1.2541
12733TIP3   OH259613   1.915   3.669   0.124 -0.4102 -0.0148  0.4203
12733TIP3    H159614   1.845   3.685   0.060  0.1977 -0.2119 -0.3000
12733TIP3    H259615   1.900   3.735   0.192  0.0260  1.4270 -0.8363
12734TIP3   OH259616   5.169   6.019  16.790  0.1078 -0.2795  0.4147
12734TIP3    H159617   5.261   6.021  16.762 -0.1096 -0.2592 -0.3189
12734TIP3    H259618   5.125   6.080  16.731 -0.1618  0.7047  1.5964
12735TIP3   OH259619   2.246   3.804   2.341  0.2915  0.4634  0.0664
12735TIP3    H159620   2.156   3.771   2.341  0.3804  0.2180  0.2335
12735TIP3    H259621   2.277   3.789   2.252  0.4184 -0.1534  0.2077
12736TIP3   OH259622   5.606   5.962  14.142 -0.0514  0.8018  0.8406
12736TIP3    H159623   5.559   5.950  14.225 -0.4057  2.4637  0.9157
12736TIP3    H259624   5.542   6.005  14.085 -0.1017 -1.0812 -0.6190
12737TIP3   OH259625   1.501   3.995  15.512 -0.3440 -0.2916 -0.1807
12737TIP3    H159626   1.513   4.015  15.605  1.7109  0.0429 -0.4645
12737TIP3    H259627   1.474   4.078  15.473  0.2887 -0.0529 -0.1143
12738TIP3   OH259628   2.225   5.085   4.380 -0.2477  0.2166  0.0047
12738TIP3    H159629   2.266   5.110   4.463 -1.3582 -0.3799  0.7441
12738TIP3    H259630   2.133   5.108   4.390 -0.3357  0.4560 -1.2034
12739TIP3   OH259631   4.858   2.907   4.228 -0.4331 -0.3549 -0.0237
12739TIP3    H159632   4.933   2.868   4.183  0.2861 -1.1394  1.7585
12739TIP3    H259633   4.867   2.878   4.319 -1.1117  2.1763  0.9332
12740TIP3   OH259634   5.771   4.449   5.490 -0.1955  0.5546  0.2012
12740TIP3    H159635   5.738   4.360   5.479 -1.7422  1.0516  0.6081
12740TIP3    H259636   5.732   4.479   5.572 -1.0485  2.1942 -0.7673
12741TIP3   OH259637   3.209   4.888   2.957 -0.6963 -0.3541 -0.6382
12741TIP3    H159638   3.150   4.826   3.001  0.4593 -1.9329 -1.1811
12741TIP3    H259639   3.296   4.849   2.968  0.0492  1.1064 -1.1727
12742TIP3   OH259640   3.648   1.041   4.644 -0.1059  0.0577 -0.3000
12742TIP3    H159641   3.665   1.088   4.563  0.4557  3.0909  1.4085
12742TIP3    H259642   3.733   1.008   4.672  0.3948  1.9605  0.6317
12743TIP3   OH259643   2.255   2.131   3.961 -0.3915  0.6811  0.0204
12743TIP3    H159644   2.256   2.227   3.963 -1.8928  0.7482 -0.6149
12743TIP3    H259645   2.311   2.105   4.034 -2.5952  2.0865  2.4109
12744TIP3   OH259646   2.007   0.127   0.349 -0.0133  0.0272  0.4962
12744TIP3    H159647   1.950   0.204   0.362  1.3107  0.6952  3.0046
12744TIP3    H259648   2.082   0.143   0.406  0.8268 -2.6747  0.2778
12745TIP3   OH259649   3.706   1.361   4.564 -0.0524  0.2732  0.1513
12745TIP3    H159650   3.654   1.394   4.491 -1.5901 -1.0966  0.5642
12745TIP3    H259651   3.779   1.316   4.524 -1.1595 -0.9159 -0.6108
12746TIP3   OH259652   4.013   6.469   4.488  0.3200  0.2700  0.0424
12746TIP3    H159653   4.005   6.454   4.394 -1.3621 -2.2611  0.5035
12746TIP3    H259654   3.960   6.547   4.506  0.5694  0.7025 -1.0490
12747TIP3   OH259655   4.269   0.233   2.463  0.3738  0.1099 -0.0175
12747TIP3    H159656   4.194   0.272   2.418  1.0753  0.6334 -0.7946
12747TIP3    H259657   4.259   0.260   2.554  0.0342  0.8543 -0.2604
12748TIP3   OH259658   2.899   5.883   7.056 -0.3867  0.0696 -0.2728
12748TIP3    H159659   2.862   5.794   7.054  0.9628 -0.5150 -0.4642
12748TIP3    H259660   2.983   5.874   7.012  0.8299  0.9363  1.7556
12749TIP3   OH259661   3.759   6.404   5.388 -0.8748 -0.2866  0.0265
12749TIP3    H159662   3.804   6.479   5.428  1.3911 -1.0379 -0.9987
12749TIP3    H259663   3.771   6.332   5.450  0.1879 -0.7277 -0.6719
12750TIP3   OH259664   2.945   5.552  16.228 -1.0997 -0.4345 -0.0163
12750TIP3    H159665   2.890   5.522  16.301 -0.8745 -0.8327 -0.0080
12750TIP3    H259666   3.024   5.499  16.235 -0.3528  0.7116  0.4780
12751TIP3   OH259667   0.574   5.927  14.531  0.4255  0.3456  0.5790
12751TIP3    H159668   0.666   5.940  14.557  0.8276 -0.2121 -0.4925
12751TIP3    H259669   0.573   5.840  14.491 -0.3821  0.7160 -0.2211
12752TIP3   OH259670   4.257   1.221  13.121 -0.5731  0.6987  0.7272
12752TIP3    H159671   4.178   1.246  13.073 -0.4367  2.0377  1.1500
12752TIP3    H259672   4.231   1.144  13.172 -0.2997 -1.7593 -2.5671
12753TIP3   OH259673   3.589   6.140  12.749  0.0083 -0.4436  0.3043
12753TIP3    H159674   3.611   6.146  12.842  1.3060 -0.3601  0.0105
12753TIP3    H259675   3.548   6.054  12.740 -0.9047 -0.1090  1.0892
12754TIP3   OH259676   2.240   6.101  13.112 -0.3045 -0.1386 -0.5241
12754TIP3    H159677   2.221   6.050  13.191 -0.4177 -0.0902 -0.5192
12754TIP3    H259678   2.236   6.192  13.141  1.7917 -0.1350 -0.0979
12755TIP3   OH259679   5.979   2.028   0.784  0.6566 -0.0484  0.1937
12755TIP3    H159680   6.022   2.064   0.707 -0.1470 -3.5294 -2.1128
12755TIP3    H259681   5.886   2.032   0.763  0.1638  1.4167  2.2949
12756TIP3   OH259682   5.170   5.662   5.919 -0.3626  0.8772  0.2290
12756TIP3    H159683   5.196   5.739   5.970  1.7643  0.9580 -0.8628
12756TIP3    H259684   5.157   5.695   5.830 -2.9598  0.5428  0.3867
12757TIP3   OH259685   6.117   1.704   2.787 -0.0756 -0.6698 -0.4775
12757TIP3    H159686   6.076   1.672   2.867 -0.3541  0.6350 -0.0792
12757TIP3    H259687   6.046   1.745   2.738  0.6042  1.2141  0.0114
12758TIP3   OH259688   0.876   0.211  11.434 -0.1236 -0.4676 -0.4468
12758TIP3    H159689   0.894   0.303  11.454 -0.1248 -0.7255  0.8512
12758TIP3    H259690   0.950   0.184  11.380 -0.0141  0.2448 -0.6617
12759TIP3   OH259691   2.395   4.101   1.483 -0.4215 -0.3592 -0.3008
12759TIP3    H159692   2.367   4.153   1.559 -1.5065 -0.2281 -0.7818
12759TIP3    H259693   2.356   4.146   1.408 -1.1341 -1.6961 -0.7532
12760TIP3   OH259694   3.739   1.001  13.901  0.2479  0.1038  0.0976
12760TIP3    H159695   3.728   0.988  13.807  0.7161  1.3092 -0.1446
12760TIP3    H259696   3.690   0.929  13.941  0.2937 -0.5976 -1.0642
12761TIP3   OH259697   3.785   0.929  16.356 -0.0345 -0.7409 -0.1626
12761TIP3    H159698   3.824   0.959  16.274  1.5921 -3.4108 -0.4913
12761TIP3    H259699   3.850   0.954  16.423  0.2715 -1.5020 -0.1630
12762TIP3   OH259700   4.267   1.795   4.644  0.6706  0.2574 -0.2897
12762TIP3    H159701   4.183   1.838   4.654  1.7785  2.7647 -0.8430
12762TIP3    H259702   4.300   1.783   4.733 -0.3337 -1.0186 -0.0559
12763TIP3   OH259703   1.223   5.481  15.946  0.3737 -0.5674  0.6026
12763TIP3    H159704   1.177   5.544  16.000  0.2531 -1.2047  1.2599
12763TIP3    H259705   1.185   5.396  15.970  2.1073 -1.1536  1.4230
12764TIP3   OH259706   4.759   1.142  14.311  0.4885 -0.5316  0.1350
12764TIP3    H159707   4.753   1.142  14.215  1.0759 -0.5025  0.0981
12764TIP3    H259708   4.708   1.066  14.338  0.3525 -0.5627 -0.2042
12765TIP3   OH259709   5.426   1.179   0.277 -0.2750 -0.0754  0.5675
12765TIP3    H159710   5.475   1.099   0.295  1.1435  0.1895 -1.6571
12765TIP3    H259711   5.341   1.149   0.245 -0.0014 -0.7016  0.4076
12766TIP3   OH259712   5.047   6.571  12.540  0.0922  0.0061 -0.4893
12766TIP3    H159713   5.046   6.666  12.552 -0.3376 -0.2163  1.5639
12766TIP3    H259714   5.137   6.545  12.560 -0.1016 -0.1473  0.1984
12767TIP3   OH259715   0.844   2.057  14.543  0.4761  0.9195 -0.5162
12767TIP3    H159716   0.849   1.962  14.536 -2.1947  0.5209  1.1849
12767TIP3    H259717   0.934   2.087  14.532  1.1412 -1.5525 -3.3481
12768TIP3   OH259718   2.026   5.244   6.721  0.0569  0.2401  0.0208
12768TIP3    H159719   2.035   5.306   6.793 -0.3024  0.9141 -0.5069
12768TIP3    H259720   2.021   5.158   6.764  0.7393  0.5531  0.7443
12769TIP3   OH259721   0.092   4.068   4.219 -0.4322 -0.0605 -0.7893
12769TIP3    H159722   0.036   4.146   4.219 -1.2596 -0.6356 -1.0801
12769TIP3    H259723   0.061   4.016   4.294  0.9427  0.4530  0.1600
12770TIP3   OH259724   3.790   0.619   3.716 -0.3882 -0.2261  0.3811
12770TIP3    H159725   3.745   0.636   3.799 -1.3597 -0.0283 -0.1660
12770TIP3    H259726   3.812   0.526   3.719 -0.7871 -0.3154  0.6851
12771TIP3   OH259727   4.086   0.875   1.036 -0.1244  0.0755 -0.1890
12771TIP3    H159728   4.082   0.969   1.056  2.4964 -0.0211  1.2147
12771TIP3    H259729   4.072   0.870   0.941  0.5966  1.9766 -0.4406
12772TIP3   OH259730   1.438   1.000  15.883 -0.2201 -0.3004 -0.2096
12772TIP3    H159731   1.451   1.032  15.793 -0.3794  1.2992  0.3083
12772TIP3    H259732   1.463   1.074  15.938 -3.3878 -0.0187  1.0161
12773TIP3   OH259733   3.251   1.829  15.937 -0.6091 -0.1520  0.2728
12773TIP3    H159734   3.229   1.919  15.912 -0.6392  0.0201  0.8987
12773TIP3    H259735   3.208   1.817  16.021  1.3858  0.0745  1.3731
12774TIP3   OH259736   4.244   5.712  15.616 -0.0848 -0.6302  0.4666
12774TIP3    H159737   4.179   5.729  15.683  0.7201 -1.8964  1.6307
12774TIP3    H259738   4.298   5.791  15.613 -0.4254 -0.3784  0.9602
12775TIP3   OH259739   1.513   0.298  12.418 -0.1311 -0.1801  0.1679
12775TIP3    H159740   1.595   0.249  12.427 -0.5936 -0.9107  0.5787
12775TIP3    H259741   1.466   0.281  12.500  0.2489  2.0544  0.9206
12776TIP3   OH259742   2.703   3.721  12.000 -0.1992 -0.4206  0.6587
12776TIP3    H159743   2.627   3.709  12.057 -0.6295  0.1829  0.2168
12776TIP3    H259744   2.737   3.632  11.987  0.2946 -0.5151  2.3647
12777TIP3   OH259745   4.502   0.076  16.677 -0.2056  0.2777 -0.1327
12777TIP3    H159746   4.591   0.110  16.690  0.1097 -0.9777  1.4249
12777TIP3    H259747   4.468   0.065  16.766 -0.4374 -2.8919 -0.4978
12778TIP3   OH259748   6.726   1.257  12.454  0.4430  0.2980 -0.3580
12778TIP3    H159749   6.810   1.216  12.430  0.7824  1.1267 -0.6277
12778TIP3    H259750   6.719   1.333  12.395 -0.9979 -0.3384 -1.0559
12779TIP3   OH259751   1.522   3.910  15.129 -0.3662 -0.1358 -0.7150
12779TIP3    H159752   1.529   4.003  15.146 -0.3014 -0.2653 -0.0170
12779TIP3    H259753   1.430   3.896  15.107 -0.5002 -0.0019 -0.2425
12780TIP3   OH259754   4.049   2.250  16.533  0.3078 -0.1166  0.3458
12780TIP3    H159755   4.144   2.258  16.536  0.2036  1.0793  1.4835
12780TIP3    H259756   4.023   2.305  16.459  0.5612 -1.4530 -0.7699
12781TIP3   OH259757   5.471   4.745  11.502 -0.1405  0.9915 -0.4015
12781TIP3    H159758   5.425   4.742  11.586  0.4843  1.2497 -0.0469
12781TIP3    H259759   5.448   4.829  11.464 -0.7499  0.7052 -0.6825
12782TIP3   OH259760   3.138   3.316  14.952 -0.2120  0.6204 -0.5568
12782TIP3    H159761   3.227   3.281  14.958 -0.1256  0.4407 -2.3243
12782TIP3    H259762   3.144   3.385  14.886 -1.6121 -0.1491 -1.5217
12783TIP3   OH259763   4.427   0.121  14.408  0.2092  0.1655  0.4486
12783TIP3    H159764   4.343   0.091  14.373 -0.3287  0.2821  1.5726
12783TIP3    H259765   4.429   0.086  14.498  1.2763  0.3321  0.5067
12784TIP3   OH259766   5.646   4.276  12.033 -0.3327  0.0900 -0.0019
12784TIP3    H159767   5.675   4.272  11.942  0.1696  1.0791  0.1105
12784TIP3    H259768   5.594   4.196  12.045 -1.1073  0.3650 -1.3894
12785TIP3   OH259769   1.002   5.723   3.773  0.1231  0.3997  0.0537
12785TIP3    H159770   0.988   5.774   3.853  0.7132 -1.7473  1.6256
12785TIP3    H259771   1.030   5.637   3.804 -2.6193 -1.5407 -2.3474
12786TIP3   OH259772   1.667   6.322   4.481 -0.5078  0.1749  0.9028
12786TIP3    H159773   1.721   6.310   4.403 -0.4169  0.6315  0.8951
12786TIP3    H259774   1.592   6.373   4.451 -1.4698 -1.3164  0.6894
12787TIP3   OH259775   0.687   5.983   6.526 -0.0022  0.0323  0.2942
12787TIP3    H159776   0.757   5.920   6.542 -0.1182 -0.1978 -0.0835
12787TIP3    H259777   0.611   5.946   6.569  0.3513  0.8197  1.6575
12788TIP3   OH259778   4.990   5.272  13.232  0.0780  0.2779  0.5063
12788TIP3    H159779   5.014   5.309  13.317  0.8064  1.2483 -0.0987
12788TIP3    H259780   5.072   5.270  13.183 -0.2913 -0.4863 -0.1028
12789TIP3   OH259781   5.740   3.338  12.461 -1.0405  0.5615  0.1799
12789TIP3    H159782   5.687   3.389  12.400 -0.5283  0.0749 -0.6854
12789TIP3    H259783   5.733   3.386  12.544 -1.7709  1.2116 -0.2412
12790TIP3   OH259784   4.733   2.249   3.008  0.0200  0.0892 -0.3588
12790TIP3    H159785   4.719   2.329   3.057 -0.3556 -1.2245  1.8041
12790TIP3    H259786   4.802   2.203   3.056 -0.2344 -1.1930 -1.1574
12791TIP3   OH259787   1.117   0.852  12.615 -0.1759  0.9978  0.1437
12791TIP3    H159788   1.120   0.942  12.584  0.0531  0.0291 -3.0388
12791TIP3    H259789   1.208   0.824  12.618 -0.3374  0.2336 -1.1968
12792TIP3   OH259790   3.957   2.411   0.163  0.0234 -0.7455  0.0250
12792TIP3    H159791   4.041   2.396   0.205 -0.1592 -2.6420 -0.2010
12792TIP3    H259792   3.932   2.500   0.190  1.5049 -0.6189  1.0864
12793TIP3   OH259793   0.010   3.053  15.470 -0.1405 -0.1336 -0.2908
12793TIP3    H159794   0.058   3.124  15.513 -1.2200 -0.8759  2.3848
12793TIP3    H259795   0.078   2.996  15.434  0.8477  0.6243  0.3273
12794TIP3   OH259796   3.232   2.148   2.053 -0.1591  0.0197 -0.3871
12794TIP3    H159797   3.291   2.131   1.980  0.3513  0.7296 -0.1467
12794TIP3    H259798   3.205   2.060   2.082  1.3465 -0.3560 -0.0405
12795TIP3   OH259799   0.355   4.687   1.652  0.0681  0.0468  0.1361
12795TIP3    H159800   0.376   4.604   1.697  4.2995 -0.0268 -1.4791
12795TIP3    H259801   0.343   4.750   1.723 -1.6553 -1.5725  1.3761
12796TIP3   OH259802   2.841   4.911  16.245  0.2072 -0.1673  0.7442
12796TIP3    H159803   2.890   4.982  16.201  0.3532 -0.4370  0.4647
12796TIP3    H259804   2.841   4.936  16.337  0.8187 -0.1298  0.7394
12797TIP3   OH259805   0.390   6.455  12.850 -0.2563 -0.4814  0.2761
12797TIP3    H159806   0.418   6.365  12.838 -2.1795 -1.0892 -0.0379
12797TIP3    H259807   0.359   6.483  12.763  0.0215  0.3652  0.4364
12798TIP3   OH259808   4.860   1.616  12.304 -0.5810  0.0853 -0.7575
12798TIP3    H159809   4.915   1.691  12.282 -0.3249 -0.3841 -1.7749
12798TIP3    H259810   4.898   1.582  12.384 -1.4629  1.7755  0.4455
12799TIP3   OH259811   1.974   2.542  12.610  0.2835 -0.0703  0.3552
12799TIP3    H159812   1.913   2.557  12.682 -1.3631  0.0184 -0.9757
12799TIP3    H259813   1.991   2.629  12.574 -0.8015 -0.2916 -0.7848
12800TIP3   OH259814   1.942   3.953   3.739  1.0569 -0.2996 -0.0074
12800TIP3    H159815   2.002   4.027   3.743  1.6567 -0.7544 -0.4484
12800TIP3    H259816   1.977   3.897   3.669  0.9290 -1.2738  0.6871
12801TIP3   OH259817   4.548   4.114   4.428  0.4670 -0.0559 -0.2678
12801TIP3    H159818   4.513   4.028   4.405  0.3942  0.1982 -1.1339
12801TIP3    H259819   4.628   4.122   4.376 -0.0068  0.7672 -0.8933
12802TIP3   OH259820   1.611   2.084  15.110 -0.3937 -0.4587 -0.3607
12802TIP3    H159821   1.640   2.076  15.020  3.2582 -1.8135  0.7360
12802TIP3    H259822   1.569   2.000  15.130 -2.1996  0.2453 -1.0213
12803TIP3   OH259823   2.747   6.405  13.008 -0.4726 -0.5269 -0.9296
12803TIP3    H159824   2.695   6.370  13.080 -1.3833  0.9915 -0.8171
12803TIP3    H259825   2.683   6.442  12.947  0.3404 -0.8985 -2.0599
12804TIP3   OH259826   1.920   0.131  15.498 -0.5794 -0.1118  0.0063
12804TIP3    H159827   1.991   0.153  15.438  0.5153  2.0465  1.9088
12804TIP3    H259828   1.864   0.071  15.449  0.9897  0.4103 -2.6072
12805TIP3   OH259829   1.726   5.332  14.062  0.1828 -0.4599 -0.5337
12805TIP3    H159830   1.688   5.261  14.009  1.1920  0.0764 -2.0610
12805TIP3    H259831   1.653   5.391  14.079 -0.0657 -0.3451 -1.8783
12806TIP3   OH259832   2.138   4.148   3.955 -0.1003  0.1001  0.1594
12806TIP3    H159833   2.229   4.178   3.953 -0.7197  2.0379 -0.6431
12806TIP3    H259834   2.107   4.172   4.042  0.9902 -3.5046  1.7557
12807TIP3   OH259835   1.177   0.483  13.271 -0.4437 -0.0450 -0.1912
12807TIP3    H159836   1.147   0.553  13.214  2.8757  0.2486 -1.8364
12807TIP3    H259837   1.140   0.403  13.233 -2.3408  0.5487  0.3155
12808TIP3   OH259838   0.480   0.973   2.789  0.1620  0.2168  0.2727
12808TIP3    H159839   0.435   1.030   2.726  0.5041  0.3272  0.1230
12808TIP3    H259840   0.529   0.912   2.734  0.8785  0.6433  0.4238
12809TIP3   OH259841   0.955   3.387   3.681 -0.0851 -0.1258  0.0071
12809TIP3    H159842   0.998   3.346   3.606  1.3332  1.2193  0.0222
12809TIP3    H259843   0.869   3.346   3.685  0.1688 -0.9367 -1.7465
12810TIP3   OH259844   1.614   4.941   4.118 -0.0547 -1.1685 -0.2242
12810TIP3    H159845   1.528   4.926   4.156  0.4546 -1.9043  0.6844
12810TIP3    H259846   1.665   4.980   4.189  0.0290  0.4598 -1.1196
12811TIP3   OH259847   4.945   4.177  12.768 -0.7621 -0.4063 -0.5917
12811TIP3    H159848   5.011   4.245  12.756 -0.8735 -0.1285  0.3287
12811TIP3    H259849   4.977   4.124  12.841 -0.8096 -1.1893 -1.1287
12812TIP3   OH259850   5.026   6.709  15.492  0.2662 -0.0018  0.1366
12812TIP3    H159851   4.983   6.786  15.457 -0.5787 -0.2365  0.6333
12812TIP3    H259852   4.965   6.637  15.475 -0.1751 -0.1312  2.0184
12813TIP3   OH259853   4.955   4.172   2.533 -0.3614  0.4073  0.3970
12813TIP3    H159854   4.979   4.210   2.618  0.0518  0.3539  0.3034
12813TIP3    H259855   4.987   4.082   2.538 -2.5767 -0.4164  1.1864
12814TIP3   OH259856   5.585   4.834   1.409 -0.4569  0.0044  0.3045
12814TIP3    H159857   5.664   4.790   1.441 -1.3774 -1.1729  1.0710
12814TIP3    H259858   5.547   4.875   1.487 -0.6654  0.4852 -0.0391
12815TIP3   OH259859   1.232   5.808  14.245 -0.1614  0.5288 -0.2537
12815TIP3    H159860   1.229   5.743  14.174  1.7079 -1.6010  1.4622
12815TIP3    H259861   1.323   5.808  14.274 -0.8661  1.2579  2.1868
12816TIP3   OH259862   2.626   6.066   6.073 -0.1093  0.2937 -0.4889
12816TIP3    H159863   2.683   6.105   6.139  0.5830 -2.2992  0.5884
12816TIP3    H259864   2.552   6.126   6.066  1.6492  2.6310 -0.3027
12817TIP3   OH259865   4.172   1.314  15.516 -0.0771 -0.4290  0.3714
12817TIP3    H159866   4.243   1.378  15.524 -0.1813 -0.1598 -0.6448
12817TIP3    H259867   4.195   1.245  15.577  0.5891  0.0833  0.7191
12818TIP3   OH259868   1.106   4.424  11.370  0.1732  0.2367 -0.1041
12818TIP3    H159869   1.163   4.478  11.423  0.2122  0.0611  0.0359
12818TIP3    H259870   1.097   4.471  11.287  0.4933  0.2810 -0.1152
12819TIP3   OH259871   3.096   4.367   1.424  0.1292  0.1796  0.3234
12819TIP3    H159872   3.061   4.448   1.387 -0.3087 -1.0468 -2.1461
12819TIP3    H259873   3.036   4.345   1.495 -0.8174  1.0621 -0.1873
12820TIP3   OH259874   4.053   3.675   3.110 -0.2671  0.5391 -0.0714
12820TIP3    H159875   4.111   3.710   3.043  0.5059  2.0291  1.2957
12820TIP3    H259876   4.021   3.752   3.157 -0.7753 -0.4375  1.2559
12821TIP3   OH259877   4.607   1.226  15.610 -0.0443  0.1600 -0.2498
12821TIP3    H159878   4.701   1.229  15.626 -0.1432 -0.4525  0.5054
12821TIP3    H259879   4.595   1.161  15.542  0.0340 -0.1653  0.0454
12822TIP3   OH259880   4.098   1.429   4.183  0.4098 -0.2325 -0.3135
12822TIP3    H159881   4.138   1.376   4.253 -0.8082  0.7043  1.1404
12822TIP3    H259882   4.124   1.519   4.204  2.0035 -0.1235 -2.4518
12823TIP3   OH259883   2.206   4.771  16.336 -0.1286  0.1475  0.1153
12823TIP3    H159884   2.275   4.706  16.322  0.6596  0.9653  0.1169
12823TIP3    H259885   2.145   4.758  16.264 -0.6091 -1.3617  0.7541
12824TIP3   OH259886   6.242   2.129  12.903 -0.4820 -0.0443  0.0382
12824TIP3    H159887   6.258   2.124  12.809  0.6726  1.2310  0.1311
12824TIP3    H259888   6.157   2.173  12.910 -2.0312 -2.7678 -0.4007
12825TIP3   OH259889   4.431   2.927   1.754 -0.2395  0.6121 -0.3981
12825TIP3    H159890   4.384   2.846   1.773 -1.4191  1.6291  1.3785
12825TIP3    H259891   4.418   2.980   1.833  0.3432  2.5853 -1.5775
12826TIP3   OH259892   5.535   4.500   4.199  0.1556  0.2946  0.0417
12826TIP3    H159893   5.454   4.457   4.173  0.8728 -1.6531  0.8078
12826TIP3    H259894   5.566   4.450   4.274  1.8320  1.2761  0.0716
12827TIP3   OH259895   2.872   4.411  13.389  0.3044 -0.3339 -0.3873
12827TIP3    H159896   2.915   4.365  13.461 -0.0021 -1.2967 -0.8029
12827TIP3    H259897   2.808   4.468  13.431 -1.0802 -2.1372  0.0802
12828TIP3   OH259898   0.171   5.210  13.789  0.0087 -0.0413  0.8400
12828TIP3    H159899   0.207   5.122  13.796 -2.1492 -1.0167  0.3596
12828TIP3    H259900   0.230   5.264  13.843  2.1064 -1.4960  0.1394
12829TIP3   OH259901   3.071   3.119   1.805  0.6246  0.2690  0.4354
12829TIP3    H159902   3.149   3.168   1.777 -0.3145  1.6280  0.1323
12829TIP3    H259903   3.003   3.144   1.743  0.2995 -2.1158 -0.2722
12830TIP3   OH259904   3.661   5.583   4.199 -0.3493 -0.4387 -0.4130
12830TIP3    H159905   3.692   5.641   4.268 -1.6446  0.3632 -0.4651
12830TIP3    H259906   3.721   5.597   4.126  0.1786 -0.2267  0.0540
12831TIP3   OH259907   3.238   0.629   2.534  0.0430 -0.2004 -0.1030
12831TIP3    H159908   3.298   0.588   2.472  2.5957 -0.4247  2.3441
12831TIP3    H259909   3.244   0.723   2.516  0.3089 -0.3047 -0.5530
12832TIP3   OH259910   6.342   1.400   2.411  0.0479 -0.3676  0.3910
12832TIP3    H159911   6.338   1.312   2.449 -0.7697 -0.6302 -0.2861
12832TIP3    H259912   6.340   1.459   2.487  0.7867 -0.9338  0.8543
12833TIP3   OH259913   6.056   5.479  12.205 -0.0460  0.2308 -0.1996
12833TIP3    H159914   6.045   5.461  12.111 -0.6332  0.0870 -0.1089
12833TIP3    H259915   6.004   5.557  12.220  1.1636  1.0673 -0.2593
12834TIP3   OH259916   3.874   1.785  13.555  0.3851  0.4478  0.2381
12834TIP3    H159917   3.916   1.829  13.629 -0.3939  2.5457 -0.4963
12834TIP3    H259918   3.943   1.731  13.517  0.4249 -1.9660  3.3619
12835TIP3   OH259919   4.165   3.208  13.527  0.0569  0.1583 -0.1617
12835TIP3    H159920   4.155   3.244  13.615  1.8912  0.0208  0.1383
12835TIP3    H259921   4.123   3.122  13.531  0.1257  0.1528  0.5940
12836TIP3   OH259922   1.113   3.124   4.517  0.3610  0.1805  0.7666
12836TIP3    H159923   1.168   3.152   4.591  1.5499  1.5932 -0.5974
12836TIP3    H259924   1.166   3.141   4.440 -1.5414  0.4096 -0.5461
12837TIP3   OH259925   3.819   0.156   0.516 -0.0849 -0.6697 -0.1098
12837TIP3    H159926   3.763   0.126   0.588 -1.3698  2.4316  0.3252
12837TIP3    H259927   3.907   0.129   0.541 -0.6490 -0.6382  2.1026
12838TIP3   OH259928   6.459   4.745   4.133  0.1743 -0.5864  0.3286
12838TIP3    H159929   6.374   4.743   4.089 -0.1460 -0.0914  0.9016
12838TIP3    H259930   6.445   4.803   4.209  0.8322 -1.0516  0.8177
12839TIP3   OH259931   0.361   6.407  13.890 -0.1715 -0.2892 -0.0925
12839TIP3    H159932   0.282   6.405  13.836 -0.7496  0.6887  0.6772
12839TIP3    H259933   0.343   6.347  13.962 -0.0885 -0.3102 -0.0893
12840TIP3   OH259934   4.371   6.728   2.455  0.6840  0.4378  0.2196
12840TIP3    H159935   4.443   6.751   2.396  0.2913 -1.7462 -1.2092
12840TIP3    H259936   4.326   6.811   2.470  1.2932  1.2176 -1.8796
12841TIP3   OH259937   4.253   1.671  13.500  0.2429 -0.4446 -0.6129
12841TIP3    H159938   4.283   1.602  13.441 -0.5474 -1.0537 -0.3361
12841TIP3    H259939   4.333   1.713  13.532  0.7273 -1.0973 -0.9486
12842TIP3   OH259940   6.344   1.814   4.355 -0.5380  0.0115 -0.1614
12842TIP3    H159941   6.383   1.812   4.267 -0.3111 -2.6729 -0.0918
12842TIP3    H259942   6.394   1.880   4.402 -0.3802  1.2036 -1.8987
12843TIP3   OH259943   6.271   0.687  13.659 -0.0972  0.1994  0.1870
12843TIP3    H159944   6.326   0.614  13.689  0.3546 -0.0674 -1.1977
12843TIP3    H259945   6.183   0.651  13.657 -0.0219 -0.0017  0.4835
12844TIP3   OH259946   6.303   5.891  15.958 -0.1963  0.4408 -0.2183
12844TIP3    H159947   6.322   5.984  15.950 -1.2980  0.6003 -1.2131
12844TIP3    H259948   6.266   5.866  15.874 -0.4603 -0.7695  0.2295
12845TIP3   OH259949   1.133   4.771  13.269  0.4193 -0.2685 -0.2297
12845TIP3    H159950   1.078   4.840  13.233  0.9421  0.0212 -0.4954
12845TIP3    H259951   1.140   4.792  13.362 -0.6499 -0.8203 -0.0183
12846TIP3   OH259952   2.252   3.406   3.474 -0.1580  0.0555  0.0201
12846TIP3    H159953   2.226   3.313   3.477 -0.0142 -0.0542 -1.6419
12846TIP3    H259954   2.173   3.451   3.445 -0.5908  0.6450  1.9482
12847TIP3   OH259955   3.516   0.711  16.966  0.1333 -0.2101  0.0843
12847TIP3    H159956   3.601   0.679  16.996  0.5263  0.5388 -0.2012
12847TIP3    H259957   3.452   0.659  17.014  0.7446  0.3500  1.5770
12848TIP3   OH259958   2.585   2.760   4.013 -0.1057 -0.1383  0.1724
12848TIP3    H159959   2.675   2.787   4.030  0.0875 -0.5935 -0.1108
12848TIP3    H259960   2.532   2.819   4.067  0.3782 -0.1055  0.6232
12849TIP3   OH259961   6.651   1.007   0.527 -0.0479  0.0786 -0.6619
12849TIP3    H159962   6.653   0.996   0.432 -0.0544 -0.9246 -0.5609
12849TIP3    H259963   6.732   1.055   0.547 -0.4468  1.0245 -1.2404
12850TIP3   OH259964   2.476   3.966  15.148  0.6824 -0.6959  0.2853
12850TIP3    H159965   2.387   3.995  15.170  0.7782  0.5072 -0.8023
12850TIP3    H259966   2.508   3.924  15.229 -0.7222 -0.8196  0.8121
12851TIP3   OH259967   0.660   3.978   1.042  0.1539  0.2082  0.5746
12851TIP3    H159968   0.666   4.044   1.111  0.0514  0.6514  0.1750
12851TIP3    H259969   0.589   4.010   0.986  0.8129  0.3337 -0.2167
12852TIP3   OH259970   6.121   1.039  15.721 -0.1447  0.0323 -0.0678
12852TIP3    H159971   6.094   1.128  15.699 -2.5198 -0.0655  2.0289
12852TIP3    H259972   6.055   0.983  15.681  0.2553 -0.6667  0.2278
12853TIP3   OH259973   0.840   5.247   1.525 -0.0897  0.3491  0.1528
12853TIP3    H159974   0.832   5.299   1.605  0.3423  0.3766  0.1850
12853TIP3    H259975   0.919   5.195   1.539 -0.1875  0.1241 -0.1276
12854TIP3   OH259976   6.692   2.715   0.452 -0.0383  0.4680 -0.6656
12854TIP3    H159977   6.754   2.745   0.385 -0.0735  2.6568  0.1873
12854TIP3    H259978   6.746   2.664   0.513  0.5030  0.5607 -1.0594
12855TIP3   OH259979   0.576   3.733  17.177  0.6709 -0.1863  0.0130
12855TIP3    H159980   0.658   3.714  17.132  0.6293 -0.1454 -0.0815
12855TIP3    H259981   0.583   3.825  17.203 -0.4575  0.7082 -2.4480
12856TIP3   OH259982   4.720   4.927   1.633  0.1848  0.1190  0.7327
12856TIP3    H159983   4.739   4.906   1.542 -1.1517  0.1822  0.4275
12856TIP3    H259984   4.694   4.844   1.672  1.3533 -0.0352  1.2421
12857TIP3   OH259985   4.917   5.753  12.873  0.2817 -0.3140  0.4603
12857TIP3    H159986   4.826   5.743  12.845  0.3572 -1.1446  0.4666
12857TIP3    H259987   4.945   5.663  12.892  1.9524 -0.4677 -2.1970
12858TIP3   OH259988   0.221   0.798   4.657 -0.6544  0.4274 -0.6868
12858TIP3    H159989   0.144   0.814   4.712 -0.5124 -1.1191  0.0106
12858TIP3    H259990   0.225   0.874   4.599 -1.8454  1.2480  0.2510
12859TIP3   OH259991   4.750   5.253  15.387 -0.2046  0.1950  0.9008
12859TIP3    H159992   4.741   5.158  15.402 -1.3577  0.3541  1.2775
12859TIP3    H259993   4.663   5.282  15.360  0.6385  0.8036 -1.3557
12860TIP3   OH259994   6.230   4.644  15.855  0.2408 -0.0135 -0.6173
12860TIP3    H159995   6.174   4.651  15.778  1.7208 -1.5202 -1.9010
12860TIP3    H259996   6.316   4.621  15.820  1.1483  0.0479  1.4470
12861TIP3   OH259997   3.561   1.571   3.541  0.0790  0.2084  0.1464
12861TIP3    H159998   3.547   1.639   3.476  1.0800  0.8271  0.5640
12861TIP3    H259999   3.650   1.539   3.523 -0.3339 -0.9133  0.0288
12862TIP3   OH260000   5.685   0.970  13.650 -0.0799  0.6982  1.0289
12862TIP3    H160001   5.667   0.966  13.556 -3.1161  1.3762  1.4594
12862TIP3    H260002   5.780   0.983  13.656  0.0702  1.8453 -1.9616
12863TIP3   OH260003   4.234   4.017   2.729 -0.2492 -0.6054 -0.0354
12863TIP3    H160004   4.285   4.010   2.648  1.8807  2.2834  0.8808
12863TIP3    H260005   4.288   3.974   2.796  0.8742  1.9517  0.8269
12864TIP3   OH260006   0.100   6.021  15.064 -0.3434  0.4077  0.7989
12864TIP3    H160007   0.092   6.109  15.099  0.2111  1.1292 -0.8020
12864TIP3    H260008   0.191   6.014  15.035 -0.6142 -0.3564  0.0825
12865TIP3   OH260009   0.035   1.163   5.086 -0.2083 -0.2106  0.4939
12865TIP3    H160010  -0.044   1.207   5.056  0.4058 -0.6916 -2.0019
12865TIP3    H260011   0.093   1.163   5.010  0.7548 -3.1988  1.1050
12866TIP3   OH260012   5.286   0.629  13.877  0.2964  0.0694 -0.1252
12866TIP3    H160013   5.238   0.631  13.959 -1.6183 -2.2215 -1.0477
12866TIP3    H260014   5.249   0.701  13.826  0.8557  0.9340  0.6598
12867TIP3   OH260015   2.664   1.891  15.838 -0.9877 -0.2868  0.3317
12867TIP3    H160016   2.720   1.916  15.765  0.2041 -0.3497  1.2125
12867TIP3    H260017   2.632   1.804  15.814 -0.6903 -0.2628 -0.1620
12868TIP3   OH260018   6.285   4.895   2.914  0.2137 -0.1478  0.4768
12868TIP3    H160019   6.278   4.989   2.897 -0.3262  0.0116  1.5522
12868TIP3    H260020   6.243   4.882   2.998  2.3493 -1.0046  1.4887
12869TIP3   OH260021   4.347   6.701  13.431  0.1241 -0.5409  0.6839
12869TIP3    H160022   4.353   6.775  13.371 -0.4451 -1.1972 -0.2128
12869TIP3    H260023   4.294   6.733  13.504  1.7235  0.6016  1.3895
12870TIP3   OH260024   0.055   1.832   4.493  0.7972  0.4161  0.1449
12870TIP3    H160025   0.128   1.781   4.529  0.7752  0.0752 -0.2855
12870TIP3    H260026   0.098   1.906   4.450  0.8054  1.0444  1.1866
12871TIP3   OH260027   1.162   1.571   5.199  0.8058  0.2694  0.1731
12871TIP3    H160028   1.228   1.619   5.148  0.5597  1.0497  0.5631
12871TIP3    H260029   1.144   1.493   5.147 -0.6218  1.7890 -1.8089
12872TIP3   OH260030   1.097   5.488  16.829 -0.7447  0.1704  0.5454
12872TIP3    H160031   1.170   5.456  16.882  1.2272  1.8288 -1.0023
12872TIP3    H260032   1.076   5.415  16.770  0.5304  0.0580  0.1977
12873TIP3   OH260033   2.085   5.500   4.859 -0.2623 -0.0357  0.0419
12873TIP3    H160034   2.091   5.595   4.872 -0.4919  0.1257 -0.9106
12873TIP3    H260035   2.166   5.478   4.813 -0.8201 -0.0488 -0.9876
12874TIP3   OH260036   1.397   0.873   1.564  0.2398 -0.3765 -0.1501
12874TIP3    H160037   1.393   0.810   1.493 -0.4357 -1.1363  0.5463
12874TIP3    H260038   1.478   0.922   1.548 -0.2641 -0.0373 -1.8338
12875TIP3   OH260039   0.991   5.818   2.989 -0.2402  0.1606 -0.2809
12875TIP3    H160040   0.931   5.748   2.961 -0.5597  0.4719 -0.3803
12875TIP3    H260041   0.956   5.849   3.072  0.4773 -0.4803  0.2686
12876TIP3   OH260042   1.680   1.877  16.435 -0.3787 -0.5269  0.8836
12876TIP3    H160043   1.744   1.837  16.494  1.9268  2.0219  0.3083
12876TIP3    H260044   1.721   1.874  16.349 -0.9912  1.1559  0.4848
12877TIP3   OH260045   4.168   6.541   2.410 -0.0006 -0.3800 -0.1935
12877TIP3    H160046   4.173   6.454   2.370  0.4817 -0.6135  0.3614
12877TIP3    H260047   4.259   6.572   2.412 -0.2404  0.4256 -0.9920
12878TIP3   OH260048   1.355   5.399   5.807  0.6952  0.5144  0.2881
12878TIP3    H160049   1.337   5.444   5.889  3.0535 -0.2245  1.3011
12878TIP3    H260050   1.280   5.340   5.796 -0.1630  1.3540  1.3552
12879TIP3   OH260051   6.768   3.993   4.469  1.1418 -0.0767  0.1289
12879TIP3    H160052   6.746   3.904   4.442 -1.3533  1.2188 -2.6910
12879TIP3    H260053   6.687   4.028   4.506  2.1221  0.9851  1.3731
12880TIP3   OH260054   6.553   5.916   4.586  0.4253  0.3146  0.3522
12880TIP3    H160055   6.518   5.852   4.523  2.0140  0.0907 -0.3554
12880TIP3    H260056   6.557   5.998   4.536 -1.0065  0.8584  1.0681
12881TIP3   OH260057   1.765   6.507   3.174 -0.1217  0.1846 -0.7247
12881TIP3    H160058   1.695   6.515   3.239  0.1962 -0.2646 -0.3125
12881TIP3    H260059   1.792   6.598   3.158  0.1626  0.2818  0.1959
12882TIP3   OH260060   5.207   4.195  15.597 -0.6587  0.0163  0.0699
12882TIP3    H160061   5.275   4.152  15.544  1.3006  3.4293 -0.4815
12882TIP3    H260062   5.245   4.201  15.685 -0.6997  0.9196  0.0395
12883TIP3   OH260063   2.367   5.592   3.306 -0.2350  0.0068  0.5711
12883TIP3    H160064   2.360   5.650   3.381  1.1511  0.3426  0.4715
12883TIP3    H260065   2.277   5.564   3.289 -0.5298 -0.4371  2.6128
12884TIP3   OH260066   0.420   5.052   0.109 -0.3174  0.4046 -0.3271
12884TIP3    H160067   0.412   4.978   0.050 -2.2339  1.3572 -1.3464
12884TIP3    H260068   0.359   5.034   0.181  0.2712  0.3399  0.1662
12885TIP3   OH260069   6.672   0.726   2.459 -0.2838 -0.1372  0.4549
12885TIP3    H160070   6.730   0.703   2.387  2.6250  0.4358  2.4348
12885TIP3    H260071   6.653   0.819   2.446  1.3455  0.3092  1.0840
12886TIP3   OH260072   1.909   5.820  15.232 -0.4446 -0.4191 -0.1147
12886TIP3    H160073   1.867   5.790  15.313 -0.0658  0.5513  0.4475
12886TIP3    H260074   1.872   5.763  15.164  0.0150 -1.9438  0.8711
12887TIP3   OH260075   1.740   4.612  15.702 -0.0596  0.4440  0.1930
12887TIP3    H160076   1.646   4.603  15.686 -0.4789  0.3922  2.3848
12887TIP3    H260077   1.750   4.592  15.795  1.8738  2.1991  0.4286
12888TIP3   OH260078   1.156   3.596  14.924 -0.1734  0.5306  0.0582
12888TIP3    H160079   1.154   3.646  14.842  2.6980 -0.0474 -0.4825
12888TIP3    H260080   1.121   3.510  14.900 -2.7332  1.4106  0.3817
12889TIP3   OH260081   0.784   6.027   3.148 -0.3132  0.0781 -0.1300
12889TIP3    H160082   0.692   6.005   3.137  0.2502 -2.4518 -0.3110
12889TIP3    H260083   0.812   5.977   3.225  0.5103  2.2762  1.1022
12890TIP3   OH260084   6.685   4.159  16.822  0.3251  0.2298 -0.0380
12890TIP3    H160085   6.595   4.191  16.818  0.7159  1.3404 -0.3258
12890TIP3    H260086   6.713   4.180  16.911  0.5866  0.7351 -0.2328
12891TIP3   OH260087   3.174   1.898  16.194 -0.3267 -0.2843 -0.1264
12891TIP3    H160088   3.172   1.991  16.217 -1.7636  0.0944 -1.6087
12891TIP3    H260089   3.205   1.854  16.273  1.4502  1.5413  0.2739
12892TIP3   OH260090   3.467   3.133  16.323  0.3017  0.0654 -0.1684
12892TIP3    H160091   3.424   3.184  16.392 -0.9583  1.3365 -1.7967
12892TIP3    H260092   3.551   3.176  16.310 -0.6426  1.6580 -1.3416
12893TIP3   OH260093   0.058   3.275  16.205  0.1818 -0.0351 -0.0909
12893TIP3    H160094   0.086   3.190  16.238  0.6661  0.4911  0.8982
12893TIP3    H260095   0.132   3.306  16.153  0.2980  0.0921  0.1470
12894TIP3   OH260096   4.405   0.375  16.070  0.0753  0.4334 -0.1212
12894TIP3    H160097   4.480   0.399  16.124  0.6733 -0.8210 -0.3630
12894TIP3    H260098   4.438   0.378  15.980 -0.1029 -0.3194 -0.2153
12895TIP3   OH260099   3.840   4.311  12.007 -0.3108  0.6772 -0.3631
12895TIP3    H160100   3.803   4.225  11.984  0.6678 -0.8084  2.9980
12895TIP3    H260101   3.767   4.359  12.045 -0.5043  0.7255 -0.7906
12896TIP3   OH260102   0.228   1.462   0.887 -0.2395  0.3771  0.0574
12896TIP3    H160103   0.158   1.485   0.948 -0.7081 -0.7369 -0.0495
12896TIP3    H260104   0.197   1.494   0.803 -1.4578 -1.6034 -0.3208
12897TIP3   OH260105   1.539   1.912  13.671 -0.0913  0.4298 -0.3378
12897TIP3    H160106   1.497   1.898  13.586 -0.0447 -1.2828 -0.1231
12897TIP3    H260107   1.476   1.878  13.735  0.5317  0.2220  0.1805
12898TIP3   OH260108   5.272   2.944  17.058 -0.0360  0.1290  0.1428
12898TIP3    H160109   5.234   2.856  17.067 -0.0056 -0.0170 -1.0454
12898TIP3    H260110   5.322   2.940  16.977  0.4419  1.0833  0.3865
12899TIP3   OH260111   5.567   3.591  14.721  0.1992  0.6800  0.2451
12899TIP3    H160112   5.645   3.577  14.774  0.8484  0.5883 -0.6951
12899TIP3    H260113   5.597   3.578  14.631 -0.8631  0.8311 -0.1484
12900TIP3   OH260114   2.856   5.703   5.595  0.5086 -0.0619  0.1246
12900TIP3    H160115   2.905   5.643   5.539 -0.2700  0.4076 -1.1080
12900TIP3    H260116   2.923   5.758   5.635  1.2804 -1.9566  1.5963
12901TIP3   OH260117   1.913   2.887  10.602 -0.3309  0.0317  0.3224
12901TIP3    H160118   1.941   2.796  10.590 -0.4383  0.2748 -2.2364
12901TIP3    H260119   1.989   2.930  10.642  2.1110  0.0147 -3.7470
12902TIP3   OH260120   2.266   0.652   1.101 -0.4157 -0.8182  0.0054
12902TIP3    H160121   2.348   0.699   1.112  0.9531 -2.8072 -1.1927
12902TIP3    H260122   2.238   0.630   1.190 -0.2119  0.7091  0.4739
12903TIP3   OH260123   2.935   1.433  12.350  0.2176  1.1818 -0.1664
12903TIP3    H160124   2.891   1.351  12.329  0.3779  1.4195 -1.5199
12903TIP3    H260125   3.023   1.406  12.377  0.4328  0.9192 -1.0901
12904TIP3   OH260126   5.501   6.615  14.003  0.0179 -0.3452  0.7501
12904TIP3    H160127   5.491   6.681  13.934  2.2566 -1.5380 -0.8417
12904TIP3    H260128   5.540   6.663  14.076 -0.2432  0.4868  0.3525
12905TIP3   OH260129   1.566   2.866  14.959  0.0310  0.3207  0.6840
12905TIP3    H160130   1.580   2.959  14.972  0.0488  0.5754 -0.9452
12905TIP3    H260131   1.643   2.836  14.911 -0.5241 -0.2681  0.1282
12906TIP3   OH260132   1.255   6.236  14.862 -0.5518  0.1276  0.1874
12906TIP3    H160133   1.314   6.230  14.937 -1.2204 -1.1394  0.6334
12906TIP3    H260134   1.312   6.262  14.789  0.1133  1.3117  1.0907
12907TIP3   OH260135   3.388   5.825  13.232 -0.9149 -0.3330  0.0676
12907TIP3    H160136   3.338   5.902  13.207 -2.5263 -1.3957 -0.1106
12907TIP3    H260137   3.323   5.764  13.268  0.3129 -1.5801  0.2843
12908TIP3   OH260138   5.340   4.729  15.110 -0.6584 -0.3629 -0.0097
12908TIP3    H160139   5.400   4.670  15.064 -0.2080  0.5023 -0.5699
12908TIP3    H260140   5.341   4.699  15.200 -0.1680 -0.9946 -0.2167
12909TIP3   OH260141   6.567   5.738  12.395  0.1760 -0.3167 -0.2999
12909TIP3    H160142   6.648   5.782  12.371  0.9448 -3.0665 -3.4079
12909TIP3    H260143   6.535   5.787  12.472  3.5669  2.1988 -0.2684
12910TIP3   OH260144   5.044   3.078   2.225  0.2099  0.1958 -0.0766
12910TIP3    H160145   5.120   3.021   2.238 -1.0679 -1.1699  2.2309
12910TIP3    H260146   5.080   3.165   2.214  2.1448 -0.6191 -0.5307
12911TIP3   OH260147   0.787   5.469  13.969 -0.3754  0.2112  0.0891
12911TIP3    H160148   0.834   5.511  14.041 -0.8092  0.1448  0.4160
12911TIP3    H260149   0.703   5.443  14.007  0.6159 -2.7585  0.4773
12912TIP3   OH260150   2.941   5.244   4.001  0.2422  0.0391  0.5610
12912TIP3    H160151   2.849   5.219   3.991 -0.0622  0.2482  2.5364
12912TIP3    H260152   2.971   5.259   3.911 -1.4374 -0.7502 -0.1792
12913TIP3   OH260153   0.993   0.839   3.315  0.1454 -0.5644 -0.1450
12913TIP3    H160154   0.983   0.792   3.232 -0.1290 -0.0101 -0.4341
12913TIP3    H260155   1.033   0.923   3.290 -1.5257  0.3296  0.0342
12914TIP3   OH260156   0.155   2.639  13.705 -0.0794  1.4492 -0.4706
12914TIP3    H160157   0.139   2.691  13.626 -2.0083 -0.8719 -1.7273
12914TIP3    H260158   0.199   2.560  13.674  1.1313  1.4336  1.1334
12915TIP3   OH260159   2.039   5.976   5.791 -0.0023  0.2695  0.5786
12915TIP3    H160160   2.046   6.070   5.805  1.2666  0.0989  1.2279
12915TIP3    H260161   2.075   5.962   5.704  1.7701  0.1684  1.2981
12916TIP3   OH260162   5.291   2.766  16.334 -0.5203 -0.1330 -0.2025
12916TIP3    H160163   5.286   2.687  16.389 -2.7037  0.7132  0.9419
12916TIP3    H260164   5.207   2.809  16.347 -0.2522  1.2587 -2.5636
12917TIP3   OH260165   2.012   4.405   4.393  0.5274 -0.1167  0.2900
12917TIP3    H160166   2.058   4.333   4.351  0.8054  0.3506 -0.2223
12917TIP3    H260167   2.047   4.484   4.351  0.1540  0.3126  0.7648
12918TIP3   OH260168   0.301   5.869   0.728  0.1647 -0.1976 -0.1080
12918TIP3    H160169   0.245   5.944   0.709 -0.4072 -0.5588  0.1400
12918TIP3    H260170   0.294   5.857   0.823  1.1834  0.1571  0.0253
12919TIP3   OH260171   0.948   2.118   5.674  0.3901 -0.3790 -0.1489
12919TIP3    H160172   0.862   2.077   5.682  0.8336 -1.4911 -0.7687
12919TIP3    H260173   1.008   2.053   5.712  0.9289  0.4994  0.5223
12920TIP3   OH260174   1.364   1.238   1.819  0.1307 -0.0912  0.3346
12920TIP3    H160175   1.459   1.232   1.823  0.2796  1.5063 -0.3089
12920TIP3    H260176   1.343   1.223   1.727 -0.2583 -0.5304  0.4898
12921TIP3   OH260177   5.370   3.791   3.094  0.8641 -0.2578 -0.2290
12921TIP3    H160178   5.449   3.754   3.134  1.3316  1.1059  0.1650
12921TIP3    H260179   5.394   3.808   3.003  1.2437  0.6910  0.0312
12922TIP3   OH260180   5.044   1.193  16.119  0.0935  0.9572  0.0513
12922TIP3    H160181   5.083   1.162  16.038 -1.5369  0.4734 -0.5887
12922TIP3    H260182   5.044   1.117  16.177 -1.6131  0.3971 -0.6356
12923TIP3   OH260183   1.761   0.151  12.335 -0.0958  0.1653  0.0741
12923TIP3    H160184   1.845   0.113  12.359 -0.3672 -1.7174 -1.5778
12923TIP3    H260185   1.752   0.131  12.242 -1.1530  2.8032 -0.4862
12924TIP3   OH260186   4.627   0.521   0.471  0.0481 -0.3781 -0.1550
12924TIP3    H160187   4.720   0.540   0.461  0.2689 -0.6795  1.1126
12924TIP3    H260188   4.584   0.567   0.399  1.1647 -0.1384 -0.6760
12925TIP3   OH260189   5.899   2.756   3.512 -0.6555  0.0429  0.2047
12925TIP3    H160190   5.969   2.761   3.446 -1.0581  0.7007 -0.1795
12925TIP3    H260191   5.909   2.669   3.550  0.9886  0.4672  0.8381
12926TIP3   OH260192   4.657   6.024   0.241  0.1254 -0.0032  0.2118
12926TIP3    H160193   4.574   6.007   0.285 -1.5194  1.8322 -1.9005
12926TIP3    H260194   4.664   6.120   0.238  1.9375 -0.1092 -0.3229
12927TIP3   OH260195   1.795   2.971  13.063  0.4301 -0.5006 -0.2154
12927TIP3    H160196   1.751   2.903  13.013 -0.7658 -0.0990  0.2630
12927TIP3    H260197   1.791   3.049  13.008  0.5460 -0.4582 -0.1651
12928TIP3   OH260198   1.081   3.488   5.393 -0.3454  0.1681  0.6760
12928TIP3    H160199   1.110   3.474   5.482 -0.1213 -0.6417  0.4858
12928TIP3    H260200   1.155   3.529   5.349  0.2724 -1.1932  0.3858
12929TIP3   OH260201   3.724   0.525   4.466 -0.0794 -1.0192 -0.2988
12929TIP3    H160202   3.719   0.598   4.405  1.1620 -1.0058 -0.4004
12929TIP3    H260203   3.633   0.495   4.475 -0.4334 -0.2512 -1.1956
12930TIP3   OH260204   2.424   0.344   6.431 -0.5647 -0.5145 -0.0467
12930TIP3    H160205   2.432   0.304   6.518 -2.0436 -2.5881 -0.7839
12930TIP3    H260206   2.352   0.406   6.440 -1.3907 -1.4533  0.0082
12931TIP3   OH260207   4.109   6.735  16.076  0.2346 -0.9427  0.1402
12931TIP3    H160208   4.050   6.736  16.151  1.9432 -0.8280  1.5423
12931TIP3    H260209   4.112   6.827  16.048 -2.2169 -1.2990 -1.6496
12932TIP3   OH260210   0.486   1.949   0.906  0.7770  0.0806  0.4320
12932TIP3    H160211   0.525   1.884   0.848 -0.5835 -2.0585  1.7775
12932TIP3    H260212   0.556   1.975   0.965  1.6422  0.7776 -0.8646
12933TIP3   OH260213   2.403   4.734   4.307  0.2234 -0.2428  0.2919
12933TIP3    H160214   2.360   4.701   4.386  0.1576  0.5084  0.5840
12933TIP3    H260215   2.331   4.772   4.255  0.2953 -0.5415 -0.0318
12934TIP3   OH260216   1.232   0.499   3.192  0.1275  0.1628  0.0849
12934TIP3    H160217   1.155   0.554   3.174 -0.4030 -0.7321 -0.4990
12934TIP3    H260218   1.292   0.520   3.120 -0.0668  0.0026 -0.1286
12935TIP3   OH260219   4.583   2.202   4.867 -0.0082 -0.3550  0.5671
12935TIP3    H160220   4.651   2.157   4.818 -1.1991 -0.9872 -0.5502
12935TIP3    H260221   4.606   2.187   4.959  1.8067  0.1715  0.2272
12936TIP3   OH260222   5.640   3.119   4.161 -0.2422 -0.0832 -0.2533
12936TIP3    H160223   5.641   3.026   4.183 -2.9379  0.0339  0.7212
12936TIP3    H260224   5.689   3.161   4.231  0.7062 -0.7128 -0.5202
12937TIP3   OH260225   1.214   2.635  14.656  0.4334  0.2926 -0.0185
12937TIP3    H160226   1.246   2.600  14.739  2.2619 -0.8345 -1.1180
12937TIP3    H260227   1.284   2.693  14.626 -0.6632  1.5068 -0.3040
12938TIP3   OH260228   0.516   4.021  16.674 -0.3227  0.0011 -0.3801
12938TIP3    H160229   0.588   3.964  16.647 -0.4431 -0.4929  0.3022
12938TIP3    H260230   0.558   4.087  16.729 -0.4052 -0.4032  0.1823
12939TIP3   OH260231   3.589   1.025  12.687  0.5302 -0.0534 -0.5011
12939TIP3    H160232   3.559   0.981  12.607  2.9846 -1.5337 -0.7200
12939TIP3    H260233   3.520   1.009  12.751 -0.6981 -0.3228 -1.8292
12940TIP3   OH260234   0.492   5.998   4.152 -0.5336 -0.1441 -0.7860
12940TIP3    H160235   0.553   5.994   4.226 -0.8335  0.6525 -0.4760
12940TIP3    H260236   0.429   6.065   4.178 -0.6740  0.1050 -1.7464
12941TIP3   OH260237   4.319   5.938  16.671  0.3214 -0.1523 -0.3283
12941TIP3    H160238   4.315   5.897  16.584 -1.9230 -0.8490  0.0440
12941TIP3    H260239   4.269   6.019  16.662 -1.9137 -1.3185  0.7982
12942TIP3   OH260240   3.826   2.378   5.939  0.5877  0.1554  0.3432
12942TIP3    H160241   3.897   2.360   5.877  0.7341  0.5996  0.3819
12942TIP3    H260242   3.778   2.295   5.945 -0.4088  0.5472 -1.6115
12943TIP3   OH260243   4.854   0.490   5.607 -0.3042  0.3195 -0.0775
12943TIP3    H160244   4.903   0.560   5.650 -1.0031  1.0418 -0.4428
12943TIP3    H260245   4.776   0.532   5.573 -1.2892 -0.8467  0.6530
12944TIP3   OH260246   0.869   4.149  15.828  0.0246 -0.5353 -0.0784
12944TIP3    H160247   0.921   4.090  15.882 -1.4267 -2.8040 -1.0367
12944TIP3    H260248   0.807   4.093  15.781 -0.6761  1.6156 -1.9748
12945TIP3   OH260249   2.328   0.995   2.055 -0.1736  0.4464  0.1985
12945TIP3    H160250   2.422   1.013   2.067 -0.2642 -0.3540  2.5996
12945TIP3    H260251   2.326   0.916   2.000  0.6219 -0.0360  0.8297
12946TIP3   OH260252   0.851   0.411  14.332 -0.2512 -0.2075  0.1285
12946TIP3    H160253   0.887   0.388  14.246  0.4945 -2.2147  0.9395
12946TIP3    H260254   0.892   0.494  14.354 -0.1467  0.1365 -1.2749
12947TIP3   OH260255   3.309   1.137   3.789  0.4252  0.2286 -0.1233
12947TIP3    H160256   3.222   1.147   3.828  0.9304 -0.9033  1.3710
12947TIP3    H260257   3.319   1.215   3.735 -1.3128  0.6352  0.0689
12948TIP3   OH260258   0.282   5.233   5.534 -0.9037  0.3649  0.4228
12948TIP3    H160259   0.275   5.284   5.615 -2.4890 -0.7304  1.0425
12948TIP3    H260260   0.289   5.142   5.564 -0.2443  0.0356 -0.6690
12949TIP3   OH260261   4.711   0.424  14.339 -0.0461  0.5255  0.9583
12949TIP3    H160262   4.765   0.495  14.372  0.8262  0.8134 -0.9378
12949TIP3    H260263   4.755   0.395  14.260 -3.6060  2.0945 -1.9082
12950TIP3   OH260264   6.691   5.046   4.646 -0.1919  0.3937 -0.5850
12950TIP3    H160265   6.782   5.066   4.668 -0.2079  0.1842 -0.3202
12950TIP3    H260266   6.660   5.124   4.600  0.5224 -0.0826 -1.9122
12951TIP3   OH260267   1.060   6.712  15.626  0.0002 -0.3645  0.2317
12951TIP3    H160268   1.101   6.703  15.540  0.6729 -2.0819  0.6917
12951TIP3    H260269   1.123   6.762  15.678  0.0443 -0.1963  0.0162
12952TIP3   OH260270   0.974   1.069  16.147 -0.0480  0.2065 -0.3924
12952TIP3    H160271   0.923   1.141  16.184  0.8701  0.5908  0.1494
12952TIP3    H260272   0.924   0.991  16.168  0.3906  0.4066  1.6442
12953TIP3   OH260273   3.403   5.265   3.799  0.2645  0.0036 -0.1720
12953TIP3    H160274   3.484   5.317   3.804  0.4041  0.5367 -4.1605
12953TIP3    H260275   3.432   5.179   3.770 -0.3687 -0.9963  2.0246
12954TIP3   OH260276   4.465   1.716  16.678  0.1688 -0.2238 -0.2599
12954TIP3    H160277   4.389   1.742  16.625 -0.4440  1.2186  1.2569
12954TIP3    H260278   4.493   1.796  16.722  1.9463 -0.9543  0.0203
12955TIP3   OH260279   5.992   4.150  14.453  0.0814 -0.2376  0.2217
12955TIP3    H160280   6.053   4.197  14.396  1.1711 -2.3435 -0.4432
12955TIP3    H260281   5.918   4.210  14.462  1.7280  1.9742  0.1803
12956TIP3   OH260282   0.954   0.560  13.608 -0.2544 -0.2070  0.0465
12956TIP3    H160283   0.928   0.505  13.682  0.5396 -0.0883  0.4286
12956TIP3    H260284   0.949   0.502  13.532 -3.1858  0.2370 -0.1988
12957TIP3   OH260285   3.830   1.350   3.238  0.2951 -0.0963 -0.5380
12957TIP3    H160286   3.758   1.346   3.300 -0.6519 -1.7065 -1.6590
12957TIP3    H260287   3.807   1.286   3.170  2.8228 -0.7713 -0.8644
12958TIP3   OH260288   0.204   5.737   0.125  0.1061 -0.0306 -0.5676
12958TIP3    H160289   0.232   5.768   0.212  0.3489 -0.9590 -0.3000
12958TIP3    H260290   0.109   5.733   0.131  0.1816 -1.4144  0.1472
12959TIP3   OH260291   3.831   4.559  17.187 -0.0231  0.4782 -0.6628
12959TIP3    H160292   3.818   4.496  17.258 -1.6729  0.2952 -1.0888
12959TIP3    H260293   3.782   4.636  17.214  0.0368  0.7099 -1.2067
12960TIP3   OH260294   6.627   4.174   1.477 -0.1562 -0.3650 -0.2690
12960TIP3    H160295   6.608   4.255   1.524  1.6248  0.5796 -1.0574
12960TIP3    H260296   6.702   4.136   1.523 -0.6218 -1.2849 -0.2447
12961TIP3   OH260297   3.041   5.520   1.438  0.5650 -0.2941  0.3673
12961TIP3    H160298   2.982   5.481   1.504 -1.4260 -0.9452 -1.6654
12961TIP3    H260299   3.104   5.450   1.419  0.1160 -0.7203  0.4025
12962TIP3   OH260300   3.642   3.221   5.047  0.2259  0.2004 -0.4555
12962TIP3    H160301   3.669   3.136   5.011  1.1092  0.1321  0.3416
12962TIP3    H260302   3.722   3.272   5.050  0.0322  0.4620  0.6987
12963TIP3   OH260303   5.938   2.754  15.291  0.0123  0.5267  0.3273
12963TIP3    H160304   5.980   2.672  15.318  0.2423  0.1842 -0.9609
12963TIP3    H260305   5.875   2.773  15.360  2.1040  0.9421  2.2149
12964TIP3   OH260306   3.901   5.196   2.211 -0.3811 -0.4323 -0.2424
12964TIP3    H160307   3.944   5.195   2.126  0.3706 -0.4551  0.1360
12964TIP3    H260308   3.967   5.229   2.272  0.1560 -3.2689  0.8952
12965TIP3   OH260309   5.405   5.041   2.423  0.6699  0.3229  0.0551
12965TIP3    H160310   5.357   5.095   2.360 -1.4237  0.7143  1.8585
12965TIP3    H260311   5.497   5.054   2.400  0.0219  0.5904 -2.7332
12966TIP3   OH260312   4.710   1.732  15.468 -0.1599 -0.5344 -0.3300
12966TIP3    H160313   4.720   1.816  15.423  0.2468  0.7470  1.9617
12966TIP3    H260314   4.787   1.681  15.443  1.3063  1.0601  0.6626
12967TIP3   OH260315   2.648   0.778   0.645 -0.1384  0.6584  0.4116
12967TIP3    H160316   2.724   0.751   0.697 -0.5122  0.1994  0.7337
12967TIP3    H260317   2.579   0.790   0.710 -0.4740  0.5741  0.0712
12968TIP3   OH260318   1.889   0.616  16.962  0.2101  0.0681 -0.2599
12968TIP3    H160319   1.924   0.705  16.955 -0.3071  0.1994 -1.4850
12968TIP3    H260320   1.965   0.560  16.952  0.3423  0.3707 -1.0420
12969TIP3   OH260321   4.022   6.091  10.882 -0.5284  1.0200 -0.1878
12969TIP3    H160322   4.014   6.005  10.922 -0.7767  1.2010  0.1544
12969TIP3    H260323   4.095   6.083  10.821  1.8623  1.5493  2.4354
12970TIP3   OH260324   6.012   4.963   0.933 -0.0438 -0.0097  0.1476
12970TIP3    H160325   6.067   4.892   0.898 -1.9561 -0.4581 -2.1791
12970TIP3    H260326   5.980   4.928   1.016  1.4817 -0.5690  0.5463
12971TIP3   OH260327   0.445   2.127  14.652  0.4827 -0.0075  0.4345
12971TIP3    H160328   0.491   2.081  14.582 -0.2674 -0.9262  0.5257
12971TIP3    H260329   0.468   2.219  14.640  0.9810 -0.2512 -0.5394
12972TIP3   OH260330   3.095   1.351  16.526  0.4007 -0.7606  0.0743
12972TIP3    H160331   3.061   1.422  16.470  2.4593  0.7825  0.6339
12972TIP3    H260332   3.144   1.296  16.465 -1.9407 -2.3194 -0.5254
12973TIP3   OH260333   4.077   4.378  15.639 -0.4271  0.6026 -0.3024
12973TIP3    H160334   4.028   4.366  15.558  0.7470  1.1565 -1.1211
12973TIP3    H260335   4.056   4.301  15.692 -0.5245 -0.2091 -1.4911
12974TIP3   OH260336   5.551   1.711  11.195 -0.0683 -0.8295  0.0090
12974TIP3    H160337   5.501   1.782  11.233  0.3609  0.3297 -1.5136
12974TIP3    H260338   5.615   1.754  11.138  1.4804 -2.3393  0.5040
12975TIP3   OH260339   3.420   4.247  15.448 -0.0151 -0.0866 -0.2791
12975TIP3    H160340   3.491   4.311  15.442  0.0680 -0.1969 -0.4561
12975TIP3    H260341   3.461   4.169  15.484  0.0287 -0.2676 -0.7167
12976TIP3   OH260342   3.355   1.125   5.581 -0.1039  0.5190  0.4410
12976TIP3    H160343   3.417   1.064   5.621  1.5874  1.7380 -0.1917
12976TIP3    H260344   3.330   1.083   5.498 -1.1857 -0.5684  1.2791
12977TIP3   OH260345   2.249   4.646   3.138 -0.5064 -0.1129 -0.2631
12977TIP3    H160346   2.165   4.642   3.091 -1.2459  0.6061  0.9734
12977TIP3    H260347   2.232   4.603   3.221 -0.0217  1.2156  0.5455
12978TIP3   OH260348   3.256   2.298  16.687 -0.0764  0.0521  0.9104
12978TIP3    H160349   3.223   2.210  16.670 -2.6066  1.0787  0.0045
12978TIP3    H260350   3.288   2.295  16.777 -0.1342 -1.7540  0.9083
12979TIP3   OH260351   1.107   1.037   5.870  0.1414 -0.5703  0.6820
12979TIP3    H160352   1.114   0.944   5.892  2.4053 -0.4033  0.9276
12979TIP3    H260353   1.197   1.063   5.850 -0.7315  1.0687 -1.4905
12980TIP3   OH260354   0.492   5.620  13.133 -0.2464  0.7571 -0.7984
12980TIP3    H160355   0.407   5.662  13.148 -0.1589  0.8749 -0.6341
12980TIP3    H260356   0.477   5.528  13.154 -0.3484  0.7668 -0.8274
12981TIP3   OH260357   0.584   4.345  12.478 -0.7970  0.4023  0.0361
12981TIP3    H160358   0.551   4.363  12.390 -1.0770 -0.0496  0.0474
12981TIP3    H260359   0.506   4.322  12.528 -0.6003  0.3863  0.3344
12982TIP3   OH260360   3.767   5.265  17.173  0.4870 -0.1550 -0.0453
12982TIP3    H160361   3.822   5.286  17.098 -3.6561  3.3109 -2.5391
12982TIP3    H260362   3.807   5.186  17.210  4.4805 -0.4163 -4.0535
12983TIP3   OH260363   0.229   1.818  12.085 -0.3544 -0.1830  0.2573
12983TIP3    H160364   0.292   1.788  12.151  0.8507  0.7090 -0.4388
12983TIP3    H260365   0.239   1.756  12.012  1.7967  1.4897 -0.9885
12984TIP3   OH260366   6.658   6.420   1.285 -0.4983 -0.2497  0.2430
12984TIP3    H160367   6.640   6.430   1.191 -0.8135  1.7619  0.4606
12984TIP3    H260368   6.713   6.342   1.291  1.4277  0.7930 -1.9124
12985TIP3   OH260369   6.255   2.024  11.122 -0.3571 -1.0038  0.0036
12985TIP3    H160370   6.188   2.047  11.058  2.3588  1.5739 -2.2293
12985TIP3    H260371   6.311   1.961  11.077  0.8332 -0.1855  0.2838
12986TIP3   OH260372   5.809   1.410  13.624  0.1105 -0.0552 -0.0869
12986TIP3    H160373   5.881   1.414  13.687 -1.5222 -0.5582  1.9223
12986TIP3    H260374   5.809   1.319  13.592  1.6714  0.4902 -1.8125
12987TIP3   OH260375   2.402   6.644   6.506 -0.1046  0.4670  0.2825
12987TIP3    H160376   2.316   6.603   6.507 -0.1266  0.5122  0.7446
12987TIP3    H260377   2.390   6.725   6.555  0.1368  0.6105  0.1069
12988TIP3   OH260378   2.418   5.930  16.900 -0.0453 -0.0007  0.8460
12988TIP3    H160379   2.499   5.981  16.888 -0.9692  1.3699  0.1793
12988TIP3    H260380   2.423   5.862  16.833  0.5124  0.1340  0.7438
12989TIP3   OH260381   5.474   6.558   5.930  0.1300  0.8211 -0.2771
12989TIP3    H160382   5.457   6.593   6.017  1.1611  0.3209  0.1417
12989TIP3    H260383   5.388   6.534   5.897 -0.2382  0.6106  0.7869
12990TIP3   OH260384   6.533   5.826  12.660  0.5021  0.0275  0.3078
12990TIP3    H160385   6.452   5.877  12.669  0.1964  0.0790 -2.1002
12990TIP3    H260386   6.532   5.766  12.735 -0.4068  1.8161  1.7897
12991TIP3   OH260387   5.477   2.449   1.336 -0.4441 -0.0379 -0.0743
12991TIP3    H160388   5.504   2.359   1.353  0.4870  0.1345 -0.6045
12991TIP3    H260389   5.456   2.484   1.422  0.9172 -0.2260  0.3626
12992TIP3   OH260390   2.446   1.585  14.858  0.0585 -0.5332  0.0557
12992TIP3    H160391   2.456   1.638  14.779 -0.0183  0.1104  0.4776
12992TIP3    H260392   2.505   1.511  14.844  1.5512  0.5741  0.2509
12993TIP3   OH260393   6.458   5.361  16.524  0.5373 -0.4695  0.3879
12993TIP3    H160394   6.467   5.323  16.612 -0.1485 -1.1351  0.1759
12993TIP3    H260395   6.522   5.314  16.471 -0.0424 -1.0839  0.2142
12994TIP3   OH260396   4.831   6.230   2.623 -0.0651  0.2374 -0.0640
12994TIP3    H160397   4.858   6.187   2.541 -0.4291 -0.6921  0.2876
12994TIP3    H260398   4.836   6.160   2.688  2.7199  1.5198  1.2673
12995TIP3   OH260399   0.990   2.489   6.433  0.9196 -0.2140 -0.0694
12995TIP3    H160400   1.004   2.549   6.360  0.4014 -0.2967 -0.2382
12995TIP3    H260401   1.014   2.403   6.398 -4.8474 -1.4196 -2.2213
12996TIP3   OH260402   3.638   6.302   5.893  0.3637  0.2380 -0.4470
12996TIP3    H160403   3.728   6.329   5.871  0.0335  1.2144 -0.6350
12996TIP3    H260404   3.648   6.213   5.927  1.2654 -0.1473 -1.6383
12997TIP3   OH260405   1.212   0.924   0.355 -0.0999 -0.7103  0.0052
12997TIP3    H160406   1.230   0.851   0.414  0.3599 -1.1928 -0.7182
12997TIP3    H260407   1.223   0.888   0.268  1.8319  0.6019 -0.3778
12998TIP3   OH260408   5.413   5.460   1.078  0.4932  0.0267 -0.0068
12998TIP3    H160409   5.453   5.477   0.993 -0.6918  1.1012 -0.3890
12998TIP3    H260410   5.319   5.474   1.063  0.1986 -0.4008  1.3241
12999TIP3   OH260411   5.963   3.027  11.047 -0.1988  0.7202 -0.1952
12999TIP3    H160412   5.891   3.078  11.010 -0.1872  0.3314 -0.7582
12999TIP3    H260413   6.014   2.998  10.971  0.4831  0.8857  0.1884
13000TIP3   OH260414   4.536   5.138   3.475  0.0389 -0.0863 -0.4815
13000TIP3    H160415   4.497   5.062   3.433  0.3359 -1.4268  1.5336
13000TIP3    H260416   4.461   5.193   3.498 -0.2190 -0.0288 -1.4263
13001TIP3   OH260417   6.187   2.691  15.636 -0.6712 -0.1948  0.0489
13001TIP3    H160418   6.121   2.760  15.637 -1.7461 -1.1564  2.0023
13001TIP3    H260419   6.262   2.729  15.682 -0.9561 -0.0427  0.3915
13002TIP3   OH260420   5.428   5.629   3.323  0.5174 -0.5755 -0.3464
13002TIP3    H160421   5.407   5.577   3.401 -2.7227  0.1769 -0.5729
13002TIP3    H260422   5.514   5.667   3.343  1.0383 -2.5619  1.6440
13003TIP3   OH260423   1.943   4.212  13.218 -0.2583 -1.0620  0.1050
13003TIP3    H160424   1.939   4.136  13.277 -0.3822 -2.8948 -2.1016
13003TIP3    H260425   1.853   4.244  13.214 -0.5776 -1.9824 -0.3508
13004TIP3   OH260426   3.522   1.356   5.073  0.7066  0.0043 -0.8654
13004TIP3    H160427   3.517   1.283   5.134 -3.2320  0.9898  0.2539
13004TIP3    H260428   3.526   1.315   4.986 -0.8021 -1.5755 -0.2452
13005TIP3   OH260429   3.383   5.685  16.642 -0.0554 -0.4304  0.1057
13005TIP3    H160430   3.406   5.636  16.720  1.1048  0.7752  0.5463
13005TIP3    H260431   3.347   5.619  16.582 -0.5415 -1.4366  1.4611
13006TIP3   OH260432   3.655   1.549  14.032 -0.0512 -0.3059  0.6589
13006TIP3    H160433   3.608   1.466  14.037  0.0621 -0.3664  0.7281
13006TIP3    H260434   3.744   1.527  14.059  0.5636 -0.6243 -1.4481
13007TIP3   OH260435   2.716   1.522  16.488  0.2418  0.1614 -0.1310
13007TIP3    H160436   2.784   1.473  16.442 -0.7459 -0.9666 -0.4581
13007TIP3    H260437   2.705   1.602  16.436  3.0438  1.6257  1.3432
13008TIP3   OH260438   6.537   2.713  10.848  0.1427  0.4800  0.3764
13008TIP3    H160439   6.563   2.742  10.760 -0.9363 -0.7663 -0.4070
13008TIP3    H260440   6.619   2.686  10.890  0.4247 -1.9313 -1.4662
13009TIP3   OH260441   0.830   4.408   4.145 -0.2734 -0.2938  0.6119
13009TIP3    H160442   0.842   4.355   4.066 -1.5249  2.1674 -1.3800
13009TIP3    H260443   0.738   4.394   4.168 -1.1905  2.2630 -1.0748
13010TIP3   OH260444   4.222   6.768  15.657 -0.4079 -0.1249 -0.2500
13010TIP3    H160445   4.251   6.722  15.578  1.1255  0.7424 -0.2101
13010TIP3    H260446   4.260   6.717  15.729 -1.3549 -0.6005 -0.0699
13011TIP3   OH260447   6.590   0.624   1.305 -0.3079 -0.3722  0.2508
13011TIP3    H160448   6.652   0.567   1.260 -0.8759  0.6822 -2.0226
13011TIP3    H260449   6.643   0.700   1.332 -0.3960  0.0745 -0.7989
13012TIP3   OH260450   0.210   0.388   3.007 -0.0619 -0.2713  0.4591
13012TIP3    H160451   0.138   0.443   2.976 -0.1300  0.0308  1.1352
13012TIP3    H260452   0.277   0.450   3.035 -0.0924 -0.5292  1.1192
13013TIP3   OH260453   5.584   4.227   5.975  0.4156  0.4195 -0.3728
13013TIP3    H160454   5.605   4.188   6.060  0.3133 -0.6655 -0.8288
13013TIP3    H260455   5.516   4.291   5.994 -1.2244 -1.3861  0.0797
13014TIP3   OH260456   3.204   4.280  16.658 -0.5138 -0.2769 -0.0901
13014TIP3    H160457   3.279   4.223  16.674 -0.3602 -0.3917 -1.1777
13014TIP3    H260458   3.129   4.221  16.658 -0.4688 -0.3331 -0.2259
13015TIP3   OH260459   5.578   0.037  14.215 -0.4070 -0.2885 -0.4006
13015TIP3    H160460   5.493   0.007  14.247 -0.0089 -1.1750 -0.1368
13015TIP3    H260461   5.640   0.004  14.279  0.2037 -0.2372 -0.9575
13016TIP3   OH260462   6.175   3.321   2.052  0.0574 -0.2898  0.3626
13016TIP3    H160463   6.260   3.279   2.052 -0.2260 -0.8767  0.1685
13016TIP3    H260464   6.113   3.250   2.068 -0.5150 -0.1451 -1.0796
13017TIP3   OH260465   4.077   4.574  16.109 -0.0635  0.0949 -0.5150
13017TIP3    H160466   4.055   4.548  16.019  0.2075  1.6766 -1.0555
13017TIP3    H260467   4.066   4.493  16.159  0.5189 -1.0181 -2.0837
13018TIP3   OH260468   1.841   5.479   6.238 -0.9782  0.0611  0.6589
13018TIP3    H160469   1.755   5.512   6.213 -1.4675 -0.2271  1.9156
13018TIP3    H260470   1.823   5.398   6.286  0.1960 -3.1234 -3.6399
13019TIP3   OH260471   2.494   4.831   0.606  0.2465  0.1774  0.0149
13019TIP3    H160472   2.529   4.749   0.570  0.3715  1.4470 -3.0178
13019TIP3    H260473   2.404   4.833   0.574  0.8506  2.1273 -1.7580
13020TIP3   OH260474   0.826   6.667   3.300 -0.1660  0.5486 -0.0195
13020TIP3    H160475   0.854   6.578   3.324 -0.6035  0.7903  1.4480
13020TIP3    H260476   0.733   6.669   3.321 -0.3381  1.1241 -0.7887
13021TIP3   OH260477   0.095   3.713   1.022  0.9565  0.5017  0.3823
13021TIP3    H160478   0.066   3.800   0.993 -1.8988 -0.8983 -1.4143
13021TIP3    H260479   0.164   3.689   0.960 -0.6653  0.1771 -1.4218
13022TIP3   OH260480   5.970   5.791   4.653  0.5004  0.1529  0.3919
13022TIP3    H160481   6.041   5.808   4.592 -0.7530  0.4683 -1.0595
13022TIP3    H260482   6.010   5.795   4.740  2.1207  0.8598 -0.3592
13023TIP3   OH260483   6.541   4.164  12.588  0.6612  0.2236  0.2464
13023TIP3    H160484   6.480   4.227  12.627  1.6491  0.8296  0.8788
13023TIP3    H260485   6.549   4.095  12.655  0.0915 -0.2455 -0.1623
13024TIP3   OH260486   2.971   4.774  12.854  0.0943 -0.1824 -0.0036
13024TIP3    H160487   2.954   4.775  12.759 -1.9124 -0.5905  0.3011
13024TIP3    H260488   2.884   4.779  12.893  0.9744  1.3489  1.8568
13025TIP3   OH260489   5.865   5.603   3.977  0.4240 -0.1978 -0.2599
13025TIP3    H160490   5.782   5.561   3.951  0.9003  0.4042 -3.1203
13025TIP3    H260491   5.846   5.697   3.973  1.3336 -0.0379 -1.5377
13026TIP3   OH260492   3.865   2.842  12.458 -0.0501 -0.4423  0.7583
13026TIP3    H160493   3.937   2.785  12.429 -0.5701 -1.4274  1.3600
13026TIP3    H260494   3.802   2.839  12.385 -0.2948 -1.0346  0.9893
13027TIP3   OH260495   2.468   2.247   0.640 -0.2719 -0.3071  0.4697
13027TIP3    H160496   2.377   2.220   0.622 -0.8979  0.4549  2.2879
13027TIP3    H260497   2.462   2.299   0.720  1.6684  0.5449  0.0965
13028TIP3   OH260498   4.808   2.043   1.295  0.2635  0.4428 -0.3365
13028TIP3    H160499   4.771   2.099   1.363  0.2189 -0.8141  0.7133
13028TIP3    H260500   4.865   1.982   1.343  0.9208  0.0988 -1.5287
13029TIP3   OH260501   5.961   5.185  15.954 -0.0298  0.6682 -0.0141
13029TIP3    H160502   5.973   5.269  15.997 -0.8769  1.5517 -1.4342
13029TIP3    H260503   5.893   5.141  16.006  1.9969 -0.1725  2.0984
13030TIP3   OH260504   0.247   5.951   4.539  0.5305  0.4384 -0.2652
13030TIP3    H160505   0.314   5.990   4.596  0.9604 -0.2905 -0.2573
13030TIP3    H260506   0.176   5.926   4.598 -0.1447  1.9938 -0.3777
13031TIP3   OH260507   5.664   1.764  14.413 -0.5556 -0.3396 -0.3875
13031TIP3    H160508   5.621   1.848  14.396  1.4953  0.8511  0.0544
13031TIP3    H260509   5.721   1.750  14.338  2.1741  0.7632  1.3244
13032TIP3   OH260510   2.202   4.093  13.315 -0.6682 -0.7413  0.0057
13032TIP3    H160511   2.256   4.167  13.290  0.6905 -2.1517 -1.5009
13032TIP3    H260512   2.114   4.115  13.284 -0.7171  0.9820  1.2472
13033TIP3   OH260513   0.230   4.686  14.031 -0.4793  0.4462 -0.0803
13033TIP3    H160514   0.162   4.662  14.094  1.7257 -0.3644  2.1288
13033TIP3    H260515   0.243   4.606  13.979 -1.4255  0.7299 -0.7923
13034TIP3   OH260516   3.925   5.209   0.546  0.0219 -0.4019  0.3393
13034TIP3    H160517   4.008   5.244   0.577  1.1765 -2.0103 -0.7848
13034TIP3    H260518   3.869   5.286   0.536  1.8920  0.9332 -0.4329
13035TIP3   OH260519   2.443   0.232   2.275 -0.5595  0.6806 -0.2409
13035TIP3    H160520   2.430   0.287   2.352  0.4624  0.1288  0.3447
13035TIP3    H260521   2.415   0.145   2.303 -1.1437  0.6687 -0.8262
13036TIP3   OH260522   5.212   6.499   1.897 -0.2211  0.0555 -0.1420
13036TIP3    H160523   5.193   6.554   1.821 -1.4162  0.2915  0.3021
13036TIP3    H260524   5.159   6.537   1.967 -1.3479 -1.8386  0.1060
13037TIP3   OH260525   0.244   6.405   2.300 -0.0582  0.5570 -0.0263
13037TIP3    H160526   0.245   6.320   2.344  0.5474  0.6946  0.2331
13037TIP3    H260527   0.275   6.467   2.367  0.9664  0.7536 -0.6677
13038TIP3   OH260528   0.636   3.561  14.168  0.0423 -0.4611  0.0933
13038TIP3    H160529   0.659   3.552  14.075 -1.5159 -2.3626 -0.1988
13038TIP3    H260530   0.541   3.577  14.167  0.2696  1.2231  1.3429
13039TIP3   OH260531   1.145   4.249   6.174  0.7787  0.2873  0.0392
13039TIP3    H160532   1.079   4.223   6.109  0.7955 -0.2848  0.2540
13039TIP3    H260533   1.127   4.342   6.190 -1.0805 -0.2580  1.3768
13040TIP3   OH260534   2.776   6.408   2.322 -0.0017  0.3474  0.1699
13040TIP3    H160535   2.799   6.501   2.332 -1.6163  0.5735  2.5213
13040TIP3    H260536   2.691   6.409   2.279 -1.4216  0.1958  2.7817
13041TIP3   OH260537   3.376   3.886  17.070 -0.3497  0.1643  0.3517
13041TIP3    H160538   3.454   3.839  17.099 -0.9182 -1.1064 -0.1181
13041TIP3    H260539   3.397   3.978  17.084  1.1849 -0.1644  0.3446
13042TIP3   OH260540   5.003   2.943  11.501  0.1470 -0.3547  0.0358
13042TIP3    H160541   4.923   2.935  11.449  0.6267 -0.9872 -0.6366
13042TIP3    H260542   5.022   3.036  11.503  0.4655 -0.3632 -1.4905
13043TIP3   OH260543   6.572   1.920   4.628  0.4613 -0.1867  0.1073
13043TIP3    H160544   6.662   1.918   4.594  1.1146 -0.1823  1.7418
13043TIP3    H260545   6.538   1.832   4.611  0.9235 -0.3263 -0.1210
13044TIP3   OH260546   1.282   5.238  11.158 -0.3591 -0.5743  0.5329
13044TIP3    H160547   1.345   5.308  11.144 -1.1039  0.3887  1.7319
13044TIP3    H260548   1.311   5.167  11.101  1.1813  0.2177  0.2878
13045TIP3   OH260549   3.467   5.728   2.218 -0.5483  0.4629 -0.0043
13045TIP3    H160550   3.419   5.659   2.263 -0.7062  0.4682 -0.1620
13045TIP3    H260551   3.544   5.684   2.182 -1.4219  0.0294 -1.4283
13046TIP3   OH260552   3.764   5.505   0.834  0.2078 -0.1672 -0.1665
13046TIP3    H160553   3.723   5.473   0.915 -0.9802 -1.9246 -1.3711
13046TIP3    H260554   3.850   5.463   0.833  1.6898  2.5639  1.7748
13047TIP3   OH260555   0.751   1.237  14.076 -0.4228 -0.3308 -0.2082
13047TIP3    H160556   0.685   1.245  14.144  1.6030  0.3775  1.7874
13047TIP3    H260557   0.783   1.327  14.062  1.9980 -0.9161  0.9452
13048TIP3   OH260558   5.004   5.423   5.656 -0.5796  0.1098 -0.5406
13048TIP3    H160559   4.975   5.422   5.564 -1.0901  1.3987 -0.4209
13048TIP3    H260560   5.094   5.392   5.653 -1.3614 -2.2855 -1.1624
13049TIP3   OH260561   1.774   5.961   1.454 -0.0197  0.4266  0.7288
13049TIP3    H160562   1.733   5.943   1.538  0.5316 -0.2024  0.8683
13049TIP3    H260563   1.825   5.882   1.434 -1.3403 -0.0827 -0.9232
13050TIP3   OH260564   0.525   4.030   6.502 -0.6813  1.0518 -0.3291
13050TIP3    H160565   0.606   4.039   6.551 -0.0287  1.8944 -1.5113
13050TIP3    H260566   0.462   4.086   6.548 -0.5063  0.6559  0.3959
13051TIP3   OH260567   5.563   3.691  16.493  0.2072 -0.5958 -0.4368
13051TIP3    H160568   5.581   3.709  16.401 -0.7327 -1.7008 -0.8580
13051TIP3    H260569   5.492   3.750  16.516  1.4966  0.8343  0.0721
13052TIP3   OH260570   4.225   6.315   3.460  0.0468  0.6555 -0.1259
13052TIP3    H160571   4.236   6.269   3.377  2.6703  0.6048  0.1800
13052TIP3    H260572   4.287   6.387   3.457  1.3595 -0.2427  2.3509
13053TIP3   OH260573   5.158   2.605   5.802 -0.0368  0.0172  0.1943
13053TIP3    H160574   5.216   2.597   5.877 -1.9978  0.6336  1.8662
13053TIP3    H260575   5.109   2.523   5.799 -0.5641  0.3289  0.1142
13054TIP3   OH260576   0.076   3.817  11.010 -0.3495 -0.0788  0.2489
13054TIP3    H160577   0.071   3.749  11.076  2.0264 -0.4036  0.1902
13054TIP3    H260578   0.147   3.874  11.040 -1.1080  1.3772 -0.6064
13055TIP3   OH260579   5.931   3.299  14.780 -0.4379  0.1002 -0.2179
13055TIP3    H160580   6.025   3.314  14.772 -0.2532 -1.6661 -2.4731
13055TIP3    H260581   5.894   3.386  14.792  1.4706  0.8040  1.3025
13056TIP3   OH260582   1.474   5.009   0.366 -0.3037  0.3005  0.2684
13056TIP3    H160583   1.384   4.992   0.395 -0.7339  0.9086 -0.6618
13056TIP3    H260584   1.465   5.075   0.297  0.8457  0.2572  0.0576
13057TIP3   OH260585   5.191   3.295   1.623 -0.0622  0.2083  0.3180
13057TIP3    H160586   5.275   3.303   1.667  0.5924 -0.2146 -0.8231
13057TIP3    H260587   5.205   3.332   1.536 -1.9935  3.3716  1.1812
13058TIP3   OH260588   3.299   4.621  16.297  0.0814  0.2007  0.1234
13058TIP3    H160589   3.277   4.609  16.205 -1.5505 -1.4020  0.6596
13058TIP3    H260590   3.229   4.675  16.332 -0.3330 -0.7480  0.7981
13059TIP3   OH260591   3.266   0.332  12.997  0.3390  0.6377 -0.2578
13059TIP3    H160592   3.299   0.260  13.050 -1.1556  1.0804  1.3563
13059TIP3    H260593   3.172   0.316  12.990  0.0975  2.0312 -0.4819
13060TIP3   OH260594   6.249   4.346   4.333  0.4753  0.2680  0.5344
13060TIP3    H160595   6.312   4.417   4.344  0.3772  0.3794  0.3749
13060TIP3    H260596   6.165   4.384   4.358  0.5550 -0.0436  1.3070
13061TIP3   OH260597   0.137   2.549   3.653 -0.2815  0.3246 -0.2557
13061TIP3    H160598   0.170   2.637   3.636  0.9124  0.7075  3.3548
13061TIP3    H260599   0.048   2.562   3.685 -0.0265  0.2331  0.4930
13062TIP3   OH260600   5.789   1.786  16.086  0.0652 -0.6363 -0.3590
13062TIP3    H160601   5.777   1.848  16.014  1.0248 -0.7720 -0.6558
13062TIP3    H260602   5.884   1.777  16.094 -0.0329 -0.7547  0.8230
13063TIP3   OH260603   0.352   5.326   2.397 -0.0614  0.1304  0.6001
13063TIP3    H160604   0.429   5.269   2.387 -0.0735  0.2371 -0.0990
13063TIP3    H260605   0.382   5.412   2.368  0.2782  0.7675  2.6576
13064TIP3   OH260606   4.639   1.654   1.034  0.3027  0.2814 -0.1538
13064TIP3    H160607   4.556   1.677   1.077 -0.2659 -1.2078 -0.3954
13064TIP3    H260608   4.669   1.736   0.996 -1.1566  0.8388 -0.1993
13065TIP3   OH260609   5.005   5.580   6.128 -0.2349 -0.1070  0.2260
13065TIP3    H160610   5.028   5.635   6.203 -1.2147 -0.2341  0.6362
13065TIP3    H260611   5.063   5.610   6.057  0.2809  0.4202  0.8619
13066TIP3   OH260612   0.974   2.654  13.722  0.3299  0.0624 -0.5592
13066TIP3    H160613   0.995   2.581  13.663  0.3265  0.3625 -0.9352
13066TIP3    H260614   0.906   2.619  13.779 -0.4385  0.1078 -1.4313
13067TIP3   OH260615   4.645   6.744  11.331  1.1081  0.2918 -0.1256
13067TIP3    H160616   4.731   6.736  11.290  0.6178  1.2166 -1.4049
13067TIP3    H260617   4.594   6.672  11.295  0.4378  1.5542 -1.8782
13068TIP3   OH260618   0.725   1.503   3.787 -0.0607  0.3906  0.2776
13068TIP3    H160619   0.733   1.492   3.882  0.5960 -1.6542  0.0311
13068TIP3    H260620   0.787   1.572   3.766 -0.8729  1.5279  1.4153
13069TIP3   OH260621   1.959   0.678  13.957  0.4164 -0.6375  0.5298
13069TIP3    H160622   1.987   0.615  14.024  0.9973  0.3100  1.2181
13069TIP3    H260623   1.866   0.689  13.972  0.8671  1.0974  2.6090
13070TIP3   OH260624   3.503   0.578   1.639 -0.0105  0.4994 -0.2297
13070TIP3    H160625   3.511   0.493   1.597  1.5387  1.1331 -1.3216
13070TIP3    H260626   3.455   0.561   1.720  0.6485 -1.4625 -0.2071
13071TIP3   OH260627   1.807   0.393  12.868  0.1798  0.0737  0.1151
13071TIP3    H160628   1.842   0.481  12.854 -1.7194  0.7834 -0.4981
13071TIP3    H260629   1.731   0.389  12.810  1.8512 -3.0482 -2.1820
13072TIP3   OH260630   0.918   2.122  13.367  0.3840 -0.1684 -0.0919
13072TIP3    H160631   0.951   2.032  13.369  1.4782  0.1313 -1.9256
13072TIP3    H260632   0.960   2.161  13.290 -0.4390  1.7760  0.3817
13073TIP3   OH260633   4.553   0.117   4.991  0.5097 -0.0060  0.5182
13073TIP3    H160634   4.492   0.189   5.006  1.6449  0.7449  1.7979
13073TIP3    H260635   4.612   0.150   4.924  0.0624 -0.3787 -0.0615
13074TIP3   OH260636   3.625   2.716  14.164 -0.0884 -0.0184  0.7570
13074TIP3    H160637   3.688   2.704  14.092  1.1184  3.4707  0.9990
13074TIP3    H260638   3.634   2.638  14.218  1.1620 -1.3970 -1.3060
13075TIP3   OH260639   6.448   2.245   3.783  0.5046  0.2763  0.3587
13075TIP3    H160640   6.512   2.284   3.723 -1.4525  1.1320 -1.3214
13075TIP3    H260641   6.403   2.320   3.823  0.0944 -0.2856  0.9785
13076TIP3   OH260642   2.748   3.962   3.984  0.1839  0.2642 -0.1797
13076TIP3    H160643   2.681   3.987   4.048 -0.0732  2.6561 -1.2964
13076TIP3    H260644   2.830   3.972   4.032 -0.1292 -1.8410  0.9278
13077TIP3   OH260645   0.393   0.127   4.791 -0.3624 -0.3895 -0.0563
13077TIP3    H160646   0.372   0.179   4.714 -1.4118 -0.8808 -0.1228
13077TIP3    H260647   0.310   0.116   4.837  0.0967 -0.7979  0.7141
13078TIP3   OH260648   1.582   3.198  14.615 -0.0211  0.1869  0.2334
13078TIP3    H160649   1.503   3.146  14.607  0.3557 -0.2139 -1.0372
13078TIP3    H260650   1.557   3.285  14.581  0.0231  0.1237  0.0388
13079TIP3   OH260651   3.969   2.774   2.667  0.2884 -0.7317  0.0207
13079TIP3    H160652   4.064   2.778   2.678  0.3024  1.3857 -0.4461
13079TIP3    H260653   3.940   2.865   2.676 -1.5718 -1.1959 -0.8485
13080TIP3   OH260654   3.605   2.299  11.274  0.0871  0.4599  0.4297
13080TIP3    H160655   3.583   2.391  11.288  1.0188  0.7000  0.3769
13080TIP3    H260656   3.556   2.274  11.195 -0.6978  0.7137  0.8329
13081TIP3   OH260657   5.435   5.707   1.965 -0.1716 -0.2995 -0.1328
13081TIP3    H160658   5.360   5.747   1.921  1.1962  1.5958 -0.8834
13081TIP3    H260659   5.440   5.754   2.049  1.2375  0.9790 -0.8748
13082TIP3   OH260660   6.229   2.484   1.560 -0.3491 -0.3718  0.6875
13082TIP3    H160661   6.183   2.501   1.478 -0.3800 -2.8050  0.1463
13082TIP3    H260662   6.307   2.539   1.555 -1.1721  0.7819 -0.1731
13083TIP3   OH260663   0.974   5.358  14.806  0.2762 -0.2538  0.1935
13083TIP3    H160664   0.900   5.381  14.751  0.9332  0.5266 -0.3943
13083TIP3    H260665   1.051   5.384  14.756  1.0653 -2.7450 -0.0050
13084TIP3   OH260666   5.924   1.376  15.556 -0.4994 -0.1243 -0.5589
13084TIP3    H160667   5.851   1.437  15.566 -0.0301  0.2907  0.3771
13084TIP3    H260668   5.902   1.325  15.478 -1.7952 -0.0157 -0.2772
13085TIP3   OH260669   1.641   5.220  16.505 -0.0102 -0.3161 -0.1557
13085TIP3    H160670   1.614   5.294  16.559  1.4965 -0.0450  0.2674
13085TIP3    H260671   1.600   5.236  16.420 -0.0051  0.8159  0.0410
13086TIP3   OH260672   5.261   6.577  16.199 -0.2165  0.6650 -0.7166
13086TIP3    H160673   5.200   6.508  16.225  1.1248 -0.0361  0.7700
13086TIP3    H260674   5.259   6.639  16.273  1.7762 -0.0293 -0.0320
13087TIP3   OH260675   4.376   3.620   4.696  0.2775  0.0359 -0.2352
13087TIP3    H160676   4.367   3.535   4.653 -1.1211  1.0405 -2.1187
13087TIP3    H260677   4.289   3.640   4.729  0.9517  0.0726  1.6756
13088TIP3   OH260678   2.429   2.755   1.521  0.0913 -0.3467  0.0841
13088TIP3    H160679   2.453   2.756   1.613  1.2128  0.3830 -0.1975
13088TIP3    H260680   2.415   2.662   1.501  1.0649 -0.6310  0.6863
13089TIP3   OH260681   3.741   6.175  13.694  0.2564  0.4219 -0.1138
13089TIP3    H160682   3.758   6.210  13.782  0.3728  0.0570  0.0129
13089TIP3    H260683   3.676   6.234  13.656  0.1970  0.5748  0.2239
13090TIP3   OH260684   0.644   3.969   2.446  0.3204 -0.3071  0.2153
13090TIP3    H160685   0.597   3.931   2.372  1.1161 -0.6242 -0.1308
13090TIP3    H260686   0.673   4.055   2.415 -1.4281  0.6244  0.9771
13091TIP3   OH260687   1.945   1.807   5.399 -0.3973 -0.4069  0.1761
13091TIP3    H160688   2.015   1.775   5.457 -0.9683  0.4963  1.4270
13091TIP3    H260689   1.988   1.873   5.344 -0.1619 -0.1495  0.6574
13092TIP3   OH260690   0.701   3.794  12.223 -0.1661 -0.0198 -0.2747
13092TIP3    H160691   0.791   3.762  12.226 -0.2040 -0.1013  0.0592
13092TIP3    H260692   0.662   3.764  12.305 -0.7329 -0.6562 -0.7664
13093TIP3   OH260693   2.056   1.255   0.850  0.1342  0.0980  0.1406
13093TIP3    H160694   2.012   1.172   0.865 -0.2084  0.6185  2.3495
13093TIP3    H260695   2.148   1.232   0.839 -0.1900 -0.6991 -1.1105
13094TIP3   OH260696   2.716   4.851  11.907 -0.2769  0.5885  0.9880
13094TIP3    H160697   2.712   4.856  12.002 -0.7739 -0.6687  1.0590
13094TIP3    H260698   2.802   4.814  11.888  0.0810  1.4543  0.9115
13095TIP3   OH260699   4.900   2.282  16.303 -0.1055  0.1300 -0.3670
13095TIP3    H160700   4.856   2.290  16.388  1.2039  0.0452  0.3387
13095TIP3    H260701   4.973   2.222  16.319  1.1755  1.4194 -1.1116
13096TIP3   OH260702   4.188   1.680   4.249 -0.0778 -0.3919 -0.2029
13096TIP3    H160703   4.222   1.769   4.233 -0.9098 -0.2439 -1.2640
13096TIP3    H260704   4.239   1.648   4.323  1.0469  0.5441 -0.5352
13097TIP3   OH260705   2.578   1.966  14.126 -0.2352 -0.2395  0.3022
13097TIP3    H160706   2.614   1.949  14.213 -1.2862  0.5724  0.9178
13097TIP3    H260707   2.602   1.889  14.074 -1.1078 -1.5493  1.7746
13098TIP3   OH260708   1.901   6.362   2.560 -0.1523  0.3152 -0.2177
13098TIP3    H160709   1.970   6.427   2.560  0.2239 -0.0577 -1.3654
13098TIP3    H260710   1.918   6.308   2.637  0.5482  0.5225 -0.2264
13099TIP3   OH260711   5.722   2.051  12.273 -0.2290 -0.0090 -0.0314
13099TIP3    H160712   5.708   2.139  12.310  0.8517  0.2151 -0.1154
13099TIP3    H260713   5.711   2.062  12.179  0.0196  0.0682 -0.0532
13100TIP3   OH260714   5.862   5.994   3.531 -0.3851  0.1746  0.0033
13100TIP3    H160715   5.781   5.980   3.482  0.3456  2.0399 -1.8711
13100TIP3    H260716   5.908   5.910   3.525 -2.1325 -0.9192  1.1147
13101TIP3   OH260717   4.490   6.683  11.550 -0.5988  0.2975  0.0397
13101TIP3    H160718   4.521   6.711  11.636 -0.4016 -0.0964  0.0976
13101TIP3    H260719   4.564   6.700  11.492 -0.3037 -0.5235  0.1564
13102TIP3   OH260720   2.346   4.774  15.161 -0.7949  0.0575  0.1685
13102TIP3    H160721   2.359   4.682  15.140  0.7024  0.8897 -3.2762
13102TIP3    H260722   2.428   4.800  15.203 -0.4264  0.2142 -0.6291
13103TIP3   OH260723   6.098   1.278   3.620  0.3307 -0.4175  0.0071
13103TIP3    H160724   6.059   1.256   3.705  2.0616 -1.2130  0.6301
13103TIP3    H260725   6.093   1.374   3.616  1.1649 -0.2807  1.4930
13104TIP3   OH260726   0.769   5.162   3.956 -0.1047  0.0931 -0.5540
13104TIP3    H160727   0.707   5.142   4.026 -0.1166  2.4446  0.2006
13104TIP3    H260728   0.832   5.089   3.959 -0.3576 -0.1232  1.6422
13105TIP3   OH260729   0.894   4.250   2.424  0.0549 -0.7971  0.0571
13105TIP3    H160730   0.942   4.325   2.388 -1.8581  0.3384 -0.2362
13105TIP3    H260731   0.912   4.253   2.518  0.1726 -0.0943  0.0204
13106TIP3   OH260732   2.111   5.857   5.161 -0.3629 -0.3249  0.1305
13106TIP3    H160733   2.122   5.820   5.249 -3.9352  1.1182  1.4098
13106TIP3    H260734   2.096   5.950   5.177 -2.6577 -0.2761 -1.7916
13107TIP3   OH260735   4.888   6.668  16.204 -0.1965 -0.1254  0.0651
13107TIP3    H160736   4.880   6.758  16.174  1.2731 -0.5276 -1.7564
13107TIP3    H260737   4.881   6.673  16.299  1.5128  2.1726  0.1541
13108TIP3   OH260738   4.815   0.990  17.131 -0.2222 -0.0758  1.0495
13108TIP3    H160739   4.853   0.913  17.090  0.1083  0.4576  0.3116
13108TIP3    H260740   4.772   1.037  17.058  0.3030  0.8518  1.3212
13109TIP3   OH260741   3.081   5.280   2.356 -0.5095 -0.1144  0.2910
13109TIP3    H160742   3.052   5.371   2.355  0.3377  0.1744  0.6302
13109TIP3    H260743   3.162   5.281   2.406 -0.3399 -1.0168  0.0661
13110TIP3   OH260744   5.267   1.632  13.996 -0.4769  0.2937 -0.5313
13110TIP3    H160745   5.270   1.722  13.964 -2.3492  1.3723  1.9825
13110TIP3    H260746   5.321   1.633  14.075 -1.3163 -0.5329  0.0649
13111TIP3   OH260747   6.658   3.458  11.576  0.2663  0.4333 -0.4652
13111TIP3    H160748   6.623   3.393  11.636  1.9986 -2.0264 -1.9127
13111TIP3    H260749   6.584   3.483  11.520 -0.6522  0.5219  0.7551
13112TIP3   OH260750   0.893   4.961  15.119 -0.1442  0.2387 -0.1834
13112TIP3    H160751   0.918   5.049  15.146 -0.4552 -0.1842  1.6084
13112TIP3    H260752   0.864   4.972  15.028 -3.0899  2.6284  0.8268
13113TIP3   OH260753   4.997   5.130   1.481  0.4188 -0.2865  0.3463
13113TIP3    H160754   5.075   5.144   1.427  0.8466  0.9598  1.2265
13113TIP3    H260755   5.007   5.042   1.516 -0.0938 -1.3136 -1.9156
13114TIP3   OH260756   5.983   3.691   6.634  0.2375 -0.3124  0.0203
13114TIP3    H160757   6.020   3.611   6.671 -2.3994 -2.1205 -0.9946
13114TIP3    H260758   5.907   3.711   6.689  0.2746  0.9447 -0.3476
13115TIP3   OH260759   0.844   3.612   5.029 -0.5351  0.0146 -0.5130
13115TIP3    H160760   0.782   3.675   4.992  0.0957  0.5971 -0.5977
13115TIP3    H260761   0.856   3.547   4.959 -0.4330  0.3430 -0.8072
13116TIP3   OH260762   0.249   6.663  12.390  0.2097  0.2208  0.1514
13116TIP3    H160763   0.275   6.661  12.298  0.7622  3.2747  0.1202
13116TIP3    H260764   0.181   6.730  12.395 -1.1397 -1.1630  1.7349
13117TIP3   OH260765   3.871   3.709  13.233  0.1194 -0.0035  0.2170
13117TIP3    H160766   3.908   3.797  13.224  2.2933 -0.7698  1.0244
13117TIP3    H260767   3.786   3.714  13.189  0.1546  2.4987  0.3143
13118TIP3   OH260768   1.850   3.978  16.367  0.5030  0.2856  0.7668
13118TIP3    H160769   1.845   3.926  16.286  0.7001 -0.3478  1.1554
13118TIP3    H260770   1.940   4.010  16.370  0.5509  0.1456  0.8331
13119TIP3   OH260771   2.016   5.103   1.953  0.3310 -0.0878  0.1208
13119TIP3    H160772   2.103   5.138   1.970  0.6707 -0.3628 -0.9681
13119TIP3    H260773   2.015   5.018   1.998  0.7248 -0.2031 -0.0793
13120TIP3   OH260774   4.265   1.104  15.660 -0.7002  0.2397 -0.0354
13120TIP3    H160775   4.217   1.022  15.646 -0.3061  0.0563 -0.3252
13120TIP3    H260776   4.296   1.099  15.751  0.5507 -0.5923 -0.4852
13121TIP3   OH260777   2.354   6.708  11.116 -0.2337 -0.1777 -0.2220
13121TIP3    H160778   2.314   6.735  11.033 -0.6031 -0.3935 -0.1190
13121TIP3    H260779   2.441   6.748  11.115 -0.1543 -0.3511 -0.8061
13122TIP3   OH260780   2.010   3.033  14.822  0.1981  0.3390 -0.1749
13122TIP3    H160781   2.042   3.123  14.831  2.3871 -0.4647  0.6489
13122TIP3    H260782   1.992   3.004  14.911 -1.7767  0.3215 -0.5176
13123TIP3   OH260783   2.312   2.108  13.805 -0.5947  0.2269  0.1652
13123TIP3    H160784   2.318   2.200  13.781 -1.9875 -0.3712 -2.8087
13123TIP3    H260785   2.393   2.091  13.854  0.6134  2.5388 -0.8960
13124TIP3   OH260786   3.031   1.966   5.013  0.0566  0.2297  0.0173
13124TIP3    H160787   2.939   1.941   5.013 -0.3457  1.3693 -2.8192
13124TIP3    H260788   3.030   2.060   4.994  1.7817  0.7011  1.9105
13125TIP3   OH260789   6.328   4.522  11.724 -0.4430 -0.1096 -0.2791
13125TIP3    H160790   6.415   4.492  11.699 -0.1164  0.4793  0.1215
13125TIP3    H260791   6.305   4.470  11.801 -0.3662 -0.1353 -0.2744
13126TIP3   OH260792   6.594   4.737   0.879 -0.2766  0.2811  0.0350
13126TIP3    H160793   6.683   4.736   0.912 -0.2287 -0.0461 -0.0967
13126TIP3    H260794   6.548   4.800   0.934  0.4823  1.8680 -1.0971
13127TIP3   OH260795   2.815   3.903  17.226 -0.0934 -0.0766 -0.0803
13127TIP3    H160796   2.776   3.815  17.231  1.3048 -0.7525 -0.5139
13127TIP3    H260797   2.904   3.887  17.195 -0.5568  1.6785 -2.6221
13128TIP3   OH260798   4.889   2.783   5.022  0.0943 -0.1131 -0.3397
13128TIP3    H160799   4.911   2.723   5.093 -1.1703 -0.7695 -0.4736
13128TIP3    H260800   4.973   2.821   4.996  0.8690 -1.4673  0.0763
13129TIP3   OH260801   4.427   4.253   4.010 -0.2211  0.1801  0.1725
13129TIP3    H160802   4.492   4.188   4.036 -0.7826 -0.7762 -0.7130
13129TIP3    H260803   4.435   4.322   4.074  0.1520 -0.9412  1.3757
13130TIP3   OH260804   0.617   0.905  15.571  0.3829 -0.8151  0.2937
13130TIP3    H160805   0.616   0.990  15.528 -2.2032 -0.7553  0.3258
13130TIP3    H260806   0.575   0.921  15.656 -0.1626 -2.1334  0.2871
13131TIP3   OH260807   2.754   4.165  17.148 -0.5771 -0.5393 -0.0098
13131TIP3    H160808   2.801   4.215  17.215 -1.2283  1.0229 -0.6743
13131TIP3    H260809   2.765   4.074  17.174 -0.7590  0.0159  2.1870
13132TIP3   OH260810   3.771   3.450  14.082 -0.0037  1.0803 -0.7039
13132TIP3    H160811   3.839   3.421  14.142 -1.1623  0.9886  0.6156
13132TIP3    H260812   3.792   3.542  14.064  0.5386  1.0167 -0.4143
13133TIP3   OH260813   2.405   4.231  13.906 -0.3163  0.2702 -0.3731
13133TIP3    H160814   2.331   4.292  13.906 -0.8663 -0.3827 -0.1370
13133TIP3    H260815   2.376   4.158  13.960  1.4787  1.1418  1.9355
13134TIP3   OH260816   6.268   4.314   2.638  0.1342 -0.3853 -0.3513
13134TIP3    H160817   6.181   4.351   2.620  0.5682  0.7417 -0.2181
13134TIP3    H260818   6.328   4.373   2.592  0.7341 -2.2251 -2.0312
13135TIP3   OH260819   3.043   0.362  11.482 -0.2378 -0.6393 -0.1424
13135TIP3    H160820   3.086   0.348  11.398  0.5391 -2.7112  0.5275
13135TIP3    H260821   2.968   0.301  11.480 -0.4338 -0.4264  0.5092
13136TIP3   OH260822   5.074   3.828   0.465  0.0084 -0.1123 -0.3434
13136TIP3    H160823   4.999   3.783   0.504  0.4878 -0.3658  0.3185
13136TIP3    H260824   5.141   3.825   0.533  0.1243  1.4442 -0.3558
13137TIP3   OH260825   1.062   5.330  15.484 -0.2513 -0.0866 -0.3939
13137TIP3    H160826   1.111   5.396  15.533  1.4415 -2.4620  1.3550
13137TIP3    H260827   0.972   5.363  15.481  0.7414  2.8661 -0.8116
13138TIP3   OH260828   2.219   4.996   0.888 -0.7321 -0.0777  0.0253
13138TIP3    H160829   2.175   4.912   0.883 -1.1622 -0.0319  2.0308
13138TIP3    H260830   2.298   4.979   0.941  0.7457  0.2204 -1.9590
13139TIP3   OH260831   4.658   6.326  16.601  0.5598 -0.0935  0.3580
13139TIP3    H160832   4.590   6.270  16.638  0.3367 -0.4681 -0.5976
13139TIP3    H260833   4.698   6.368  16.677 -1.1213  0.5960  0.9093
13140TIP3   OH260834   5.970   0.829   3.531  0.2439 -0.1161  0.2915
13140TIP3    H160835   5.960   0.743   3.572  1.5156 -0.8398 -0.8441
13140TIP3    H260836   6.049   0.822   3.479  0.0261  1.5639 -0.3312
13141TIP3   OH260837   5.806   4.046  16.004 -0.4081 -0.5467  0.4212
13141TIP3    H160838   5.814   4.062  15.910  2.3148  0.1075  0.6604
13141TIP3    H260839   5.749   3.969  16.010 -0.8717 -0.4516 -1.7331
13142TIP3   OH260840   4.954   4.675   4.132 -0.3205 -0.1178  0.0920
13142TIP3    H160841   4.876   4.622   4.143 -0.3805  0.1982  1.3542
13142TIP3    H260842   4.921   4.764   4.120 -0.2522  0.9322  5.5160
13143TIP3   OH260843   2.809   3.740   1.378  0.5189  0.1281  0.3202
13143TIP3    H160844   2.785   3.826   1.411  0.4039  0.0711  0.3856
13143TIP3    H260845   2.746   3.724   1.307 -1.4623 -1.2023  2.2554
13144TIP3   OH260846   6.631   2.019  16.252 -0.1727  0.4323 -0.4958
13144TIP3    H160847   6.692   2.056  16.188 -0.9690 -0.5797 -1.9004
13144TIP3    H260848   6.544   2.041  16.217 -0.6255 -0.2877  0.1551
13145TIP3   OH260849   6.130   6.012   2.452 -0.2679  0.0336 -0.0709
13145TIP3    H160850   6.039   6.007   2.422  0.0682 -0.6797 -1.0317
13145TIP3    H260851   6.165   5.923   2.438  0.6221  0.3410  0.1199
13146TIP3   OH260852   3.031   5.618  15.656  0.0357 -0.5246  0.0611
13146TIP3    H160853   2.961   5.588  15.714 -0.2889  0.9600  0.4820
13146TIP3    H260854   3.020   5.566  15.577 -1.2253 -0.6883  0.3219
13147TIP3   OH260855   6.292   3.940  16.214  0.0298 -0.5803  0.2386
13147TIP3    H160856   6.266   3.991  16.291 -2.2878 -0.5315 -0.5147
13147TIP3    H260857   6.209   3.913  16.174  1.1913 -1.6870 -1.5381
13148TIP3   OH260858   2.499   0.613  13.121 -0.2299  0.0350  0.4605
13148TIP3    H160859   2.438   0.681  13.152  0.1848  0.7811 -0.3089
13148TIP3    H260860   2.498   0.623  13.026  1.3034  0.2519  0.4479
13149TIP3   OH260861   6.669   5.874   0.191 -0.3299  0.0750  0.1654
13149TIP3    H160862   6.649   5.781   0.189  2.0959 -0.5029 -2.2769
13149TIP3    H260863   6.715   5.887   0.274 -0.1471 -1.0428  0.2524
13150TIP3   OH260864   3.041   6.018  11.346 -0.0483  0.0368  0.8229
13150TIP3    H160865   3.023   6.108  11.319 -0.2654 -0.5351 -1.0553
13150TIP3    H260866   2.964   5.993  11.398  0.1303  0.9943  1.5839
13151TIP3   OH260867   5.471   0.623   5.880 -0.1043  0.7168 -0.2116
13151TIP3    H160868   5.475   0.713   5.911 -0.3157  0.3884  0.8300
13151TIP3    H260869   5.429   0.629   5.794 -0.9307  1.5245  0.2309
13152TIP3   OH260870   1.639   2.616  12.459 -0.1659 -0.0417 -0.5213
13152TIP3    H160871   1.554   2.596  12.497 -0.0404  1.1650  0.4371
13152TIP3    H260872   1.624   2.693  12.404  0.1107 -0.4311 -1.1516
13153TIP3   OH260873   2.155   4.281   2.340 -0.4076  0.4707  0.2539
13153TIP3    H160874   2.237   4.327   2.325  0.4636 -0.6956  1.2550
13153TIP3    H260875   2.132   4.303   2.431 -0.4889 -0.2707  0.4170
13154TIP3   OH260876   6.025   6.308  13.756 -0.1836 -0.4736  0.2806
13154TIP3    H160877   5.953   6.365  13.786  0.5093  1.4132 -1.3968
13154TIP3    H260878   6.103   6.346  13.796  0.3296  0.0035 -1.1260
13155TIP3   OH260879   1.957   6.172  16.898  0.5861  0.4862  0.1805
13155TIP3    H160880   2.037   6.186  16.848 -0.0011  1.0025 -0.6631
13155TIP3    H260881   1.963   6.082  16.930 -0.3684 -1.0512 -3.4451
13156TIP3   OH260882   2.685   5.538   0.730  0.2948 -0.2614 -0.9582
13156TIP3    H160883   2.668   5.602   0.661  1.4792 -0.3616 -1.3568
13156TIP3    H260884   2.626   5.465   0.710  0.2438 -0.0619 -1.5437
13157TIP3   OH260885   2.014   1.857  17.205 -0.4085 -0.5228  0.0096
13157TIP3    H160886   1.932   1.902  17.224  0.1676  0.7479 -0.3805
13157TIP3    H260887   2.043   1.821  17.289  1.8295  4.5197  1.7888
13158TIP3   OH260888   2.969   1.690  11.018  0.4526 -0.3645  0.5192
13158TIP3    H160889   2.964   1.651  10.931 -0.2950  1.5004 -0.3309
13158TIP3    H260890   2.983   1.784  11.002 -0.4913  0.1504  2.3646
13159TIP3   OH260891   6.637   3.761   5.644 -0.0940 -0.0832 -0.1272
13159TIP3    H160892   6.696   3.797   5.578  0.0434 -0.8759 -0.4438
13159TIP3    H260893   6.690   3.753   5.723 -0.4240  1.4771  0.2949
13160TIP3   OH260894   0.557   3.741   2.085 -0.7305  0.1259 -0.2702
13160TIP3    H160895   0.516   3.707   2.006  0.8876 -0.3326 -0.9426
13160TIP3    H260896   0.578   3.664   2.137 -2.8714  0.4668  1.2286
13161TIP3   OH260897   3.342   4.618  15.737  0.3160 -0.5412 -0.4764
13161TIP3    H160898   3.434   4.644  15.746  0.5337 -0.7629 -1.7939
13161TIP3    H260899   3.346   4.528  15.704 -0.3090  0.0558 -2.3275
13162TIP3   OH260900   0.635   5.044  12.477  0.1759 -1.1591  0.0995
13162TIP3    H160901   0.631   5.043  12.381 -0.9380 -3.0578  0.1158
13162TIP3    H260902   0.566   5.104  12.503  1.1366  0.1605 -0.2524
13163TIP3   OH260903   5.751   2.771   1.726 -0.2094 -0.1115  0.5213
13163TIP3    H160904   5.764   2.795   1.634 -1.3865 -1.1060  0.0652
13163TIP3    H260905   5.767   2.676   1.728  0.7337  0.0510  1.5446
13164TIP3   OH260906   0.940   3.298  13.985 -0.2081  0.2601  0.2684
13164TIP3    H160907   0.867   3.264  14.036  0.3169 -2.5621 -0.6521
13164TIP3    H260908   1.018   3.260  14.026  0.5193  1.0963 -0.3022
13165TIP3   OH260909   2.059   3.205  13.128  0.2873 -0.2522  0.2599
13165TIP3    H160910   2.120   3.279  13.127  0.6162 -0.4424 -2.2808
13165TIP3    H260911   1.978   3.241  13.092  0.2196 -0.9425 -0.2947
13166TIP3   OH260912   1.349   0.121   0.320 -0.4789 -0.5218  0.2997
13166TIP3    H160913   1.331   0.134   0.413 -2.0208  2.6299 -0.3064
13166TIP3    H260914   1.263   0.127   0.278  0.2866 -1.0309 -1.4063
13167TIP3   OH260915   5.492   3.752   1.659 -0.4474 -0.6409 -0.2484
13167TIP3    H160916   5.399   3.772   1.666 -0.1856  0.1634  1.5960
13167TIP3    H260917   5.497   3.685   1.590 -2.4297 -1.0785 -0.0368
13168TIP3   OH260918   2.431   3.957  11.568  0.3830 -0.6131 -0.1285
13168TIP3    H160919   2.494   3.885  11.563 -1.8901 -2.6843 -1.4240
13168TIP3    H260920   2.442   3.993  11.655  2.3834 -1.8024  0.1735
13169TIP3   OH260921   6.590   3.930   0.743 -0.4028 -0.5477  0.4228
13169TIP3    H160922   6.684   3.915   0.743 -0.4096 -0.6171  0.8781
13169TIP3    H260923   6.553   3.851   0.705 -0.2106  0.0235 -1.0176
13170TIP3   OH260924   5.337   4.160  14.139 -0.4094 -0.2116  0.3431
13170TIP3    H160925   5.427   4.129  14.134 -0.2189  0.4580 -0.7482
13170TIP3    H260926   5.344   4.250  14.170 -0.6883 -0.0951  0.0695
13171TIP3   OH260927   3.799   4.011   4.550 -0.2011  0.0500 -0.7552
13171TIP3    H160928   3.848   3.937   4.587  0.2655  0.8000  0.1465
13171TIP3    H260929   3.862   4.053   4.491 -0.7380 -0.7536 -1.9640
13172TIP3   OH260930   0.824   0.281   3.422  0.2281 -0.0118  0.2282
13172TIP3    H160931   0.852   0.236   3.501  1.7794  2.6481  1.3140
13172TIP3    H260932   0.774   0.356   3.453 -1.0119 -0.0951 -1.4348
13173TIP3   OH260933   3.822   1.467   2.856 -0.0725 -0.3925 -0.1723
13173TIP3    H160934   3.762   1.393   2.856  0.3886 -0.8777 -2.7320
13173TIP3    H260935   3.848   1.477   2.764 -0.0555  2.9035  0.0565
13174TIP3   OH260936   1.640   1.668  16.656 -0.4930 -0.4569 -0.3411
13174TIP3    H160937   1.718   1.620  16.686 -0.2440 -0.1572 -0.5002
13174TIP3    H260938   1.594   1.605  16.601 -0.9475 -1.0034  0.6398
13175TIP3   OH260939   0.252   0.589  11.423  0.3934  0.5689  0.4719
13175TIP3    H160940   0.338   0.569  11.386 -0.3447 -1.1013 -0.4674
13175TIP3    H260941   0.216   0.656  11.365 -0.0638 -0.8067 -0.9009
13176TIP3   OH260942   0.990   6.581   5.374  0.1023  0.5638  0.1318
13176TIP3    H160943   1.009   6.492   5.344 -1.0719 -0.0387  1.1250
13176TIP3    H260944   1.059   6.599   5.438 -0.0277  0.1271  0.3980
13177TIP3   OH260945   3.662   4.984   4.434 -0.5502  0.9188 -0.7617
13177TIP3    H160946   3.663   4.924   4.508 -0.2479  1.5255 -0.2658
13177TIP3    H260947   3.569   4.998   4.415 -0.6493  1.4783  0.0996
13178TIP3   OH260948   5.882   0.123   5.128 -0.5487  0.0694  0.2643
13178TIP3    H160949   5.946   0.069   5.174 -0.7672 -0.0547  0.4203
13178TIP3    H260950   5.839   0.174   5.196  1.6356  2.6298 -0.0777
13179TIP3   OH260951   1.888   3.379  12.365  0.0476 -0.0682  0.0896
13179TIP3    H160952   1.860   3.467  12.340 -0.6291 -0.5646 -0.9925
13179TIP3    H260953   1.982   3.378  12.345 -0.2461 -0.0759 -1.4495
13180TIP3   OH260954   6.161   5.252  11.713 -0.2939  0.1244 -0.1576
13180TIP3    H160955   6.255   5.260  11.695 -0.4766 -1.0077 -1.7879
13180TIP3    H260956   6.146   5.158  11.721 -1.1722  0.3355  0.9411
13181TIP3   OH260957   5.564   5.542   5.748 -0.1517 -0.5360 -0.2113
13181TIP3    H160958   5.621   5.508   5.817  0.4748 -1.0316 -0.9451
13181TIP3    H260959   5.476   5.520   5.777  0.0831 -0.4710  0.5712
13182TIP3   OH260960   3.809   5.799  15.342 -0.1422  0.1432  0.2918
13182TIP3    H160961   3.850   5.759  15.266 -1.3760  2.4074 -1.6978
13182TIP3    H260962   3.880   5.846  15.386  0.2095  0.5839 -0.7169
13183TIP3   OH260963   3.880   2.027   2.456 -0.3323 -0.3591 -0.0299
13183TIP3    H160964   3.900   1.939   2.489  0.8099  0.2931  1.1102
13183TIP3    H260965   3.787   2.039   2.473 -0.3592 -1.1138  0.3933
13184TIP3   OH260966   0.831   1.072   3.689  0.7026  0.3274 -0.0707
13184TIP3    H160967   0.896   1.047   3.755 -0.3392  0.5830  1.1124
13184TIP3    H260968   0.749   1.076   3.738 -0.2668 -0.2614 -1.5727
13185TIP3   OH260969   2.228   0.872   5.493  0.2427 -0.1148  0.4424
13185TIP3    H160970   2.302   0.824   5.530 -0.0850  0.9854  2.7019
13185TIP3    H260971   2.152   0.817   5.514  0.1603  0.0270  0.5156
13186TIP3   OH260972   2.513   0.301   4.342  0.2424 -0.7623 -0.5153
13186TIP3    H160973   2.538   0.366   4.407 -0.7403 -0.7368 -0.1407
13186TIP3    H260974   2.468   0.351   4.274 -0.1618 -0.9872 -0.4196
13187TIP3   OH260975   1.766   3.204   3.389  0.1113 -0.3386  0.2655
13187TIP3    H160976   1.756   3.116   3.354 -1.2114  0.0343 -0.3393
13187TIP3    H260977   1.677   3.236   3.400  0.5227  0.3189  2.0835
13188TIP3   OH260978   4.948   5.120  14.417  0.0586  0.9146 -0.3328
13188TIP3    H160979   4.934   5.120  14.511 -1.8770  0.3003 -0.5660
13188TIP3    H260980   5.041   5.100  14.406 -0.1405 -1.3319  1.4053
13189TIP3   OH260981   0.033   1.641   5.742 -0.6410  0.1823  0.4232
13189TIP3    H160982  -0.032   1.570   5.740 -0.4868  0.0605 -0.8440
13189TIP3    H260983   0.018   1.690   5.662 -0.2871  1.1893  0.9539
13190TIP3   OH260984   0.312   0.137  12.833  0.1948 -0.1130  0.3043
13190TIP3    H160985   0.387   0.107  12.782  1.1797  1.9516  0.4257
13190TIP3    H260986   0.288   0.062  12.889  0.5499 -1.6296 -1.4972
13191TIP3   OH260987   0.574   5.104  11.863  0.1494  0.0765 -0.0564
13191TIP3    H160988   0.523   5.037  11.909 -1.1555 -0.2132 -1.8080
13191TIP3    H260989   0.521   5.184  11.872  0.7959  0.4634  0.4518
13192TIP3   OH260990   6.289   2.194  11.972  0.0099  0.5683  0.3103
13192TIP3    H160991   6.336   2.192  12.056  0.8752 -2.7226 -0.1220
13192TIP3    H260992   6.357   2.217  11.908 -0.0595  0.5241  0.2219
13193TIP3   OH260993   1.327   2.712  11.121 -0.2166 -0.0665  0.2022
13193TIP3    H160994   1.269   2.658  11.175 -0.6875  1.1647  0.9941
13193TIP3    H260995   1.346   2.788  11.176  0.7400  0.3906 -0.7229
13194TIP3   OH260996   6.450   4.112   0.581 -0.6854 -0.0941  0.2874
13194TIP3    H160997   6.405   4.146   0.658  0.5729 -1.4356  1.6951
13194TIP3    H260998   6.531   4.074   0.616 -0.2682 -1.1114 -1.6580
13195TIP3   OH260999   1.402   0.871  11.605 -0.3412 -0.3069  0.1627
13195TIP3    H161000   1.437   0.782  11.593  0.4806 -0.1555  1.3001
13195TIP3    H261001   1.309   0.858  11.626 -0.3829 -0.8537 -0.3324
13196TIP3   OH261002   4.753   1.389   4.719  0.8513 -0.3777  0.6573
13196TIP3    H161003   4.833   1.356   4.680  0.1481 -2.1507  0.6057
13196TIP3    H261004   4.727   1.321   4.782 -2.4203 -1.6466 -1.7659
13197TIP3   OH261005   0.041   1.570  12.959 -0.0790 -0.1832  0.1941
13197TIP3    H161006  -0.050   1.584  12.931 -0.2216 -1.4665 -0.0374
13197TIP3    H261007   0.050   1.475  12.965  1.6632 -0.1487 -1.1826
13198TIP3   OH261008   2.054   4.861  13.515 -0.2361 -0.2115 -0.1254
13198TIP3    H161009   2.101   4.808  13.451  0.7150 -0.4821  0.7783
13198TIP3    H261010   2.100   4.847  13.598 -1.3378  0.2575  0.6009
13199TIP3   OH261011   0.215   1.623   4.599  0.3633 -0.0447 -0.0292
13199TIP3    H161012   0.230   1.692   4.663 -0.6450  0.4247 -0.2802
13199TIP3    H261013   0.128   1.589   4.620  0.3823 -0.4684 -0.6148
13200TIP3   OH261014   1.427   1.238  13.181 -1.0154 -0.1329 -0.2263
13200TIP3    H161015   1.444   1.279  13.265 -0.7248  0.5462 -0.6081
13200TIP3    H261016   1.477   1.290  13.118 -0.3608 -1.2867 -0.6783
13201TIP3   OH261017   2.016   0.215  12.776  0.1401 -0.1236 -0.1685
13201TIP3    H161018   1.940   0.273  12.772 -0.1805 -0.3714  1.5386
13201TIP3    H261019   1.986   0.140  12.826  0.9162 -1.2235 -1.2949
13202TIP3   OH261020   4.872   0.383   2.638  0.0938 -0.0729 -0.2173
13202TIP3    H161021   4.967   0.384   2.647  0.1161 -0.5686 -0.3358
13202TIP3    H261022   4.855   0.312   2.576 -0.3669 -0.1719  0.0195
13203TIP3   OH261023   1.397   0.782  12.195  0.2692 -0.0742  0.3725
13203TIP3    H161024   1.305   0.764  12.173  0.6683  0.1294 -1.5652
13203TIP3    H261025   1.397   0.873  12.224  0.3254  1.0654 -2.9034
13204TIP3   OH261026   0.932   5.755  15.525 -0.1391 -0.6799 -0.0159
13204TIP3    H161027   0.929   5.811  15.447 -1.3079  1.2081  1.3286
13204TIP3    H261028   0.843   5.756  15.559  0.5431 -0.7324  1.8598
13205TIP3   OH261029   4.076   6.724   1.486 -0.1109 -0.3124  0.4507
13205TIP3    H161030   4.056   6.811   1.452  1.5515 -0.4648 -1.0528
13205TIP3    H261031   4.047   6.726   1.577 -1.4187  1.3192  0.0315
13206TIP3   OH261032   6.064   5.158   5.559 -0.3722  0.3006 -0.3552
13206TIP3    H161033   6.053   5.063   5.558  1.6716  0.0144 -0.1151
13206TIP3    H261034   6.067   5.180   5.652  3.6567 -0.0976 -0.2421
13207TIP3   OH261035   4.678   3.906  15.053  0.1144  0.5124  0.1898
13207TIP3    H161036   4.702   3.989  15.011 -2.3248  0.9102 -0.5663
13207TIP3    H261037   4.721   3.839  15.000 -2.0291  1.0598 -2.4912
13208TIP3   OH261038   3.584   2.041   1.045  0.1283  0.0368 -0.3723
13208TIP3    H161039   3.542   2.010   0.965  2.2113  0.0394 -1.5367
13208TIP3    H261040   3.599   1.962   1.097 -1.7448  0.0986  0.3188
13209TIP3   OH261041   4.345   2.511  12.281  0.1287  0.3381  0.2863
13209TIP3    H161042   4.269   2.496  12.225  1.4188 -0.7020 -1.2853
13209TIP3    H261043   4.356   2.429  12.330  1.4268 -0.3158 -1.0427
13210TIP3   OH261044   2.866   4.775   7.032  0.1439 -0.1252  0.2367
13210TIP3    H161045   2.945   4.826   7.014 -0.6835  0.6586 -1.4028
13210TIP3    H261046   2.798   4.840   7.045  0.0907 -0.7230  3.8057
13211TIP3   OH261047   1.855   2.165  13.498  0.5412 -0.3190 -0.0185
13211TIP3    H161048   1.883   2.253  13.472  1.7867 -0.3841  1.0359
13211TIP3    H261049   1.787   2.142  13.435  0.9994  0.9407 -1.0046
13212TIP3   OH261050   6.671   4.181  12.318  0.2372  0.0036 -0.4258
13212TIP3    H161051   6.763   4.158  12.333  0.8431  0.3711 -3.0600
13212TIP3    H261052   6.634   4.188  12.406  3.0079  1.0190  0.8011
13213TIP3   OH261053   1.120   3.148   1.848  0.3774  0.4394  0.5746
13213TIP3    H161054   1.160   3.105   1.772  1.3595  1.9943  0.1692
13213TIP3    H261055   1.028   3.159   1.823  0.6834  0.9349 -0.4125
13214TIP3   OH261056   4.590   1.322  13.536 -0.5096  0.5236  0.0221
13214TIP3    H161057   4.652   1.251  13.550 -1.8726 -0.6311  0.4580
13214TIP3    H261058   4.624   1.394  13.590  1.8343  0.8749 -1.7750
13215TIP3   OH261059   2.697   5.120   0.472 -0.2939  0.2509  0.1752
13215TIP3    H161060   2.759   5.049   0.455 -0.5835  0.2451 -0.9161
13215TIP3    H261061   2.631   5.112   0.404  1.2953  3.4416 -2.0015
13216TIP3   OH261062   0.603   6.003  15.852 -0.1491 -0.1231 -0.4311
13216TIP3    H161063   0.609   6.084  15.903  0.3386 -0.3632 -0.0962
13216TIP3    H261064   0.521   6.011  15.803 -0.8071 -0.0310  0.6558
13217TIP3   OH261065   1.651   4.899  16.841 -0.7609  0.1695  0.9426
13217TIP3    H161066   1.654   4.990  16.812  0.3737  0.0214  0.5134
13217TIP3    H261067   1.587   4.897  16.911 -1.3284  1.1558  0.4672
13218TIP3   OH261068   1.307   6.221   0.192 -0.3126 -0.3052  0.2050
13218TIP3    H161069   1.290   6.159   0.121 -0.3344 -0.4312  0.3199
13218TIP3    H261070   1.314   6.166   0.270  1.0910 -0.3140  0.0935
13219TIP3   OH261071   3.180   6.437   3.096 -0.7239 -0.4203  0.3130
13219TIP3    H161072   3.122   6.368   3.063  0.8141 -1.1012 -1.1174
13219TIP3    H261073   3.163   6.441   3.190  0.4311 -4.0963  0.8169
13220TIP3   OH261074   2.341   5.212   6.339  0.3099 -0.4808 -0.2704
13220TIP3    H161075   2.371   5.177   6.423  0.5550 -0.9140 -0.5354
13220TIP3    H261076   2.371   5.303   6.339  0.1280 -0.4181  0.1966
13221TIP3   OH261077   3.874   1.776  14.162  0.5646  0.6316  0.6692
13221TIP3    H161078   3.964   1.781  14.193  0.1934  0.9375  1.7440
13221TIP3    H261079   3.864   1.686  14.130  1.0014  0.3386  1.3392
13222TIP3   OH261080   2.167   3.295  12.845  0.0512  0.3341 -0.3867
13222TIP3    H161081   2.144   3.207  12.873  2.1943 -0.4466 -0.8472
13222TIP3    H261082   2.179   3.345  12.926 -1.4974  0.3368 -0.1322
13223TIP3   OH261083   0.345   1.446   3.808 -0.3324  0.2127  0.4999
13223TIP3    H161084   0.254   1.468   3.825 -0.3785 -0.0522  0.6073
13223TIP3    H261085   0.393   1.527   3.826 -0.5316  0.3188  0.5605
13224TIP3   OH261086   6.718   6.432   5.934  0.2668 -0.5633  0.1363
13224TIP3    H161087   6.760   6.469   6.011  0.5670  0.5324 -0.5279
13224TIP3    H261088   6.624   6.434   5.955  0.1650  1.5359 -0.2210
13225TIP3   OH261089   0.546   2.906  16.729 -0.3152  0.4945  0.4387
13225TIP3    H161090   0.568   2.862  16.811 -0.1997  0.7864  0.5701
13225TIP3    H261091   0.619   2.886  16.670 -0.1422  0.7128  0.5781
13226TIP3   OH261092   3.949   3.959  10.714  0.0127 -0.3542 -0.0453
13226TIP3    H161093   3.868   3.957  10.664 -0.2164 -0.5340  0.3284
13226TIP3    H261094   4.009   4.011  10.660 -0.6343  0.5655  0.1000
13227TIP3   OH261095   2.216   6.535  14.776 -0.0994  0.5833 -0.2840
13227TIP3    H161096   2.301   6.527  14.731  0.1072  0.2014  0.1657
13227TIP3    H261097   2.230   6.491  14.860 -0.2854  1.8433  0.4203
13228TIP3   OH261098   6.218   3.958  14.447  0.2822  0.1731  1.0947
13228TIP3    H161099   6.146   4.021  14.449  1.4707  1.6143  0.5942
13228TIP3    H261100   6.209   3.907  14.528 -2.8604 -1.5906 -0.2102
13229TIP3   OH261101   3.533   3.205   4.797 -0.4714 -0.0617 -0.3090
13229TIP3    H161102   3.444   3.175   4.776 -0.1313 -1.1794 -0.2084
13229TIP3    H261103   3.571   3.133   4.847 -0.2204  1.2718  1.5263
13230TIP3   OH261104   3.686   5.965   3.854 -0.2243  0.1597  0.1468
13230TIP3    H161105   3.760   6.016   3.822 -0.9589  1.0311 -0.1913
13230TIP3    H261106   3.626   6.030   3.891 -0.8399 -0.5325  0.3943
13231TIP3   OH261107   0.784   2.884   3.515 -0.0880 -0.0952  0.2770
13231TIP3    H161108   0.857   2.942   3.494 -0.8873  0.5505 -0.8293
13231TIP3    H261109   0.729   2.935   3.575 -1.7016  1.1026 -2.0242
13232TIP3   OH261110   6.471   0.137  11.039 -0.5705  0.7380 -0.0798
13232TIP3    H161111   6.430   0.221  11.063 -0.1459  1.2222 -1.0138
13232TIP3    H261112   6.559   0.160  11.010 -0.2625 -0.0980  0.1564
13233TIP3   OH261113   5.795   5.675  14.933  0.1715 -0.1276 -0.2247
13233TIP3    H161114   5.755   5.720  15.008  0.6994 -0.6738  0.3929
13233TIP3    H261115   5.733   5.689  14.862 -0.1539  0.7373  0.2046
13234TIP3   OH261116   1.607   4.984  17.226 -0.2132 -0.2863 -0.5343
13234TIP3    H161117   1.594   4.889  17.233 -1.0342 -0.1812 -0.5648
13234TIP3    H261118   1.562   5.009  17.146  0.5520  0.0410 -0.8686
13235TIP3   OH261119   3.841   5.943  16.301  0.2495 -0.1127 -0.2530
13235TIP3    H161120   3.848   5.882  16.227 -0.6436 -1.0245  0.3871
13235TIP3    H261121   3.753   5.929  16.335 -0.7712  3.0117 -1.3184
13236TIP3   OH261122   1.460   6.597   3.094 -0.3507  0.1830  0.0031
13236TIP3    H161123   1.400   6.671   3.101 -1.4153 -0.7721  1.7341
13236TIP3    H261124   1.450   6.566   3.004 -1.2681  1.0190 -0.1993
13237TIP3   OH261125   5.296   0.479   6.093  0.3442 -0.0364 -0.1702
13237TIP3    H161126   5.307   0.540   6.020  1.2343 -1.1815 -1.0284
13237TIP3    H261127   5.212   0.503   6.132 -0.5464  0.1113 -2.0653
13238TIP3   OH261128   1.331   4.191  12.022 -0.1001  0.4150  0.0731
13238TIP3    H161129   1.293   4.259  12.077  1.0867  1.4975 -0.3761
13238TIP3    H261130   1.284   4.199  11.939  0.8677  1.5777 -0.3988
13239TIP3   OH261131   1.715   2.740   5.900 -0.2199  0.4262 -0.5354
13239TIP3    H161132   1.728   2.785   5.983 -3.5235 -0.8421  0.8451
13239TIP3    H261133   1.635   2.778   5.863 -2.2078 -2.8854 -0.1130
13240TIP3   OH261134   3.200   2.750   2.564 -0.2500 -0.2887  0.1665
13240TIP3    H161135   3.219   2.656   2.563 -1.9262 -0.7087  1.9665
13240TIP3    H261136   3.155   2.765   2.647 -0.4164  2.0483 -0.2658
13241TIP3   OH261137   1.037   5.850  12.440 -0.1768  0.2443 -0.6220
13241TIP3    H161138   0.960   5.905  12.455  2.6489  4.2609  0.8597
13241TIP3    H261139   1.062   5.867  12.349  0.1713  0.7179 -0.4417
13242TIP3   OH261140   6.276   6.149   6.115 -0.4959 -0.2032 -0.2978
13242TIP3    H161141   6.355   6.097   6.102 -1.1663 -1.2659 -0.1964
13242TIP3    H261142   6.253   6.179   6.027  0.1211  0.2742 -0.3022
13243TIP3   OH261143   1.592   5.278  16.853  0.4020  0.1296  0.2239
13243TIP3    H161144   1.674   5.236  16.877  1.2991  2.2433  1.1216
13243TIP3    H261145   1.604   5.370  16.877 -2.3923  0.4410  0.7778
13244TIP3   OH261146   6.299   0.853  15.410 -1.1056 -0.0982  0.7762
13244TIP3    H161147   6.379   0.834  15.361 -2.4942 -2.8417 -0.7019
13244TIP3    H261148   6.329   0.864  15.501  0.9949 -0.4133  0.1859
13245TIP3   OH261149   0.819   4.558   0.449 -0.3751  0.1517 -0.3434
13245TIP3    H161150   0.889   4.602   0.400  0.0951 -0.3130 -0.0928
13245TIP3    H261151   0.820   4.601   0.535 -2.9972  2.9113 -1.4837
13246TIP3   OH261152   4.028   1.419   2.621  0.0648 -0.0653 -0.1885
13246TIP3    H161153   3.975   1.468   2.558  0.2189  1.2075  0.6484
13246TIP3    H261154   4.114   1.461   2.617 -0.3606  1.1359  2.0487
13247TIP3   OH261155   3.405   2.268  11.073  0.3936 -0.5711  0.8883
13247TIP3    H161156   3.373   2.195  11.020  1.3238 -1.5893  1.6686
13247TIP3    H261157   3.335   2.334  11.069 -1.9633 -2.7575  2.7293
13248TIP3   OH261158   5.892   4.773   4.179 -0.3541 -0.2808 -0.5886
13248TIP3    H161159   5.831   4.757   4.107 -0.5580 -0.8956 -0.2942
13248TIP3    H261160   5.955   4.701   4.173 -0.5045 -0.4653 -0.0250
13249TIP3   OH261161   0.938   6.719   3.558 -0.2253  0.4744  0.4146
13249TIP3    H161162   0.892   6.797   3.588 -1.3445  0.4303 -1.0715
13249TIP3    H261163   0.872   6.668   3.512  1.1183  0.0089 -1.1055
13250TIP3   OH261164   2.079   3.344   2.045  0.1697  0.2873 -0.4343
13250TIP3    H161165   2.031   3.264   2.067 -1.5064  1.2365 -0.4939
13250TIP3    H261166   2.012   3.407   2.020  1.3205  2.1062  0.7306
13251TIP3   OH261167   5.259   1.652  16.036 -0.1398 -0.3814 -0.3216
13251TIP3    H161168   5.317   1.687  16.104 -0.3865 -0.4884 -0.0521
13251TIP3    H261169   5.282   1.559  16.030 -0.4278 -0.4706 -0.0640
13252TIP3   OH261170   3.682   6.448  12.302 -0.0325  0.2648  0.2325
13252TIP3    H161171   3.669   6.531  12.349 -0.0696  0.7189 -0.5555
13252TIP3    H261172   3.775   6.449  12.278 -0.5936  1.4256 -2.1928
13253TIP3   OH261173   0.417   5.861   6.500 -0.4346  0.1031 -0.7822
13253TIP3    H161174   0.394   5.771   6.523  0.0538  0.5117  1.5545
13253TIP3    H261175   0.344   5.891   6.447 -1.1863 -1.3069 -0.6024
13254TIP3   OH261176   5.869   0.830  12.665 -0.3206 -0.2459 -0.8741
13254TIP3    H161177   5.932   0.777  12.713 -0.5384 -0.2852 -0.6340
13254TIP3    H261178   5.806   0.767  12.629  0.4210 -0.3235 -2.0932
13255TIP3   OH261179   2.415   0.878  14.231 -0.3649  0.1681  0.1980
13255TIP3    H161180   2.322   0.858  14.238 -0.3604  0.4114  1.0589
13255TIP3    H261181   2.456   0.832  14.305 -0.0114  1.2525  0.6956
13256TIP3   OH261182   6.044   3.384  15.605 -0.0767  0.2352 -0.1577
13256TIP3    H161183   5.969   3.327  15.620  1.2726 -1.8561 -0.8420
13256TIP3    H261184   6.110   3.356  15.669  1.6444 -1.0593 -2.3290
13257TIP3   OH261185   0.511   4.328   2.044 -0.4792  0.2398 -0.0535
13257TIP3    H161186   0.423   4.294   2.058 -0.7954  0.7375 -0.7802
13257TIP3    H261187   0.524   4.323   1.950 -0.3679  1.6873 -0.1421
13258TIP3   OH261188   6.049   1.442   5.733 -0.3756  0.1828 -0.4457
13258TIP3    H161189   5.955   1.429   5.749 -0.2615  0.7183  0.8508
13258TIP3    H261190   6.082   1.478   5.816  0.3543  3.1538 -1.8768
13259TIP3   OH261191   1.976   2.293   5.859  0.5358  0.0268 -0.6148
13259TIP3    H161192   1.893   2.277   5.905  0.7776  1.8123  0.5678
13259TIP3    H261193   2.039   2.234   5.901  0.5241  0.9207  0.7322
13260TIP3   OH261194   6.178   1.697  15.195 -0.4460  0.1656 -0.1957
13260TIP3    H161195   6.246   1.659  15.250  0.0874  0.0131 -0.9610
13260TIP3    H261196   6.194   1.662  15.108  0.1665  2.2268 -0.9661
13261TIP3   OH261197   0.817   4.975   4.755 -0.5095 -0.2170  0.3632
13261TIP3    H161198   0.738   4.922   4.753 -0.2723 -0.5934  0.8246
13261TIP3    H261199   0.889   4.912   4.765 -0.0342  0.0027 -1.3344
13262TIP3   OH261200   4.039   3.513   1.599  0.0144  0.0485  0.0435
13262TIP3    H161201   4.085   3.459   1.663 -0.5884 -1.1141 -0.4881
13262TIP3    H261202   4.019   3.454   1.527 -1.0497  0.8690 -0.3630
13263TIP3   OH261203   2.432   5.548  14.159 -0.6296 -0.1963 -0.5791
13263TIP3    H161204   2.444   5.482  14.227 -3.7543  0.4160  0.7336
13263TIP3    H261205   2.428   5.632  14.206 -1.1224  0.4438 -1.6990
13264TIP3   OH261206   4.918   1.317  13.795 -0.3255 -0.4102  1.3217
13264TIP3    H161207   4.963   1.333  13.879  1.8797  0.3092  0.0813
13264TIP3    H261208   4.911   1.404  13.755  0.5598 -0.9709 -0.1234
13265TIP3   OH261209   5.724   2.516  15.974  0.1307  0.1777  0.5321
13265TIP3    H161210   5.667   2.574  15.923 -0.6856 -0.5465  0.6017
13265TIP3    H261211   5.664   2.469  16.033  0.9161  0.1044  1.2954
13266TIP3   OH261212   3.988   6.650  11.426  0.0287  0.4758 -0.1668
13266TIP3    H161213   3.957   6.681  11.511 -1.4855 -1.6111  0.1080
13266TIP3    H261214   4.069   6.603  11.445 -1.3245 -1.7470  0.5339
13267TIP3   OH261215   5.152   0.232  16.951 -0.1540 -0.5718 -0.5332
13267TIP3    H161216   5.236   0.209  16.991  0.4139 -1.2130 -2.0286
13267TIP3    H261217   5.094   0.247  17.025  1.5697  1.1070  0.5556
13268TIP3   OH261218   2.141   6.645  14.514 -0.2427  0.0256 -0.8171
13268TIP3    H161219   2.047   6.665  14.518 -0.5379 -1.4136 -0.1246
13268TIP3    H261220   2.164   6.621  14.604  0.3478 -1.4849 -1.3461
13269TIP3   OH261221   5.222   4.351  11.699  0.4413  0.3485  0.3881
13269TIP3    H161222   5.205   4.265  11.737 -0.3190 -0.1436 -1.0269
13269TIP3    H261223   5.315   4.367  11.718  0.7777 -1.0939  0.0705
13270TIP3   OH261224   4.488   4.514   1.785 -0.4199  0.5161 -0.2020
13270TIP3    H161225   4.511   4.444   1.845  0.7231  0.9918 -0.0719
13270TIP3    H261226   4.397   4.536   1.807 -0.7287 -0.7603 -0.1087
13271TIP3   OH261227   1.814   5.738   5.437  0.2698 -0.1007 -0.4523
13271TIP3    H161228   1.766   5.656   5.427 -1.3171  0.5141  1.5297
13271TIP3    H261229   1.757   5.805   5.401  1.6756  0.1631 -2.3122
13272TIP3   OH261230   4.301   1.601  16.327 -0.7401 -0.0144 -0.6700
13272TIP3    H161231   4.235   1.557  16.274 -1.2163 -2.2828  1.6185
13272TIP3    H261232   4.265   1.599  16.416  0.8515  1.9316  0.0843
13273TIP3   OH261233   4.152   0.282  11.378  0.4344 -0.0264 -0.3360
13273TIP3    H161234   4.194   0.239  11.303 -0.1774  0.3139 -0.8834
13273TIP3    H261235   4.064   0.244  11.381  0.7605 -0.7455  0.8112
13274TIP3   OH261236   4.294   1.305   5.728 -0.1340  0.0383  1.1311
13274TIP3    H161237   4.228   1.236   5.733 -0.5087  0.0577 -1.5643
13274TIP3    H261238   4.375   1.264   5.758 -0.0213 -2.1502 -1.7521
13275TIP3   OH261239   5.743   4.236  11.753 -0.3521 -0.2803  0.1735
13275TIP3    H161240   5.745   4.329  11.733  0.0824 -0.3223 -0.0058
13275TIP3    H261241   5.817   4.200  11.704  0.4127 -0.4787  1.4238
13276TIP3   OH261242   5.202   1.522  16.424  0.2790 -0.2129  0.4502
13276TIP3    H161243   5.226   1.477  16.342 -0.7682 -1.1830  0.6494
13276TIP3    H261244   5.133   1.583  16.398  1.3393  0.9418  0.2721
13277TIP3   OH261245   2.305   2.208  16.784 -0.0181 -0.6830 -0.5613
13277TIP3    H161246   2.393   2.174  16.768 -0.5836 -2.4227 -0.1816
13277TIP3    H261247   2.316   2.270  16.856  1.2059  0.8075 -1.9557
13278TIP3   OH261248   2.764   0.629  11.756  0.4983 -0.5548 -0.5021
13278TIP3    H161249   2.820   0.552  11.749 -0.4753 -1.5114  1.4285
13278TIP3    H261250   2.680   0.595  11.786 -0.9063  0.9432 -2.5221
13279TIP3   OH261251   0.584   5.920   5.440  0.0645  0.3559  0.1486
13279TIP3    H161252   0.666   5.908   5.391  0.8580 -0.5877  1.6392
13279TIP3    H261253   0.517   5.886   5.381  0.4547  2.7001 -1.8128
13280TIP3   OH261254   4.237   1.986   2.983 -0.3069  0.0663  0.4527
13280TIP3    H161255   4.184   2.059   3.013 -0.7608  1.6481 -3.5779
13280TIP3    H261256   4.218   1.916   3.045 -3.1904  2.0738  2.0944
13281TIP3   OH261257   2.312   1.424   5.666  0.3995 -0.1103 -0.3094
13281TIP3    H161258   2.254   1.419   5.590 -1.6894  1.1892  1.0857
13281TIP3    H261259   2.401   1.423   5.629 -0.5345  0.7072 -2.7561
13282TIP3   OH261260   1.589   5.309   1.779 -0.4286  0.3408 -0.8467
13282TIP3    H161261   1.681   5.324   1.760 -0.2176  0.5447  0.3036
13282TIP3    H261262   1.551   5.397   1.784 -0.6558  0.2627 -1.1482
13283TIP3   OH261263   1.448   4.802  14.218 -0.6382 -0.3487 -0.3730
13283TIP3    H161264   1.479   4.889  14.243 -1.3718 -0.4849  1.1377
13283TIP3    H261265   1.357   4.816  14.192 -0.0511 -0.3030 -2.5766
13284TIP3   OH261266   5.459   2.613   0.744  0.0766  0.0807 -0.6925
13284TIP3    H161267   5.487   2.526   0.774  0.6983  0.4585 -0.1674
13284TIP3    H261268   5.418   2.653   0.821  1.7366  1.0781 -0.2689
13285TIP3   OH261269   3.354   6.770  14.414 -0.4220 -0.7696 -0.2791
13285TIP3    H161270   3.329   6.744  14.502  0.2554 -0.4414  0.0189
13285TIP3    H261271   3.448   6.750  14.408 -0.2918 -0.1014 -0.6563
13286TIP3   OH261272   2.718   3.159  14.669  0.1254 -0.2511  0.3505
13286TIP3    H161273   2.643   3.101  14.680 -0.5338  0.5890  0.3356
13286TIP3    H261274   2.771   3.146  14.748 -0.4856 -0.1906  0.7713
13287TIP3   OH261275   4.153   2.834  15.876  0.0742  0.5843 -0.0185
13287TIP3    H161276   4.209   2.799  15.806 -0.6687 -0.1365 -0.2690
13287TIP3    H261277   4.211   2.840  15.952  0.0687 -1.9846  0.2641
13288TIP3   OH261278   6.588   4.949  12.729  0.0738 -0.2822  0.6474
13288TIP3    H161279   6.523   5.019  12.726  0.0838 -0.2886  0.2140
13288TIP3    H261280   6.669   4.990  12.696 -0.1582 -0.7483 -0.5496
13289TIP3   OH261281   6.050   2.872  14.865  0.5589 -0.0770  0.4912
13289TIP3    H161282   6.011   2.785  14.869  0.2778 -0.3476 -3.5598
13289TIP3    H261283   5.978   2.932  14.880 -0.1999 -0.6022 -0.8629
13290TIP3   OH261284   5.151   4.608  17.141  0.2329 -0.0751  0.2250
13290TIP3    H161285   5.236   4.640  17.113 -0.2384 -0.2601 -1.5425
13290TIP3    H261286   5.105   4.587  17.059 -1.2918 -0.5215  1.1543
13291TIP3   OH261287   5.045   1.385   3.260  0.0766  0.1439 -0.0353
13291TIP3    H161288   5.123   1.335   3.282  0.3224 -0.0992 -1.3787
13291TIP3    H261289   5.078   1.474   3.243 -0.3711  0.8809  2.4713
13292TIP3   OH261290   6.576   0.103  15.522  0.3105  0.1963 -0.5645
13292TIP3    H161291   6.629   0.029  15.493  0.0775  0.3248 -1.3354
13292TIP3    H261292   6.505   0.064  15.573 -0.7520 -0.2830 -2.3223
13293TIP3   OH261293   5.873   2.387   2.430  0.1953  0.0117 -0.0387
13293TIP3    H161294   5.930   2.455   2.467  1.6461  0.1077 -2.2682
13293TIP3    H261295   5.792   2.433   2.409  0.3242  0.5296  0.5505
13294TIP3   OH261296   6.180   3.447   4.648  0.3232  0.6426  0.0986
13294TIP3    H161297   6.115   3.403   4.703  0.7423  0.2081  0.2624
13294TIP3    H261298   6.165   3.413   4.560 -0.5302  1.5495 -0.1105
13295TIP3   OH261299   6.379   1.183   2.999 -0.7774  0.1365  0.3752
13295TIP3    H161300   6.381   1.102   3.050 -0.5494 -0.2658 -0.2571
13295TIP3    H261301   6.441   1.168   2.928 -0.6983  0.8883  0.2774
13296TIP3   OH261302   2.424   3.025  12.767  0.1135 -0.8015  0.5243
13296TIP3    H161303   2.432   3.061  12.679  0.4463 -0.4408  0.6997
13296TIP3    H261304   2.460   3.093  12.825  1.5699 -1.7328  0.7854
13297TIP3   OH261305   2.707   5.327  16.400 -0.3207 -0.5120 -0.0964
13297TIP3    H161306   2.667   5.242  16.383 -0.0616 -0.2984 -1.9940
13297TIP3    H261307   2.673   5.384  16.330  2.4868 -0.0706 -1.2527
13298TIP3   OH261308   5.266   3.178   3.160 -0.4706  0.0563 -0.7535
13298TIP3    H161309   5.265   3.266   3.198 -2.5091 -0.3827  0.3301
13298TIP3    H261310   5.343   3.136   3.198  0.2619  1.1938 -0.9219
13299TIP3   OH261311   5.053   5.778   3.999  0.1430  0.7343  0.4808
13299TIP3    H161312   5.008   5.715   4.056 -0.1626  0.5363  0.0346
13299TIP3    H261313   5.146   5.758   4.010  0.0059 -0.7161 -0.6572
13300TIP3   OH261314   0.315   4.181  14.136  0.5057  0.0534 -0.4988
13300TIP3    H161315   0.252   4.229  14.083 -0.9349 -1.7449 -0.4859
13300TIP3    H261316   0.380   4.247  14.162 -0.8008  1.7356 -1.3507
13301TIP3   OH261317   0.081   6.731   3.183  0.0479 -0.1984 -0.0998
13301TIP3    H161318   0.126   6.816   3.185 -1.0388  0.3659  1.2282
13301TIP3    H261319   0.150   6.668   3.203  0.6671  0.4462 -0.1383
13302TIP3   OH261320   1.600   2.550  14.282 -0.0604  0.4260  0.0008
13302TIP3    H161321   1.513   2.588  14.269 -0.3525  0.4683  1.7774
13302TIP3    H261322   1.606   2.536  14.377  1.3451 -0.8524 -0.2364
13303TIP3   OH261323   4.047   1.965   4.677 -0.3183 -1.0156  0.4747
13303TIP3    H161324   4.018   2.056   4.689  0.4568 -0.4093 -1.7209
13303TIP3    H261325   3.974   1.923   4.631  0.9279 -0.3159 -2.2867
13304TIP3   OH261326   3.891   6.080  13.185 -0.2655  0.1706 -0.0570
13304TIP3    H161327   3.903   6.107  13.276  1.1757 -1.0290  0.1403
13304TIP3    H261328   3.933   5.994  13.179 -1.3411 -0.2981 -1.5854
13305TIP3   OH261329   1.840   5.111  11.292 -0.1375 -0.1041 -0.4475
13305TIP3    H161330   1.784   5.051  11.243 -1.0902  2.3031 -2.4975
13305TIP3    H261331   1.920   5.117  11.240  0.7121 -0.9311  0.7071
13306TIP3   OH261332   2.431   5.567   3.026  0.2604 -0.4185 -0.3449
13306TIP3    H161333   2.346   5.550   2.988 -0.1644  1.7445 -0.5243
13306TIP3    H261334   2.419   5.555   3.120 -0.5849  0.9191 -0.2540
13307TIP3   OH261335   4.905   1.872   2.993  0.5593  0.5949  0.1946
13307TIP3    H161336   4.888   1.890   3.086 -0.2319 -3.8122  1.1425
13307TIP3    H261337   4.994   1.838   2.991  0.4142  0.2389 -0.5708
13308TIP3   OH261338   5.029   4.568  16.890 -0.2729 -0.0621  0.7959
13308TIP3    H161339   4.967   4.497  16.903  1.1979 -1.2825  1.3612
13308TIP3    H261340   5.034   4.579  16.795 -0.3315 -0.8756  0.6944
13309TIP3   OH261341   4.743   1.731  15.046  0.6164 -0.2336 -0.2682
13309TIP3    H161342   4.674   1.687  15.096  0.3309  1.1895  0.6509
13309TIP3    H261343   4.810   1.752  15.111  0.6592  0.8338 -0.6409
13310TIP3   OH261344   3.279   6.154  13.349  0.1260 -0.4440 -0.7287
13310TIP3    H161345   3.192   6.133  13.382 -0.0560 -0.7902 -1.4078
13310TIP3    H261346   3.273   6.246  13.321  0.7783  0.4665  1.7638
13311TIP3   OH261347   5.914   4.087   5.144  0.1934 -0.3439  0.6463
13311TIP3    H161348   6.002   4.052   5.150  1.5327  2.7207  0.5898
13311TIP3    H261349   5.891   4.078   5.052  0.8667 -0.2415  0.4636
13312TIP3   OH261350   2.637   5.723   5.285 -0.1341  0.8106  0.1524
13312TIP3    H161351   2.668   5.635   5.306 -2.4976 -0.2522 -0.4910
13312TIP3    H261352   2.602   5.756   5.368  0.8609  1.2173  0.4216
13313TIP3   OH261353   2.306   3.969   2.552  0.0514  0.1782  0.1595
13313TIP3    H161354   2.273   3.917   2.480  0.5642  0.1767 -0.0761
13313TIP3    H261355   2.284   3.919   2.631 -0.7324  0.3041  0.0254
13314TIP3   OH261356   2.329   4.433   2.012  0.0126 -0.2464  0.6365
13314TIP3    H161357   2.405   4.414   1.956 -0.5529 -0.3228 -0.1304
13314TIP3    H261358   2.253   4.409   1.958 -0.5186 -2.5756  2.2925
13315TIP3   OH261359   2.075   5.339   0.089 -0.0620  0.5229  0.4311
13315TIP3    H161360   2.030   5.423   0.099 -1.0508 -0.2135  3.0844
13315TIP3    H261361   2.004   5.275   0.083  0.6817 -0.2164 -1.3839
13316TIP3   OH261362   6.660   4.458   2.029 -0.2186 -0.2015 -0.1777
13316TIP3    H161363   6.677   4.463   2.123 -2.9875 -1.7827  0.5346
13316TIP3    H261364   6.734   4.408   1.994  0.7984  0.2996  1.1745
13317TIP3   OH261365   2.378   6.576   3.326  0.1302 -0.2282  0.1069
13317TIP3    H161366   2.334   6.494   3.304 -0.5488 -0.6013  2.5728
13317TIP3    H261367   2.448   6.550   3.385  0.4278  0.8901  0.2623
13318TIP3   OH261368   4.194   3.269  17.236  0.2447  0.0686 -0.1667
13318TIP3    H161369   4.261   3.222  17.187  0.4479  0.2156 -0.0330
13318TIP3    H261370   4.238   3.296  17.317 -0.1640 -0.4069  0.2156
13319TIP3   OH261371   3.302   4.215   4.478  0.2751  0.2697 -0.2301
13319TIP3    H161372   3.288   4.268   4.400 -0.0647  1.3242  0.5175
13319TIP3    H261373   3.320   4.279   4.547  0.9756 -0.6602  0.4693
13320TIP3   OH261374   6.162   3.445   1.543  0.3113 -0.0575  0.2353
13320TIP3    H161375   6.136   3.413   1.456  2.4207  0.4202 -0.6283
13320TIP3    H261376   6.139   3.538   1.542  1.4764  0.2425 -0.3272
13321TIP3   OH261377   0.404   4.366  16.105 -0.4326 -0.0128  0.1622
13321TIP3    H161378   0.354   4.417  16.169 -1.5525  0.3164 -0.9262
13321TIP3    H261379   0.357   4.283  16.098  0.3031 -0.4675  0.5395
13322TIP3   OH261380   5.384   4.734  17.030  0.5896  0.1346  0.1285
13322TIP3    H161381   5.356   4.809  17.082  0.7551 -0.6639  1.4127
13322TIP3    H261382   5.433   4.773  16.957 -0.4651  1.3248  0.0247
13323TIP3   OH261383   0.571   3.366   2.079  0.1418  0.3110  0.3930
13323TIP3    H161384   0.529   3.437   2.128  1.0603  0.5196  0.9029
13323TIP3    H261385   0.498   3.313   2.047 -0.5145  0.7857  1.0647
13324TIP3   OH261386   2.035   0.107  15.739 -0.4178 -0.1531  0.0311
13324TIP3    H161387   1.984   0.118  15.658 -0.5587 -1.2407 -0.0494
13324TIP3    H261388   2.000   0.173  15.799 -0.3348  0.6473 -0.7752
13325TIP3   OH261389   2.451   0.677   4.800 -0.2151  0.3072 -0.2730
13325TIP3    H161390   2.405   0.620   4.862  2.9936 -1.9247  0.3473
13325TIP3    H261391   2.406   0.662   4.717 -2.1981  0.3330  0.7300
13326TIP3   OH261392   5.689   5.129  12.382  0.0955 -0.2015 -0.5283
13326TIP3    H161393   5.652   5.202  12.333  0.5008 -0.0600 -0.6257
13326TIP3    H261394   5.612   5.079  12.412 -0.1515 -1.0247 -2.3947
13327TIP3   OH261395   5.814   5.335   4.337  0.5711 -0.3815 -0.1723
13327TIP3    H161396   5.863   5.266   4.292 -0.3581  0.2193 -2.2492
13327TIP3    H261397   5.846   5.333   4.427  2.6209 -1.6083 -0.8644
13328TIP3   OH261398   2.330   4.988   5.353  0.1409 -0.3245  0.2205
13328TIP3    H161399   2.315   4.963   5.262 -3.3950  0.1076  0.5161
13328TIP3    H261400   2.318   5.083   5.354 -0.4031 -0.3869  1.1794
13329TIP3   OH261401   0.186   2.823  16.618  0.0022  0.2289 -0.5189
13329TIP3    H161402   0.144   2.896  16.664 -0.7029 -0.7392  0.4448
13329TIP3    H261403   0.219   2.861  16.537  2.9754  2.4655  1.5306
13330TIP3   OH261404   3.305   4.060   1.684 -0.0809 -0.1106 -0.5356
13330TIP3    H161405   3.335   4.134   1.631  2.5363 -0.6060  0.0986
13330TIP3    H261406   3.289   4.097   1.771 -0.8709  0.0684 -0.7522
13331TIP3   OH261407   0.549   2.368   2.735  0.3166 -0.4671  0.0581
13331TIP3    H161408   0.588   2.335   2.653  1.8653 -0.9032  0.9200
13331TIP3    H261409   0.620   2.419   2.776 -0.6391  0.2670  0.8358
13332TIP3   OH261410   3.154   6.658  12.247 -0.4540  0.8753 -0.2236
13332TIP3    H161411   3.207   6.579  12.259  0.6534  1.8635  1.9493
13332TIP3    H261412   3.065   6.625  12.234 -0.2746 -0.7786  2.0798
13333TIP3   OH261413   1.771   2.007   2.561 -0.1858  0.0578 -0.8192
13333TIP3    H161414   1.714   1.932   2.548  0.3459 -0.2549 -1.3753
13333TIP3    H261415   1.849   1.989   2.508 -0.1092  1.0573 -1.0773
13334TIP3   OH261416   3.741   3.454   5.913  0.1723  0.4605  0.4477
13334TIP3    H161417   3.708   3.544   5.920 -0.0084  0.2867  3.9025
13334TIP3    H261418   3.682   3.403   5.968  1.7339 -1.2896  0.6015
13335TIP3   OH261419   4.811   1.204   2.414  0.3403 -0.4985 -0.2730
13335TIP3    H161420   4.750   1.131   2.423 -1.3963  0.8466 -0.4783
13335TIP3    H261421   4.865   1.202   2.493 -0.0693 -1.6293 -0.0125
13336TIP3   OH261422   2.820   2.219  17.313 -0.4379 -0.0257  0.4092
13336TIP3    H161423   2.763   2.143  17.321 -1.9944  1.1931  1.6856
13336TIP3    H261424   2.871   2.221  17.395  1.4007 -1.0109 -0.6476
13337TIP3   OH261425   5.730   6.035  11.961 -0.1680 -0.7078 -0.2414
13337TIP3    H161426   5.776   6.090  11.897 -0.2598  0.1160  0.3898
13337TIP3    H261427   5.681   5.972  11.907 -3.2537  2.2245 -1.2369
13338TIP3   OH261428   1.541   0.596  12.334 -0.4388  0.0790 -0.4098
13338TIP3    H161429   1.473   0.659  12.307 -1.1946  0.6272  2.4798
13338TIP3    H261430   1.497   0.539  12.398  1.5628 -0.1559  0.8351
13339TIP3   OH261431   3.848   2.146   0.704 -0.4465  0.0859 -0.4829
13339TIP3    H161432   3.814   2.068   0.748  0.8056  0.5769  1.4748
13339TIP3    H261433   3.859   2.119   0.613  0.8698 -2.3644  0.3054
13340TIP3   OH261434   3.284   2.605  14.363  1.1610 -0.2511 -0.4987
13340TIP3    H161435   3.367   2.557  14.374  0.8969 -0.7908 -0.8155
13340TIP3    H261436   3.230   2.547  14.310  1.1077  0.7288 -1.5620
13341TIP3   OH261437   0.500   3.959   1.366  0.6245  0.3819 -0.0358
13341TIP3    H161438   0.500   3.877   1.315  0.0532 -0.1497  0.8048
13341TIP3    H261439   0.593   3.977   1.381  0.7718  0.1508 -0.6355
13342TIP3   OH261440   5.641   0.821   5.964 -0.0015 -0.0072 -0.1222
13342TIP3    H161441   5.659   0.750   5.903  0.9541  0.0627  0.0586
13342TIP3    H261442   5.679   0.898   5.922 -0.2204  0.2239  0.1035
13343TIP3   OH261443   3.465   5.115   5.640  0.1674  0.3832 -0.2224
13343TIP3    H161444   3.420   5.136   5.558 -0.5651  1.4179  0.4097
13343TIP3    H261445   3.552   5.153   5.630 -0.5722  2.3539  0.2224
13344TIP3   OH261446   2.918   1.883  14.485 -0.0415 -0.3921  0.5768
13344TIP3    H161447   2.894   1.900  14.576  2.3654 -0.5702  1.3167
13344TIP3    H261448   2.964   1.799  14.488  1.9911  0.6217 -0.3971
13345TIP3   OH261449   6.750   4.672  12.295  0.3383 -0.4660  0.0649
13345TIP3    H161450   6.808   4.748  12.292 -0.0577 -0.1855 -0.8150
13345TIP3    H261451   6.808   4.598  12.313  0.8390 -0.0588  0.1283
13346TIP3   OH261452   4.447   2.073  13.282 -0.3322  0.2382 -0.2520
13346TIP3    H161453   4.478   2.136  13.218 -0.9085  0.2271 -0.5483
13346TIP3    H261454   4.455   2.118  13.366  0.4195  0.2534 -0.3219
13347TIP3   OH261455   0.027   1.301  11.845  0.7130 -0.1744 -0.9186
13347TIP3    H161456   0.015   1.396  11.852  1.6649 -0.0428 -0.9799
13347TIP3    H261457  -0.031   1.275  11.773  0.6492  0.4010 -1.0812
13348TIP3   OH261458   2.927   3.323  12.843  0.5174  0.5145 -0.3085
13348TIP3    H161459   2.951   3.374  12.920  0.4407 -0.5396  0.4387
13348TIP3    H261460   2.975   3.241  12.852  0.1785  0.2042 -1.1687
13349TIP3   OH261461   6.057   5.445   6.152 -0.0090 -0.4929  0.0324
13349TIP3    H161462   6.144   5.404   6.149  0.4475  0.3515  0.8903
13349TIP3    H261463   5.995   5.372   6.145  0.7572 -1.0408 -1.3600
13350TIP3   OH261464   3.067   2.993  14.186 -0.0887 -0.2083 -0.0724
13350TIP3    H161465   3.064   3.080  14.225 -0.1367  0.3054 -1.1848
13350TIP3    H261466   3.142   2.951  14.228  0.8700  0.9174 -0.6096
13351TIP3   OH261467   0.118   4.825  11.346 -0.1047 -0.1314  0.2171
13351TIP3    H161468   0.061   4.760  11.304 -0.4397  0.3828 -0.1355
13351TIP3    H261469   0.196   4.828  11.291  0.1281 -0.5891  0.5113
13352TIP3   OH261470   3.220   2.361  11.411  0.2897  0.4096  0.3026
13352TIP3    H161471   3.172   2.426  11.463 -0.9962 -0.1988 -0.0862
13352TIP3    H261472   3.212   2.391  11.321  0.9662  0.4946  0.2674
13353TIP3   OH261473   5.343   5.676  12.939  0.1377  0.6588  0.2620
13353TIP3    H161474   5.273   5.738  12.959  0.4796  1.4438 -0.8638
13353TIP3    H261475   5.353   5.625  13.019 -0.2231  1.9905  1.2005
13354TIP3   OH261476   2.607   2.704  13.973 -0.3665  0.4968 -0.7030
13354TIP3    H161477   2.549   2.692  13.898 -0.6951 -0.0093 -0.3721
13354TIP3    H261478   2.632   2.615  13.999 -0.2329  0.6679 -0.2324
13355TIP3   OH261479   2.791   3.414   4.385 -0.0692  0.2403 -0.1331
13355TIP3    H161480   2.876   3.454   4.366  0.6939 -1.0112  0.4854
13355TIP3    H261481   2.797   3.390   4.478 -1.1426  0.2034 -0.0651
13356TIP3   OH261482   3.208   1.962   0.582  0.9127 -0.0313 -0.1857
13356TIP3    H161483   3.248   2.047   0.603  0.0032  0.0633  1.3121
13356TIP3    H261484   3.168   1.975   0.496 -2.7410  2.4636  1.6439
13357TIP3   OH261485   2.258   5.609  16.517  0.0674 -0.0075 -0.5094
13357TIP3    H161486   2.323   5.634  16.451  0.0776 -1.3407 -1.0232
13357TIP3    H261487   2.276   5.517  16.536 -0.5295  0.1029  0.6748
13358TIP3   OH261488   3.956   3.814   5.094  0.0800 -0.5160 -0.7561
13358TIP3    H161489   4.043   3.785   5.119  0.7297  2.4646  0.8293
13358TIP3    H261490   3.898   3.774   5.159  0.4238 -1.2858 -0.9114
13359TIP3   OH261491   1.356   2.491  14.872  0.7092  0.3189  0.8998
13359TIP3    H161492   1.343   2.452  14.958  0.9491 -1.5640  0.1174
13359TIP3    H261493   1.433   2.447  14.837  0.9450  1.4557 -0.0737
13360TIP3   OH261494   4.255   2.064  16.788 -0.2380  0.9532  0.0725
13360TIP3    H161495   4.319   2.010  16.835  1.1366  2.5796  0.1413
13360TIP3    H261496   4.295   2.082  16.703 -0.5265  2.1009  0.1589
13361TIP3   OH261497   4.063   3.143   5.828 -0.1584 -0.2410 -0.3627
13361TIP3    H161498   4.087   3.055   5.856 -2.2687 -0.6805  0.2181
13361TIP3    H261499   4.133   3.199   5.863 -1.2711 -1.0653  3.7218
13362TIP3   OH261500   1.591   2.662   1.142 -0.2498 -0.2215  0.0469
13362TIP3    H161501   1.678   2.698   1.162 -0.7009  1.2626 -0.5587
13362TIP3    H261502   1.601   2.625   1.054 -0.3805  0.4770 -0.2645
13363TIP3   OH261503   2.975   4.450   4.156 -0.4063  0.4009  0.3204
13363TIP3    H161504   3.067   4.477   4.147  0.1358 -1.2201  0.7116
13363TIP3    H261505   2.929   4.497   4.086  0.9938  0.0429 -0.8934
13364TIP3   OH261506   4.881   0.060   6.274 -0.2549 -0.0284  0.0757
13364TIP3    H161507   4.925  -0.004   6.331 -2.9325 -1.8271  0.2833
13364TIP3    H261508   4.826   0.110   6.334  0.0033  0.8928 -0.4366
13365TIP3   OH261509   5.233   1.028  15.356  0.1030  0.1167  0.1711
13365TIP3    H161510   5.171   0.982  15.412  1.4418 -1.6883  0.2508
13365TIP3    H261511   5.290   1.074  15.418 -1.8807  2.9745  0.0830
13366TIP3   OH261512   0.297   0.481  12.588  0.4490  0.4744  0.0558
13366TIP3    H161513   0.268   0.467  12.678 -1.4645  1.1222 -0.4153
13366TIP3    H261514   0.303   0.577  12.579  0.6237  0.4186 -0.5061
13367TIP3   OH261515   6.233   2.559   4.657  0.4237  0.0731 -0.3926
13367TIP3    H161516   6.196   2.641   4.690  1.0191  1.0382 -1.9823
13367TIP3    H261517   6.314   2.548   4.706 -0.2918 -0.2665  0.7352
13368TIP3   OH261518   4.185   5.435   2.603 -1.1442 -0.1439 -0.1118
13368TIP3    H161519   4.258   5.437   2.664 -0.0177 -0.5419 -1.4093
13368TIP3    H261520   4.126   5.368   2.638 -0.2197 -0.8008  0.2064
13369TIP3   OH261521   1.629   5.027  12.317 -0.4843 -0.1263  0.2318
13369TIP3    H161522   1.648   5.063  12.403  0.2385  0.0659 -0.0061
13369TIP3    H261523   1.704   5.050  12.263 -1.5985  1.1140 -0.8726
13370TIP3   OH261524   6.102   6.371   3.898 -0.5346  0.4243 -0.2568
13370TIP3    H161525   6.124   6.428   3.972  0.1618 -0.1998  0.0266
13370TIP3    H261526   6.166   6.393   3.831  0.2692 -0.5841  0.1521
13371TIP3   OH261527   1.374   5.688  12.462 -0.0205  0.1461 -0.1866
13371TIP3    H161528   1.369   5.610  12.406 -0.7232  1.6526 -2.3443
13371TIP3    H261529   1.287   5.694  12.502  0.4696 -0.9078  1.1301
13372TIP3   OH261530   5.382   3.037  14.172 -0.0879  0.0927 -0.1175
13372TIP3    H161531   5.354   2.982  14.245 -2.5461  0.6423 -0.5482
13372TIP3    H261532   5.358   2.987  14.094  1.0109  0.2247 -0.5553
13373TIP3   OH261533   1.131   1.538  17.287  0.0465  0.1903 -0.4764
13373TIP3    H161534   1.101   1.449  17.302  2.1949 -0.3596  1.1712
13373TIP3    H261535   1.183   1.533  17.207  0.9114 -0.2842  0.0950
13374TIP3   OH261536   2.606   0.267  16.968  0.4330 -0.0525 -0.2982
13374TIP3    H161537   2.535   0.268  17.031  1.5763  1.6876  1.0744
13374TIP3    H261538   2.572   0.314  16.892 -0.5190 -1.0000 -0.4732
13375TIP3   OH261539   4.978   4.939  16.638  0.5329  0.3160 -0.0433
13375TIP3    H161540   4.950   4.926  16.547  0.9109 -1.2500  0.0365
13375TIP3    H261541   4.897   4.931  16.688  0.2982  1.3441 -0.2404
13376TIP3   OH261542   0.840   5.292  14.190 -0.1934 -0.2204  0.1070
13376TIP3    H161543   0.843   5.386  14.176  0.0639 -0.3686 -0.8865
13376TIP3    H261544   0.869   5.280  14.280 -0.8393  0.6896  0.4476
13377TIP3   OH261545   0.810   0.622  15.529  0.0491 -0.1352 -0.4736
13377TIP3    H161546   0.891   0.626  15.478  0.7662  0.4949  0.6757
13377TIP3    H261547   0.807   0.705  15.577 -0.9998 -0.3801 -0.0817
13378TIP3   OH261548   3.524   4.435   4.944 -0.8366  0.3814 -0.2159
13378TIP3    H161549   3.570   4.377   5.005  0.4918  3.4395  1.9450
13378TIP3    H261550   3.592   4.462   4.882 -0.2636  2.8183  1.3628
13379TIP3   OH261551   1.121   4.142  14.599  0.1911  0.0413 -0.8213
13379TIP3    H161552   1.208   4.166  14.631 -0.5648 -3.0675  4.8152
13379TIP3    H261553   1.061   4.199  14.647 -0.9529 -3.3697  2.2232
13380TIP3   OH261554   0.242   2.890   4.699  0.3498  0.1418  0.2175
13380TIP3    H161555   0.292   2.823   4.746  0.2928  1.1504  1.7944
13380TIP3    H261556   0.290   2.971   4.716  0.4848  0.5357 -1.7557
13381TIP3   OH261557   2.821   0.810   2.690  0.3855 -0.4969  0.7839
13381TIP3    H161558   2.812   0.867   2.766 -1.3543  0.0774  0.1826
13381TIP3    H261559   2.734   0.772   2.678  0.5398 -0.3160 -1.1194
13382TIP3   OH261560   2.470   1.654   3.860  0.2144 -0.0676 -0.4442
13382TIP3    H161561   2.520   1.721   3.907  1.3791 -1.1714 -0.0622
13382TIP3    H261562   2.531   1.619   3.796  0.7377 -2.9376  1.4564
13383TIP3   OH261563   4.661   1.485   2.246 -0.1159 -0.4108  0.3837
13383TIP3    H161564   4.615   1.485   2.330 -0.6233 -1.4310  0.1315
13383TIP3    H261565   4.752   1.462   2.268  0.1034  0.8242  0.8012
13384TIP3   OH261566   5.578   4.639   1.136 -0.5062  0.5739  0.2136
13384TIP3    H161567   5.642   4.575   1.167  0.5999  1.2166 -0.6817
13384TIP3    H261568   5.570   4.701   1.208  2.5946  2.4746 -0.8955
13385TIP3   OH261569   6.542   6.686   0.755 -0.2869 -0.4541 -0.0461
13385TIP3    H161570   6.470   6.660   0.697  0.2871 -1.4309 -0.3549
13385TIP3    H261571   6.538   6.623   0.827 -1.4050  1.1590  1.3658
13386TIP3   OH261572   6.613   5.384   5.198  0.2987 -0.2780 -0.5135
13386TIP3    H161573   6.620   5.416   5.288  1.3081  0.6982 -0.9189
13386TIP3    H261574   6.520   5.392   5.177 -0.0959 -1.2650  0.6893
13387TIP3   OH261575   1.147   2.608  12.873  0.2113  0.9128  0.9010
13387TIP3    H161576   1.065   2.595  12.921  0.7768  1.8751  2.2087
13387TIP3    H261577   1.128   2.681  12.813  0.1228  1.1812  1.2510
13388TIP3   OH261578   0.222   0.777   3.582  0.2540 -0.0589  0.0785
13388TIP3    H161579   0.141   0.726   3.588  0.7489 -1.0648 -1.3127
13388TIP3    H261580   0.291   0.711   3.574  1.0537  0.8097 -0.3552
13389TIP3   OH261581   1.437   4.359   3.479 -0.2116  0.1088  0.3001
13389TIP3    H161582   1.378   4.290   3.448 -0.0106  0.2161 -0.3197
13389TIP3    H261583   1.520   4.313   3.496  0.2455  0.3754 -1.1369
13390TIP3   OH261584   0.222   1.759  14.007 -0.1127  0.3581  0.1234
13390TIP3    H161585   0.182   1.685  14.053 -2.1282  1.3257  0.0215
13390TIP3    H261586   0.304   1.724  13.973 -1.6368 -2.2617 -1.1631
13391TIP3   OH261587   6.291   4.620  14.838 -0.2112 -0.1281 -0.0013
13391TIP3    H161588   6.376   4.577  14.844 -0.4705 -0.6196  0.2105
13391TIP3    H261589   6.310   4.705  14.798  0.1500 -0.9524 -1.6598
13392TIP3   OH261590   4.042   1.972  16.970  0.4840 -0.6123 -0.5112
13392TIP3    H161591   4.084   1.922  17.039  0.5073 -0.9692 -0.7825
13392TIP3    H261592   4.112   2.030  16.937  0.2333  0.2281  0.3807
13393TIP3   OH261593   1.291   0.454  14.890 -0.4165 -0.3098 -0.2197
13393TIP3    H161594   1.312   0.479  14.800 -0.5065  1.6116  0.2292
13393TIP3    H261595   1.328   0.367  14.901  1.2259  0.1708 -1.5567
13394TIP3   OH261596   5.770   4.095  14.907  0.1199  0.1326 -0.0933
13394TIP3    H161597   5.790   4.188  14.897  0.2637  0.1305  0.1513
13394TIP3    H261598   5.676   4.092  14.922 -0.1025  0.1309 -1.4262
13395TIP3   OH261599   0.013   1.772  16.823 -0.0980  0.1540  0.0255
13395TIP3    H161600   0.059   1.696  16.789  1.6767  1.0825  0.2345
13395TIP3    H261601   0.003   1.830  16.747 -1.9502 -0.4796 -0.2606
13396TIP3   OH261602   5.329   1.825   6.128  0.3266 -0.3750 -0.0012
13396TIP3    H161603   5.345   1.874   6.208 -1.0685  1.0132 -0.5226
13396TIP3    H261604   5.248   1.862   6.093  0.9405 -0.8749 -2.1006
13397TIP3   OH261605   5.374   6.672  11.329 -0.1777 -0.2478  1.0203
13397TIP3    H161606   5.341   6.717  11.407 -2.1936  0.5925 -0.2643
13397TIP3    H261607   5.372   6.738  11.260  1.3678 -1.0425  0.1757
13398TIP3   OH261608   5.865   4.654  12.676  0.1929  0.3425 -0.1680
13398TIP3    H161609   5.833   4.742  12.697 -0.2343  0.2766 -0.5357
13398TIP3    H261610   5.855   4.605  12.758 -1.9047 -0.0394 -0.6195
13399TIP3   OH261611   4.929   1.596   4.841  0.1439  0.3060 -0.0266
13399TIP3    H161612   4.876   1.670   4.873  1.6678  2.4818 -2.2001
13399TIP3    H261613   4.898   1.580   4.752  0.5297 -1.0353  0.0568
13400TIP3   OH261614   6.353   1.283  13.951 -0.0773 -0.2042 -0.2444
13400TIP3    H161615   6.387   1.204  13.993  0.9350  1.8805  3.3241
13400TIP3    H261616   6.259   1.267  13.941 -0.0294 -1.6005  1.1324
13401TIP3   OH261617   4.233   0.699   5.211 -0.3190 -0.0695 -0.2046
13401TIP3    H161618   4.269   0.678   5.297  0.1597 -0.8112 -0.5801
13401TIP3    H261619   4.262   0.789   5.194 -1.6298  0.6258  1.0226
13402TIP3   OH261620   0.815   3.412  14.596  0.3452  0.5443  0.1737
13402TIP3    H161621   0.846   3.342  14.653  1.3639 -0.2485 -1.2733
13402TIP3    H261622   0.745   3.372  14.544  1.5033  0.2680 -1.2615
13403TIP3   OH261623   6.280   0.984  13.978 -0.1839 -0.5008  0.3668
13403TIP3    H161624   6.338   0.909  13.963  2.0647  1.5785 -2.5186
13403TIP3    H261625   6.265   1.021  13.891 -1.4124  2.2186  1.6054
13404TIP3   OH261626   1.445   5.821  15.406  0.1643  0.0515  0.5281
13404TIP3    H161627   1.459   5.915  15.421  1.5259 -0.3732  2.2312
13404TIP3    H261628   1.351   5.809  15.419  0.3300  0.8007  2.9466
13405TIP3   OH261629   4.735   0.334   0.224  0.2941  0.5308 -0.0962
13405TIP3    H161630   4.769   0.312   0.310  0.4063 -0.5388 -0.3879
13405TIP3    H261631   4.640   0.330   0.234  0.2882 -1.8328 -0.5021
13406TIP3   OH261632   1.644   6.618   2.850 -0.5238 -0.4884  0.2016
13406TIP3    H161633   1.722   6.563   2.838 -1.0092 -1.2045  0.2700
13406TIP3    H261634   1.616   6.601   2.939 -1.3301 -0.9985 -0.1379
13407TIP3   OH261635   4.936   3.441  15.217 -0.0598 -0.1204  0.1957
13407TIP3    H161636   4.861   3.455  15.159 -0.3296  0.3963  0.6656
13407TIP3    H261637   5.008   3.420  15.158 -0.7044 -1.2267 -0.2316
13408TIP3   OH261638   4.931   5.197   2.327  0.2777 -0.1082 -0.4455
13408TIP3    H161639   5.008   5.233   2.370 -0.0071 -0.6137  0.5257
13408TIP3    H261640   4.868   5.269   2.326  0.5728  0.1474 -0.7603
13409TIP3   OH261641   2.702   1.768   2.591  0.4469 -0.2711 -0.6403
13409TIP3    H161642   2.794   1.792   2.597  0.0287  1.1420  0.7086
13409TIP3    H261643   2.700   1.696   2.528  2.4954 -0.5340 -0.4623
13410TIP3   OH261644   3.489   3.157   2.668  1.1128  0.1670  0.2290
13410TIP3    H161645   3.579   3.146   2.639  0.9443  0.8230 -0.5700
13410TIP3    H261646   3.444   3.198   2.594  0.4062  0.8304  0.9964
13411TIP3   OH261647   5.714   6.368   5.221  0.4311  0.0212  0.1399
13411TIP3    H161648   5.729   6.462   5.221 -0.5908  0.2010  0.5597
13411TIP3    H261649   5.621   6.358   5.200  0.7257 -0.9425 -0.8514
13412TIP3   OH261650   0.684   6.033   4.350  0.4184 -0.4757 -0.5119
13412TIP3    H161651   0.686   5.981   4.430  0.1478 -0.1598 -0.2943
13412TIP3    H261652   0.737   6.110   4.371 -0.2481 -0.0365 -0.3726
13413TIP3   OH261653   1.730   1.500   2.825 -0.6155  0.1274  0.2156
13413TIP3    H161654   1.695   1.424   2.779  1.2499  0.3791 -1.8148
13413TIP3    H261655   1.731   1.569   2.759  0.4795  1.0517  1.1655
13414TIP3   OH261656   0.108   0.909  11.781  0.3245  0.3045  0.6412
13414TIP3    H161657   0.175   0.849  11.751  0.6302  0.4165  1.0878
13414TIP3    H261658   0.153   0.993  11.790 -0.1828  0.6976 -0.3456
13415TIP3   OH261659   4.251   0.171   4.008 -0.6647  0.0173  0.4514
13415TIP3    H161660   4.191   0.159   3.934  1.4619  0.7133 -1.4944
13415TIP3    H261661   4.280   0.262   4.001  0.0036 -0.0656  1.8402
13416TIP3   OH261662   6.667   4.275  10.343 -0.4147 -0.5085 -1.0603
13416TIP3    H161663   6.758   4.262  10.317 -0.9601 -2.1822 -2.3460
13416TIP3    H261664   6.655   4.217  10.418 -0.0619  0.8690  0.1093
13417TIP3   OH261665   3.943   0.175  12.420 -0.1013  0.5540  0.0498
13417TIP3    H161666   3.921   0.232  12.493 -1.1840  0.1008  0.1102
13417TIP3    H261667   3.877   0.105  12.424  1.1917 -0.7057 -0.0080
13418TIP3   OH261668   0.593   4.205   1.640  0.2531  0.2659 -0.6672
13418TIP3    H161669   0.552   4.141   1.697  0.1142 -0.3340 -1.4184
13418TIP3    H261670   0.675   4.227   1.682  0.1170 -0.1104 -0.2037
13419TIP3   OH261671   3.791   5.208  12.865 -0.2137 -0.4374 -0.8404
13419TIP3    H161672   3.810   5.114  12.860 -1.3507 -0.6955 -0.5718
13419TIP3    H261673   3.810   5.241  12.777  0.0843 -0.9377 -0.9673
13420TIP3   OH261674   3.697   5.093   0.610 -0.5594  0.2158 -0.1987
13420TIP3    H161675   3.782   5.135   0.599 -1.0000  1.5035  1.0018
13420TIP3    H261676   3.644   5.158   0.656 -2.9665  0.4198 -2.9103
13421TIP3   OH261677   4.630   0.388   5.743  0.3459  0.0706  0.2158
13421TIP3    H161678   4.712   0.393   5.694 -0.6027  0.7034 -1.3968
13421TIP3    H261679   4.655   0.404   5.834  2.0885 -0.4285 -0.1341
13422TIP3   OH261680   1.162   0.156   4.206  0.2836  0.2392 -0.0748
13422TIP3    H161681   1.147   0.184   4.116 -0.2607  1.2279  0.3137
13422TIP3    H261682   1.168   0.237   4.256  2.1988 -0.2284  0.5536
13423TIP3   OH261683   5.489   3.365   3.892 -0.2568 -0.5000  0.5937
13423TIP3    H161684   5.437   3.427   3.841  1.1190 -0.7569 -1.2326
13423TIP3    H261685   5.432   3.340   3.965 -1.6292  1.2743  0.2009
13424TIP3   OH261686   0.110   3.361  14.541  0.7159 -0.2687  0.2560
13424TIP3    H161687   0.056   3.313  14.603  0.0854  0.4980  0.3258
13424TIP3    H261688   0.169   3.414  14.595 -0.0533  0.6452  0.2306
13425TIP3   OH261689   5.896   4.507   5.228  0.1583 -0.1383  0.1048
13425TIP3    H161690   5.988   4.529   5.244  0.1568  0.5249 -0.7049
13425TIP3    H261691   5.867   4.463   5.308  0.6173  1.4243  1.1824
13426TIP3   OH261692   1.848   2.852   1.528  0.1201 -0.1249  0.7910
13426TIP3    H161693   1.904   2.789   1.572 -0.8792  0.6405  3.3252
13426TIP3    H261694   1.889   2.865   1.442  1.5650 -2.5032  1.0450
13427TIP3   OH261695   0.177   5.781  14.202 -0.3531 -0.1860  0.9448
13427TIP3    H161696   0.266   5.750  14.218 -0.4107 -0.3429  0.9632
13427TIP3    H261697   0.177   5.808  14.110 -0.5434 -1.0753  0.6766
13428TIP3   OH261698   5.128   6.523  13.974 -0.0763 -0.2241  0.6135
13428TIP3    H161699   5.065   6.534  13.904  0.6679  2.7230  0.2561
13428TIP3    H261700   5.213   6.542  13.934  0.4253  0.9914  2.1081
13429TIP3   OH261701   4.087   0.932  12.155  0.1656 -0.0427  0.1440
13429TIP3    H161702   4.129   0.902  12.074 -0.6246  1.3456 -0.8148
13429TIP3    H261703   4.137   1.010  12.180 -1.5855  1.4787 -0.8682
13430TIP3   OH261704   2.827   5.322   1.817 -0.0520 -0.7049 -0.2843
13430TIP3    H161705   2.734   5.309   1.834 -0.3235  1.9581  0.7716
13430TIP3    H261706   2.829   5.384   1.744  0.8844 -0.6613 -0.2335
13431TIP3   OH261707   6.670   0.967  15.566 -0.4190 -0.9560  0.2458
13431TIP3    H161708   6.578   0.950  15.546 -0.5458 -0.7203  0.6144
13431TIP3    H261709   6.704   0.882  15.593  0.2460 -1.7327 -2.7160
13432TIP3   OH261710   3.822   3.569  14.385  0.0096  0.3084 -0.2528
13432TIP3    H161711   3.887   3.499  14.394 -1.2525 -0.6636  2.6377
13432TIP3    H261712   3.867   3.647  14.415  0.4023  0.0241 -0.0933
13433TIP3   OH261713   6.046   2.147   2.507 -0.1618 -0.4363 -0.7076
13433TIP3    H161714   6.022   2.221   2.452  0.8752  0.2020 -0.3137
13433TIP3    H261715   6.074   2.186   2.590  2.3844 -1.0860 -1.1825
13434TIP3   OH261716   2.080   4.658   3.523  0.4894 -0.5456 -0.4703
13434TIP3    H161717   2.000   4.605   3.528  0.3406 -0.4617 -1.6719
13434TIP3    H261718   2.064   4.719   3.452  0.6208  1.2221  0.9474
13435TIP3   OH261719   6.037   1.123  11.128 -0.2679  0.3916 -0.0116
13435TIP3    H161720   5.974   1.190  11.157 -0.0654  0.6306 -0.1188
13435TIP3    H261721   6.119   1.171  11.117 -0.3243  0.2855 -0.9105
13436TIP3   OH261722   3.590   0.806   5.373  0.0416 -0.8721  0.5084
13436TIP3    H161723   3.521   0.745   5.346 -2.4097  1.6617  0.6560
13436TIP3    H261724   3.622   0.844   5.291  0.5571 -1.2320  0.5285
13437TIP3   OH261725   0.447   0.372   2.625  0.0177 -0.5138 -0.4473
13437TIP3    H161726   0.520   0.373   2.563  0.9557  0.9282  0.6164
13437TIP3    H261727   0.478   0.319   2.699  1.0237  2.0708  1.0974
13438TIP3   OH261728   4.548   3.391   0.127  0.5239  0.0821 -0.4839
13438TIP3    H161729   4.533   3.400   0.033  0.5029 -0.5844 -0.5506
13438TIP3    H261730   4.460   3.390   0.165  0.5129 -0.2503 -0.5176
13439TIP3   OH261731   1.552   1.686   3.818 -0.2255  0.4185 -0.5336
13439TIP3    H161732   1.458   1.672   3.826 -0.5715  2.0698 -1.2360
13439TIP3    H261733   1.568   1.687   3.724 -0.0029  2.7811 -0.5367
13440TIP3   OH261734   4.555   4.052   5.826 -0.0823 -0.0126  0.4129
13440TIP3    H161735   4.527   4.037   5.917  2.1726  0.8037  1.3145
13440TIP3    H261736   4.619   3.983   5.809  0.4153  0.5701 -0.1196
13441TIP3   OH261737   0.696   3.796   6.230  0.1420  0.3420 -0.2637
13441TIP3    H161738   0.643   3.744   6.170 -0.4746  1.7867 -1.0374
13441TIP3    H261739   0.785   3.762   6.221 -0.2447 -0.5581 -0.7315
13442TIP3   OH261740   0.656   4.071  15.101  0.3994  0.5344 -0.2172
13442TIP3    H161741   0.637   4.066  15.007  0.2844 -0.8678 -0.1377
13442TIP3    H261742   0.736   4.020  15.112  0.1384  0.2746  0.5122
13443TIP3   OH261743   2.366   3.634  16.496 -0.0090  0.3759  0.0893
13443TIP3    H161744   2.335   3.602  16.411 -0.6995 -0.7379  0.7460
13443TIP3    H261745   2.287   3.664  16.541 -0.1809 -2.0738  1.6009
13444TIP3   OH261746   0.606   5.713  12.384  0.3230  0.4483  0.4257
13444TIP3    H161747   0.684   5.710  12.328 -1.2572 -1.8202 -1.8143
13444TIP3    H261748   0.580   5.622  12.395 -3.5916  1.1549 -1.3189
13445TIP3   OH261749   5.688   4.177  12.927  0.0528  0.5376  0.1277
13445TIP3    H161750   5.777   4.179  12.893  0.7050 -2.1500  1.3765
13445TIP3    H261751   5.698   4.182  13.022 -1.2465  1.5862  0.2402
13446TIP3   OH261752   4.873   1.274  17.088 -0.3231 -0.1047 -0.9687
13446TIP3    H161753   4.913   1.320  17.162  0.0659 -1.4575 -0.3101
13446TIP3    H261754   4.780   1.295  17.095 -0.0129  1.5760 -1.4306
13447TIP3   OH261755   0.275   2.100  13.152 -0.8939 -0.7584  0.7114
13447TIP3    H161756   0.299   2.027  13.096  0.0384 -0.6091  0.8934
13447TIP3    H261757   0.222   2.061  13.222  0.0653 -1.3723  1.1240
13448TIP3   OH261758   4.193   3.523  15.296  0.7443 -0.1174  0.2479
13448TIP3    H161759   4.280   3.531  15.258  0.6035  1.6375  0.2332
13448TIP3    H261760   4.204   3.461  15.368  2.0435  0.2522  0.3825
13449TIP3   OH261761   3.836   5.466  13.738 -0.1095  0.3825 -0.3796
13449TIP3    H161762   3.754   5.450  13.785 -0.2946 -0.3660 -0.9414
13449TIP3    H261763   3.875   5.541  13.783  0.1960 -0.9011  1.6128
13450TIP3   OH261764   4.511   4.014   2.611 -0.0528  0.5905  0.2407
13450TIP3    H161765   4.548   3.959   2.680 -0.6441  0.9195  0.8296
13450TIP3    H261766   4.576   4.011   2.540  0.7966  0.6390  0.9988
13451TIP3   OH261767   2.804   5.622  17.059 -0.4021 -0.5173  0.5630
13451TIP3    H161768   2.721   5.597  17.100 -0.3181 -2.5018 -0.3658
13451TIP3    H261769   2.852   5.540  17.050  1.2197  0.4372  0.0731
13452TIP3   OH261770   4.574   2.275  14.659  0.0442 -0.1266 -0.1958
13452TIP3    H161771   4.547   2.274  14.751 -0.3078  0.1570 -0.2982
13452TIP3    H261772   4.660   2.233  14.660 -0.1247 -0.4718  0.2101
13453TIP3   OH261773   3.405   0.599  14.754 -0.0486 -0.4132 -0.1576
13453TIP3    H161774   3.310   0.611  14.758  0.0133  0.6433 -1.1447
13453TIP3    H261775   3.440   0.669  14.810  0.1851  0.5873 -1.5104
13454TIP3   OH261776   5.147   0.762  10.930 -0.9705 -0.2050 -0.1904
13454TIP3    H161777   5.240   0.739  10.930 -0.8065  0.3855  1.0372
13454TIP3    H261778   5.106   0.696  10.873 -0.0359 -1.4913  0.5573
13455TIP3   OH261779   6.449   5.980   6.006  0.3741 -0.2845  0.0494
13455TIP3    H161780   6.387   5.999   5.935 -0.0953  0.3782  0.6214
13455TIP3    H261781   6.429   5.890   6.031 -0.8296  0.1139  0.6481
13456TIP3   OH261782   0.975   0.844  13.493  0.0076  0.9974 -0.0811
13456TIP3    H161783   0.973   0.881  13.581 -0.6796  0.7778  0.0047
13456TIP3    H261784   0.971   0.750  13.507  1.8182  0.8713 -0.2950
13457TIP3   OH261785   6.046   5.517  12.959 -0.1328  0.4214  0.4552
13457TIP3    H161786   6.088   5.532  12.874  0.0911 -1.3148  0.2102
13457TIP3    H261787   5.952   5.521  12.940 -0.1096 -1.0754 -0.1598
13458TIP3   OH261788   6.449   0.035  17.310 -0.1582 -0.1261 -0.0914
13458TIP3    H161789   6.446   0.103  17.243 -1.5381 -0.2084 -0.1462
13458TIP3    H261790   6.364   0.040  17.353  0.6530 -0.1249  1.6319
13459TIP3   OH261791   6.295   0.525  13.191 -0.4955 -0.3791 -0.0633
13459TIP3    H161792   6.341   0.581  13.129 -1.1521  0.5083  0.2279
13459TIP3    H261793   6.324   0.436  13.169  1.2042  0.1220  0.0182
13460TIP3   OH261794   4.891   3.669   0.688  0.2937 -0.3747 -0.5092
13460TIP3    H161795   4.840   3.639   0.612 -0.1530  1.3141 -0.9316
13460TIP3    H261796   4.839   3.643   0.763 -0.2590 -0.3511 -0.8735
13461TIP3   OH261797   0.793   1.505   5.916  0.7952 -0.2671 -0.2658
13461TIP3    H161798   0.838   1.521   5.833  0.7083 -1.1349 -0.4896
13461TIP3    H261799   0.702   1.492   5.893  0.2979  1.8767  0.2309
13462TIP3   OH261800   6.037   4.419  14.087 -0.0922 -0.1087  0.3555
13462TIP3    H161801   6.029   4.461  14.002 -0.1442 -0.3073  0.2610
13462TIP3    H261802   5.947   4.408  14.117 -0.0777 -0.1262  0.3944
13463TIP3   OH261803   1.817   1.366  13.449 -0.2303 -0.3143  0.1411
13463TIP3    H161804   1.869   1.426  13.396 -0.2117  0.0122  0.5252
13463TIP3    H261805   1.857   1.369  13.536 -0.3308 -0.7589  0.2082
13464TIP3   OH261806   1.483   2.738  11.504  0.0577  0.1206  0.2378
13464TIP3    H161807   1.464   2.789  11.425 -0.8066 -1.0709 -0.3606
13464TIP3    H261808   1.539   2.667  11.473 -0.1479 -0.2574  0.7228
13465TIP3   OH261809   5.511   0.460  17.209  0.2178 -0.3851  0.3809
13465TIP3    H161810   5.462   0.399  17.264  1.2543 -1.8132 -0.2159
13465TIP3    H261811   5.448   0.491  17.144 -0.9525  1.1164  2.1282
13466TIP3   OH261812   2.281   3.864  16.838 -0.1902  0.3629  0.8425
13466TIP3    H161813   2.357   3.865  16.897 -0.6798 -1.2120  1.5539
13466TIP3    H261814   2.275   3.773  16.808 -0.1840  1.0302 -1.3901
13467TIP3   OH261815   2.323   6.495  13.770 -0.1138 -0.1235 -0.1126
13467TIP3    H161816   2.393   6.455  13.720 -0.6014 -0.2728 -0.6894
13467TIP3    H261817   2.247   6.493  13.712 -1.2717 -2.1797  1.3243
13468TIP3   OH261818   0.300   0.774   2.582  0.2251  0.6530  0.2613
13468TIP3    H161819   0.232   0.824   2.627 -0.7132 -0.0015 -0.3916
13468TIP3    H261820   0.267   0.766   2.492  1.1269  0.2434 -0.0382
13469TIP3   OH261821   6.095   3.774   1.795  0.2098 -0.3907  0.3383
13469TIP3    H161822   6.025   3.708   1.790 -0.6373  0.4446  0.8126
13469TIP3    H261823   6.104   3.793   1.888  1.9802 -1.4034  0.4063
13470TIP3   OH261824   5.529   2.637  10.840  0.6820 -0.3661 -0.1726
13470TIP3    H161825   5.551   2.643  10.747  0.0885  2.5523 -0.2172
13470TIP3    H261826   5.434   2.634  10.841  0.7171 -1.6983  0.3374
13471TIP3   OH261827   6.107   1.977  13.953  0.5371 -0.0135 -0.4558
13471TIP3    H161828   6.172   2.046  13.938  0.6607 -0.2237 -0.9263
13471TIP3    H261829   6.150   1.917  14.013  0.8312 -0.2091 -0.8519
13472TIP3   OH261830   4.244   1.592   0.733  0.1561 -0.2404  0.3454
13472TIP3    H161831   4.250   1.623   0.824  2.9576 -1.1171  0.5699
13472TIP3    H261832   4.224   1.670   0.682  0.2297  0.5882  1.5445
13473TIP3   OH261833   4.707   1.745  16.975 -0.0666  0.9477  0.1826
13473TIP3    H161834   4.690   1.691  16.898  0.5189  1.0576 -0.0297
13473TIP3    H261835   4.689   1.687  17.049 -0.0958  0.6693 -0.0391
13474TIP3   OH261836   6.108   1.457  16.754  0.1477  0.3100  0.1648
13474TIP3    H161837   6.042   1.409  16.805  2.0082 -0.3820  2.0393
13474TIP3    H261838   6.057   1.502  16.687 -2.2564 -0.1237  1.5656
13475TIP3   OH261839   2.076   5.652  17.318 -0.0207  0.1095  0.1252
13475TIP3    H161840   2.111   5.653  17.229  1.3865  1.7488  0.6563
13475TIP3    H261841   2.000   5.710  17.315  0.2305  0.4341  0.0764
13476TIP3   OH261842   0.733   6.487  13.526  0.1594 -0.8735 -0.5431
13476TIP3    H161843   0.674   6.462  13.598  0.3541  0.1275 -0.0175
13476TIP3    H261844   0.702   6.436  13.452 -1.3354 -0.4423 -0.2521
13477TIP3   OH261845   4.955   4.239  12.039 -0.3057 -0.0403 -0.1178
13477TIP3    H161846   4.913   4.238  11.953  0.3330  2.0662 -0.5053
13477TIP3    H261847   4.908   4.172  12.090 -2.9652  0.9876 -1.0566
13478TIP3   OH261848   4.299   4.546  16.301  0.7064  0.1522 -0.0781
13478TIP3    H161849   4.206   4.561  16.316  1.0133  0.6172  1.5802
13478TIP3    H261850   4.339   4.633  16.313  1.3243  0.0230 -1.0968
13479TIP3   OH261851   2.780   4.750  14.049  0.1421  0.0146  0.3554
13479TIP3    H161852   2.800   4.715  13.962  2.0703  1.9292 -0.0523
13479TIP3    H261853   2.833   4.696  14.108 -2.5390 -2.5017  0.6810
13480TIP3   OH261854   1.451   0.371   4.978 -0.1824 -0.0713 -0.0812
13480TIP3    H161855   1.414   0.454   5.010  1.9486 -0.2042  3.1917
13480TIP3    H261856   1.383   0.306   4.997 -0.8434  0.5481 -0.2458
13481TIP3   OH261857   5.674   6.395  12.274  0.4249  0.1175 -0.0756
13481TIP3    H161858   5.709   6.477  12.311 -0.6339  1.6189 -2.2228
13481TIP3    H261859   5.615   6.362  12.342 -0.9635  2.4367 -0.0465
13482TIP3   OH261860   0.702   4.909  11.533 -0.8746  0.3348  0.2193
13482TIP3    H161861   0.765   4.964  11.580 -2.2397  1.3546  0.9427
13482TIP3    H261862   0.725   4.920  11.441 -1.0498  2.0829  0.3527
13483TIP3   OH261863   3.105   0.391   0.662  0.1895 -0.0771  0.4955
13483TIP3    H161864   3.115   0.486   0.668  0.5959 -0.1018  0.2374
13483TIP3    H261865   3.072   0.375   0.573  1.4957 -0.2724  0.0138
13484TIP3   OH261866   3.542   0.743   2.321 -0.0756  0.2099  0.5537
13484TIP3    H161867   3.495   0.819   2.286 -0.6949  0.0711  1.0470
13484TIP3    H261868   3.492   0.667   2.289  0.9119 -0.0257 -0.4717
13485TIP3   OH261869   4.809   1.939  16.342 -0.2170  0.0656 -0.1628
13485TIP3    H161870   4.781   2.019  16.298 -0.7056  1.2796  2.1861
13485TIP3    H261871   4.765   1.868  16.294  0.1422  1.1695 -2.2232
13486TIP3   OH261872   5.867   6.550  13.732 -0.0132  0.1153 -0.2362
13486TIP3    H161873   5.941   6.534  13.674  0.4774  0.1714  0.3675
13486TIP3    H261874   5.878   6.641  13.761  0.5810 -0.3537  1.1032
13487TIP3   OH261875   2.580   4.608   0.832  0.0172 -0.0400 -0.3473
13487TIP3    H161876   2.606   4.576   0.746 -1.0583 -0.0105 -0.6887
13487TIP3    H261877   2.486   4.592   0.837 -0.2267  1.4168  0.1837
13488TIP3   OH261878   0.737   2.769  14.536 -0.0467 -0.4612 -0.1094
13488TIP3    H161879   0.739   2.803  14.446 -1.3695 -0.6661 -0.2285
13488TIP3    H261880   0.795   2.692  14.533  3.5842  1.9916  0.3441
13489TIP3   OH261881   2.905   6.486   0.589  0.0990 -0.0398  0.1409
13489TIP3    H161882   2.958   6.499   0.667 -1.5841  1.1473  1.1504
13489TIP3    H261883   2.880   6.574   0.562 -1.3591 -0.5660 -0.2948
13490TIP3   OH261884   0.469   5.146  10.369 -0.1830  0.0589  0.0681
13490TIP3    H161885   0.432   5.222  10.415  0.9793 -0.4321  1.9080
13490TIP3    H261886   0.395   5.110  10.320 -0.7032  2.5027 -1.1122
13491TIP3   OH261887   3.812   1.091  11.751 -0.1741 -0.1210  0.1641
13491TIP3    H161888   3.892   1.140  11.773 -0.2777  0.8884 -1.5261
13491TIP3    H261889   3.747   1.125  11.812  0.2047  0.5297  0.2216
13492TIP3   OH261890   6.619   2.163   2.561 -0.5701 -0.1989 -0.1790
13492TIP3    H161891   6.610   2.247   2.514  0.2307  1.8232  2.9652
13492TIP3    H261892   6.534   2.152   2.604 -0.6411 -1.0120 -0.5168
13493TIP3   OH261893   1.381   0.671   2.658 -0.3199 -0.2521  0.1830
13493TIP3    H161894   1.397   0.577   2.660  0.9240 -0.0864 -0.6304
13493TIP3    H261895   1.311   0.685   2.722 -0.1359 -1.6489  0.7286
13494TIP3   OH261896   2.511   2.651  12.570 -0.2687 -0.1813  0.0755
13494TIP3    H161897   2.460   2.668  12.648 -2.7570 -0.1711 -1.4571
13494TIP3    H261898   2.464   2.695  12.500  1.8997 -0.1343 -1.4670
13495TIP3   OH261899   3.591   0.308   3.589  0.2799 -0.1618  0.4071
13495TIP3    H161900   3.684   0.316   3.610  0.3816  1.6219 -0.4983
13495TIP3    H261901   3.547   0.358   3.657  0.4375  3.4536 -1.8573
13496TIP3   OH261902   3.307   4.442   1.794  0.5112 -0.8446 -0.1021
13496TIP3    H161903   3.314   4.537   1.803 -0.2759 -0.9070  1.5532
13496TIP3    H261904   3.378   4.418   1.735  0.3826  0.8237 -0.9955
13497TIP3   OH261905   5.120   6.352  16.269  0.1954  0.1775 -0.6950
13497TIP3    H161906   5.032   6.342  16.304 -0.2328 -0.5008 -1.9047
13497TIP3    H261907   5.151   6.262  16.256  1.7428  0.3438  1.2460
13498TIP3   OH261908   5.153   1.942   3.971 -0.1688 -0.8619  0.8447
13498TIP3    H161909   5.104   1.913   3.894 -1.1146  0.7024  0.8036
13498TIP3    H261910   5.090   1.993   4.021  0.9299 -0.3406  1.7402
13499TIP3   OH261911   6.262   4.316  16.249  0.5677  0.4300  0.2117
13499TIP3    H161912   6.292   4.266  16.325 -1.0040 -0.1391  0.5086
13499TIP3    H261913   6.298   4.270  16.174  0.6995 -0.0360  0.5554
13500TIP3   OH261914   3.421   0.246  14.325  0.0952  0.1264  0.1563
13500TIP3    H161915   3.398   0.160  14.359 -1.4229  0.1853 -0.6235
13500TIP3    H261916   3.353   0.304  14.358  0.3411  0.7624 -0.4266
13501TIP3   OH261917   1.604   0.478   1.028 -0.3158  0.0857  0.1916
13501TIP3    H161918   1.588   0.536   1.103 -0.9369  1.9619 -1.3214
13501TIP3    H261919   1.692   0.501   0.998  0.3639 -1.4159  0.9457
13502TIP3   OH261920   4.543   4.787   4.523  0.3101 -0.6502 -0.4789
13502TIP3    H161921   4.596   4.731   4.581 -0.5364 -0.6451  0.3190
13502TIP3    H261922   4.483   4.726   4.480  1.0243 -0.6734 -1.4870
13503TIP3   OH261923   3.904   1.100   2.421  0.1784  0.3457 -0.1131
13503TIP3    H161924   3.994   1.070   2.412 -0.3883 -1.5702  0.0063
13503TIP3    H261925   3.852   1.019   2.421 -1.4375  1.3156  0.9258
13504TIP3   OH261926   0.239   0.213   5.368 -0.1800  0.1324 -0.9374
13504TIP3    H161927   0.268   0.123   5.383 -0.6489 -0.0706 -1.2213
13504TIP3    H261928   0.145   0.211   5.387 -0.3298  0.3998 -1.6391
13505TIP3   OH261929   4.787   0.222  17.187  0.1741 -0.2404 -0.4059
13505TIP3    H161930   4.797   0.317  17.201  0.4526 -0.0063 -2.0246
13505TIP3    H261931   4.876   0.188  17.191  0.2580 -0.1756 -1.3834
13506TIP3   OH261932   3.505   1.275  12.643 -0.2186 -0.1604  0.0324
13506TIP3    H161933   3.584   1.225  12.623 -0.7810 -1.1059  0.1099
13506TIP3    H261934   3.440   1.242  12.581 -0.4271  0.9760 -0.3812
13507TIP3   OH261935   4.029   2.088  12.344 -0.2410  0.2654  0.5587
13507TIP3    H161936   4.094   2.099  12.274 -1.6393 -0.5564 -0.9308
13507TIP3    H261937   4.033   2.171  12.392  1.4099  0.5000  0.1006
13508TIP3   OH261938   2.730   2.533   0.043  0.2107  0.8388 -0.2843
13508TIP3    H161939   2.706   2.441   0.032  1.6945  0.4153 -0.1521
13508TIP3    H261940   2.659   2.571   0.094 -0.1554 -0.3633  0.1217
13509TIP3   OH261941   4.383   0.479  16.423 -0.2270  0.0947 -0.0567
13509TIP3    H161942   4.451   0.457  16.359 -0.2930  0.1253 -0.1388
13509TIP3    H261943   4.429   0.526  16.492 -0.0165 -0.6393  0.3136
13510TIP3   OH261944   0.737   0.199  13.341  0.0386 -0.4181 -0.4531
13510TIP3    H161945   0.740   0.186  13.246  1.3775 -0.9089 -0.3727
13510TIP3    H261946   0.763   0.114  13.377  1.1475  0.2120  0.3045
13511TIP3   OH261947   2.233   4.488   3.358 -0.3186  0.2570  0.5797
13511TIP3    H161948   2.278   4.419   3.407  0.6020  0.9906  0.8036
13511TIP3    H261949   2.182   4.535   3.423 -0.3971  0.2146  0.5486
13512TIP3   OH261950   3.627   4.587  16.185 -0.0325  0.4243 -0.2647
13512TIP3    H161951   3.532   4.592  16.170  0.1861  0.2704 -1.9041
13512TIP3    H261952   3.649   4.496  16.168  0.6212  0.7732 -1.3338
13513TIP3   OH261953   0.178   1.172   6.402  0.4246 -0.3502 -0.5559
13513TIP3    H161954   0.157   1.079   6.395  1.7388 -0.7501  0.3863
13513TIP3    H261955   0.251   1.176   6.464 -1.8894  1.6256  2.3136
13514TIP3   OH261956   1.523   2.804   0.865  0.2066 -0.2053 -0.3692
13514TIP3    H161957   1.479   2.751   0.799 -1.0088 -0.0007  0.2442
13514TIP3    H261958   1.455   2.822   0.930  1.3286 -0.2976  0.8787
13515TIP3   OH261959   5.459   3.774  15.718  0.2855  0.0593 -0.3625
13515TIP3    H161960   5.515   3.823  15.658  0.7218 -0.9445 -0.7820
13515TIP3    H261961   5.487   3.683  15.709  0.9914 -0.0263  2.0192
13516TIP3   OH261962   1.686   5.934   5.296 -0.2478 -0.7293 -0.1627
13516TIP3    H161963   1.593   5.935   5.320 -1.0349 -1.1339 -2.8805
13516TIP3    H261964   1.700   6.017   5.251  0.6685 -0.7836 -0.0031
13517TIP3   OH261965   4.967   3.538  15.758  0.0973  0.4252  0.0425
13517TIP3    H161966   4.906   3.556  15.686  0.4015 -0.9085 -0.5730
13517TIP3    H261967   4.948   3.448  15.783  2.0169 -0.1133 -0.3567
13518TIP3   OH261968   4.608   5.765   0.752  0.1945  0.2454 -0.4194
13518TIP3    H161969   4.633   5.839   0.696 -0.0470 -0.1443 -1.0611
13518TIP3    H261970   4.673   5.764   0.822 -1.2745  2.6918  1.1390
13519TIP3   OH261971   3.525   3.953  15.693  0.0999 -0.4242 -0.1022
13519TIP3    H161972   3.444   3.952  15.641  0.7707  1.1370 -1.2512
13519TIP3    H261973   3.586   4.006  15.641  1.3452 -0.2102  1.5146
13520TIP3   OH261974   5.696   5.016   1.215  0.2202 -0.2820  0.1749
13520TIP3    H161975   5.657   4.952   1.274 -0.5751 -0.4387 -0.5006
13520TIP3    H261976   5.671   4.986   1.128  0.7222  0.3718 -0.1991
13521TIP3   OH261977   5.823   1.751   1.268 -0.1127  0.0992  0.1319
13521TIP3    H161978   5.829   1.773   1.360  1.4417 -2.7519  0.8523
13521TIP3    H261979   5.843   1.832   1.221  1.0620  1.1529  2.3311
13522TIP3   OH261980   0.863   6.663  12.046 -0.0736 -0.2063  0.0882
13522TIP3    H161981   0.951   6.658  12.007 -0.2417  0.6084 -0.4358
13522TIP3    H261982   0.856   6.585  12.101  1.1566 -0.0395  0.5052
13523TIP3   OH261983   1.893   5.699  16.099 -0.5978  0.5444 -0.1162
13523TIP3    H161984   1.897   5.604  16.108 -2.5322  0.4883  0.5759
13523TIP3    H261985   1.929   5.733  16.181  2.0016  0.5304 -1.1332
13524TIP3   OH261986   2.068   2.832  12.297  0.9246  0.4448  0.3768
13524TIP3    H161987   1.997   2.821  12.233  0.6782  1.5168  0.4421
13524TIP3    H261988   2.028   2.810  12.381 -0.2322  3.7774  0.8286
13525TIP3   OH261989   1.693   1.159   4.559 -0.3534  0.0856 -0.4655
13525TIP3    H161990   1.741   1.129   4.482 -1.7625 -0.3595 -1.2045
13525TIP3    H261991   1.622   1.212   4.524 -0.6079  0.4597  0.5797
13526TIP3   OH261992   1.935   0.884  14.736 -0.3418  0.3015 -0.2136
13526TIP3    H161993   1.893   0.942  14.800 -0.7571  1.0298 -1.1105
13526TIP3    H261994   1.900   0.913  14.652  1.0174  0.0837 -0.8762
13527TIP3   OH261995   5.456   1.837   5.107 -0.0992 -0.1691 -0.8215
13527TIP3    H161996   5.550   1.819   5.116 -0.2430 -0.5658 -0.0853
13527TIP3    H261997   5.446   1.865   5.016  0.5946 -0.9385 -1.1443
13528TIP3   OH261998   5.748   3.088   2.807 -0.3695  0.1850 -0.4408
13528TIP3    H161999   5.770   3.055   2.720  0.5558 -0.3826 -0.0102
13528TIP3    H262000   5.787   3.024   2.867  0.3183  1.3669  0.4090
13529TIP3   OH262001   6.670   0.204   4.670 -0.3679  0.0998  0.2015
13529TIP3    H162002   6.699   0.183   4.759  0.6972 -0.3356 -0.2214
13529TIP3    H262003   6.692   0.126   4.619 -0.2303  0.6430 -0.5956
13530TIP3   OH262004   3.779   4.454  12.444  0.4833 -0.1739 -0.2297
13530TIP3    H162005   3.781   4.466  12.349  0.9037 -1.8026 -0.4505
13530TIP3    H262006   3.840   4.520  12.477  0.8693 -0.0429 -1.1525
13531TIP3   OH262007   2.644   6.738   0.253  0.1235 -0.4808 -0.5278
13531TIP3    H162008   2.622   6.801   0.184 -0.5792  1.8848  1.6846
13531TIP3    H262009   2.728   6.700   0.225 -0.6147 -0.4030 -3.1096
13532TIP3   OH262010   5.013   0.052  12.589 -0.1666  1.2140 -0.3110
13532TIP3    H162011   4.932   0.036  12.542 -0.5462 -0.2971  0.7513
13532TIP3    H262012   5.009   0.144  12.615 -0.5675  1.6993 -2.0106
13533TIP3   OH262013   5.397   0.151  13.592  0.4788 -0.0402 -0.3610
13533TIP3    H162014   5.377   0.242  13.614 -1.3522 -0.5349  0.2225
13533TIP3    H262015   5.340   0.132  13.518  0.0651 -1.0047  0.1883
13534TIP3   OH262016   2.631   5.072  15.673  0.3774  0.3917 -0.0914
13534TIP3    H162017   2.566   5.026  15.620  0.2868  0.4217 -0.0059
13534TIP3    H262018   2.672   5.003  15.726  0.8198  0.2847 -0.5645
13535TIP3   OH262019   2.106   4.368   0.749 -0.1871 -0.1749 -0.1996
13535TIP3    H162020   2.079   4.411   0.830 -0.5303 -1.2296  0.2735
13535TIP3    H262021   2.165   4.298   0.777 -2.0583 -2.0271 -0.5626
13536TIP3   OH262022   4.711   3.816   2.701  0.4521  0.4892  0.3886
13536TIP3    H162023   4.697   3.795   2.793 -0.4049  1.1070  0.4082
13536TIP3    H262024   4.793   3.865   2.700 -0.0666  1.3987  0.9708
13537TIP3   OH262025   6.584   2.443  16.650  0.1959  0.4575  0.3222
13537TIP3    H162026   6.676   2.416  16.660  0.1590  0.2675  0.1495
13537TIP3    H262027   6.539   2.364  16.621  0.0476  0.6491  0.0304
13538TIP3   OH262028   4.244   6.482  16.509  0.2604  0.1581 -0.4892
13538TIP3    H162029   4.153   6.481  16.478  0.0742  1.2631 -0.0187
13538TIP3    H262030   4.291   6.428  16.445 -0.8179 -0.9507 -0.3926
13539TIP3   OH262031   2.515   5.668  12.459  0.4988 -0.3106 -0.3706
13539TIP3    H162032   2.491   5.745  12.407 -1.4276 -0.1257  0.7238
13539TIP3    H262033   2.489   5.594  12.405 -0.2950 -0.1382 -0.2331
13540TIP3   OH262034   6.176   4.494   4.779  0.3165 -0.1522 -0.5160
13540TIP3    H162035   6.266   4.462   4.771  0.2944 -0.0944 -1.0829
13540TIP3    H262036   6.167   4.521   4.870  0.3522 -1.6806 -0.0382
13541TIP3   OH262037   5.438   5.947  12.247 -0.5367 -0.0402 -0.2783
13541TIP3    H162038   5.449   5.867  12.196  0.4574  0.0640 -0.2367
13541TIP3    H262039   5.510   6.003  12.220  1.2747 -0.7480  2.6659
13542TIP3   OH262040   5.613   3.757  12.201 -0.0948 -0.1663 -0.3835
13542TIP3    H162041   5.678   3.827  12.205 -0.3427  0.0299  0.3182
13542TIP3    H262042   5.662   3.678  12.222 -0.5174  0.2848  2.6517
13543TIP3   OH262043   0.991   4.067  13.958  0.2888  0.3639  0.8300
13543TIP3    H162044   0.918   4.081  13.898 -1.5792 -1.3543  2.5111
13543TIP3    H262045   1.009   4.154  13.994  0.0114  1.0405 -0.5924
13544TIP3   OH262046   6.084   5.641   0.344  0.4294  0.1211 -0.0193
13544TIP3    H162047   6.083   5.564   0.402 -1.6756 -1.6510 -2.1888
13544TIP3    H262048   6.001   5.685   0.361  0.9463  1.0774  0.1042
13545TIP3   OH262049   1.319   3.613  15.946 -0.1381 -0.1164  0.0695
13545TIP3    H162050   1.378   3.688  15.934 -0.1642 -0.1506 -0.2745
13545TIP3    H262051   1.375   3.543  15.980 -0.3867  0.5113  1.9155
13546TIP3   OH262052   4.993   3.099   1.552 -0.4864  0.4630 -0.0617
13546TIP3    H162053   4.987   3.102   1.456  0.4039 -1.7628 -0.2531
13546TIP3    H262054   5.053   3.170   1.575  0.6784 -0.0638 -1.3406
13547TIP3   OH262055   2.724   4.307   2.126  0.0529  0.4472  0.0299
13547TIP3    H162056   2.769   4.224   2.109 -0.3559  0.1188  0.4995
13547TIP3    H262057   2.661   4.316   2.054  1.2496  1.2025 -0.9576
13548TIP3   OH262058   3.862   4.914   2.252 -0.3905  0.1183  0.3553
13548TIP3    H162059   3.812   4.889   2.175 -1.0127  0.1819  0.7351
13548TIP3    H262060   3.878   5.008   2.240  0.6289 -0.1155 -0.3158
13549TIP3   OH262061   4.796   3.562   5.061  0.0529  0.0155 -0.6511
13549TIP3    H162062   4.806   3.652   5.091 -1.3513 -0.6548  2.2530
13549TIP3    H262063   4.862   3.513   5.110  0.4903 -0.6173 -1.8482
13550TIP3   OH262064   3.356   3.589  14.570  0.4095 -0.3637 -0.4988
13550TIP3    H162065   3.355   3.682  14.547 -1.6366 -0.4660 -1.0566
13550TIP3    H262066   3.448   3.563  14.562  1.0643  1.6475 -0.0829
13551TIP3   OH262067   2.128   1.532  13.577  0.1743  0.0587  0.5675
13551TIP3    H162068   2.171   1.506  13.658 -0.9009 -3.2370  0.2303
13551TIP3    H262069   2.185   1.501  13.508 -0.2993  0.2436  0.0841
13552TIP3   OH262070   4.790   0.203  13.483 -0.7326 -0.2897  0.2063
13552TIP3    H162071   4.833   0.138  13.538  2.1247  1.6380  0.4613
13552TIP3    H262072   4.835   0.198  13.399 -0.8337  0.9538  0.0530
13553TIP3   OH262073   0.153   2.518   3.383  0.2851  0.2265  0.3062
13553TIP3    H162074   0.158   2.545   3.475  0.2563  0.5515  0.2127
13553TIP3    H262075   0.222   2.452   3.374  0.6025  0.5338  0.4468
13554TIP3   OH262076   6.462   4.605   2.974  0.1525 -0.3099 -0.2716
13554TIP3    H162077   6.499   4.574   3.056  1.9567  1.7663 -0.2074
13554TIP3    H262078   6.374   4.635   2.997  0.1422 -0.9677  0.5993
13555TIP3   OH262079   6.653   3.606  14.563 -0.3332  0.2606 -0.1763
13555TIP3    H162080   6.730   3.662  14.569  0.4179 -0.6141 -1.2612
13555TIP3    H262081   6.674   3.543  14.494 -0.6780 -2.0701  1.7146
13556TIP3   OH262082   0.659   1.500   1.102 -0.3730 -0.1663  0.0863
13556TIP3    H162083   0.616   1.520   1.185 -1.6247  1.0032 -0.8014
13556TIP3    H262084   0.587   1.474   1.044  0.0823  1.6091 -1.3733
13557TIP3   OH262085   3.146   3.580   0.514  0.2865  0.2781  1.3205
13557TIP3    H162086   3.095   3.553   0.439  0.7044 -1.4260  1.5941
13557TIP3    H262087   3.093   3.555   0.590  0.1242  1.4401  1.6055
13558TIP3   OH262088   4.041   1.186   5.100 -0.3814 -0.0213 -0.4520
13558TIP3    H162089   4.111   1.213   5.041 -0.6846 -1.6890 -1.6256
13558TIP3    H262090   4.029   1.093   5.083 -1.9634 -0.0679  0.7003
13559TIP3   OH262091   0.638   3.314  13.173 -0.1039 -0.3320  0.7534
13559TIP3    H162092   0.720   3.289  13.215 -0.7675 -0.9345  1.7229
13559TIP3    H262093   0.634   3.257  13.095 -0.1674 -1.1475  1.3424
13560TIP3   OH262094   2.435   3.603  14.158 -0.2319  0.0356  0.2209
13560TIP3    H162095   2.460   3.512  14.145 -0.2786  0.0845 -0.2571
13560TIP3    H262096   2.447   3.643  14.072 -0.2236  0.4775  0.4244
13561TIP3   OH262097   4.955   4.371   2.752 -0.4305  0.2323  0.8640
13561TIP3    H162098   5.005   4.332   2.824  0.1455  0.5301  0.6253
13561TIP3    H262099   4.982   4.463   2.752  0.3456  0.0169 -0.3912
13562TIP3   OH262100   6.077   5.927   2.088 -0.1230 -0.1649 -0.1893
13562TIP3    H162101   6.032   5.847   2.114 -1.5408 -0.4108 -2.9610
13562TIP3    H262102   6.008   5.982   2.051  1.3034  0.9801 -1.2714
13563TIP3   OH262103   1.174   1.499  11.269  0.0566 -0.0680 -0.4837
13563TIP3    H162104   1.185   1.459  11.356 -1.9978  1.9695  0.8438
13563TIP3    H262105   1.086   1.472  11.242 -1.6422  3.5762  0.6892
13564TIP3   OH262106   5.827   0.216   5.383  0.1146  0.1291  0.0600
13564TIP3    H162107   5.899   0.267   5.421  0.3223  0.6614 -0.9821
13564TIP3    H262108   5.748   0.265   5.406  0.3564  1.3452 -1.4627
13565TIP3   OH262109   3.434   3.810   4.044  0.0870 -0.5668 -0.5307
13565TIP3    H162110   3.459   3.835   4.133 -1.5302  1.0040 -0.4530
13565TIP3    H262111   3.388   3.727   4.054  0.8009 -0.9209 -0.0658
13566TIP3   OH262112   2.052   2.867  14.009  0.1151 -0.1816  0.3463
13566TIP3    H162113   2.084   2.872  14.099  2.2188  0.5358 -0.3871
13566TIP3    H262114   2.047   2.773  13.991  0.2042 -0.3222  1.0360
13567TIP3   OH262115   5.362   3.865   0.167  0.1299  0.5259 -0.2757
13567TIP3    H162116   5.346   3.777   0.203 -0.9383 -0.3184 -2.5683
13567TIP3    H262117   5.279   3.911   0.180 -0.2382  0.2390 -1.4997
13568TIP3   OH262118   1.234   4.489  15.934  0.1497  0.1021 -0.5164
13568TIP3    H162119   1.142   4.486  15.908  0.1865  1.6511 -0.9029
13568TIP3    H262120   1.257   4.581  15.929  1.7801 -0.2886 -0.5791
13569TIP3   OH262121   3.608   1.121   5.819 -0.0019  0.2371  1.2705
13569TIP3    H162122   3.596   1.050   5.756 -0.2783  1.0043  0.4351
13569TIP3    H262123   3.536   1.110   5.881  0.7897 -1.0641  2.0129
13570TIP3   OH262124   3.251   2.947   3.646 -0.5048 -0.4773 -0.2540
13570TIP3    H162125   3.208   3.020   3.602  1.0335  0.2502 -0.5889
13570TIP3    H262126   3.289   2.985   3.725 -0.3297 -1.0756 -0.0417
13571TIP3   OH262127   0.214   6.288   4.814 -0.0394  0.2827  0.5479
13571TIP3    H162128   0.262   6.249   4.887  0.0407  0.2358  0.4690
13571TIP3    H262129   0.237   6.381   4.819  0.3736  0.1972  0.2668
13572TIP3   OH262130   3.042   1.000  11.529  0.4497  0.4842  0.0579
13572TIP3    H162131   3.094   1.060  11.583 -1.9183  1.8831  0.9073
13572TIP3    H262132   3.030   0.923  11.584  1.3244  0.2852 -0.0197
13573TIP3   OH262133   0.774   4.639   3.895  0.5950  0.7686 -0.4224
13573TIP3    H162134   0.679   4.646   3.897  0.4885 -0.0917 -1.4874
13573TIP3    H262135   0.797   4.596   3.977 -0.0964 -0.5148 -0.8693
13574TIP3   OH262136   5.522   4.956   3.476  0.4941  0.4242  0.0135
13574TIP3    H162137   5.429   4.938   3.460  0.3849 -0.8577  1.7379
13574TIP3    H262138   5.533   5.048   3.455 -0.9395  0.3669 -1.1556
13575TIP3   OH262139   1.359   5.367   1.061 -0.2092  0.6144  0.4969
13575TIP3    H162140   1.276   5.405   1.089  0.4816  2.7764 -0.2238
13575TIP3    H262141   1.372   5.399   0.972 -0.4547 -2.9223 -0.9431
13576TIP3   OH262142   5.935   6.355   2.056  0.7265 -0.2227  0.8095
13576TIP3    H162143   5.988   6.433   2.075 -0.5525  1.3116 -1.4474
13576TIP3    H262144   5.845   6.383   2.071  0.1769 -0.9666 -0.8557
13577TIP3   OH262145   1.171   1.560  14.041 -0.5238 -0.0573  0.0672
13577TIP3    H162146   1.210   1.566  13.954  1.1843  0.2126  0.8202
13577TIP3    H262147   1.112   1.485  14.035 -0.4532 -0.0391 -1.3210
13578TIP3   OH262148   4.422   5.952   0.385 -0.1947 -0.3870  0.1880
13578TIP3    H162149   4.413   5.901   0.466  1.3030 -1.6655 -0.3976
13578TIP3    H262150   4.370   6.031   0.401 -0.5397 -0.9378  2.1048
13579TIP3   OH262151   1.268   4.172  13.534  0.0533  0.0048  0.4471
13579TIP3    H162152   1.344   4.226  13.556  0.4205 -1.3738  2.9806
13579TIP3    H262153   1.201   4.235  13.507  1.0726  1.5497  1.3658
13580TIP3   OH262154   1.378   2.877  12.942 -0.3272  0.0163  0.0626
13580TIP3    H162155   1.342   2.927  13.016  0.0832 -0.7966  0.8373
13580TIP3    H262156   1.305   2.868  12.881 -0.5560  1.0681  0.1634
13581TIP3   OH262157   3.937   1.580  12.154 -0.5921 -0.1467  0.1947
13581TIP3    H162158   3.927   1.518  12.082 -1.0084  0.4025 -0.2226
13581TIP3    H262159   4.029   1.608  12.150 -0.5352 -0.3550  0.0754
13582TIP3   OH262160   2.536   0.762  14.460  0.1544  0.1960  0.4991
13582TIP3    H162161   2.626   0.793  14.455 -0.2528  1.2536 -0.8411
13582TIP3    H262162   2.496   0.814  14.529  0.4503  0.0232  0.8043
13583TIP3   OH262163   2.297   1.152   2.456 -0.0594  0.4862 -0.2453
13583TIP3    H162164   2.229   1.090   2.429  0.0925  0.7049 -1.1800
13583TIP3    H262165   2.329   1.189   2.373  1.9257 -0.3625  0.0897
13584TIP3   OH262166   1.206   1.904  11.501  0.2667  0.6277  0.6092
13584TIP3    H162167   1.233   1.819  11.535 -0.5955  1.2331  2.9724
13584TIP3    H262168   1.134   1.884  11.440  0.5838 -0.3714  0.5484
13585TIP3   OH262169   4.665   1.601  15.725 -0.0103 -0.2405 -0.1377
13585TIP3    H162170   4.697   1.666  15.662 -0.1013  0.0400  0.0994
13585TIP3    H262171   4.738   1.591  15.787  0.4313 -1.1915 -0.7858
13586TIP3   OH262172   2.281   3.339  16.499  0.4712  0.0077  1.1305
13586TIP3    H162173   2.229   3.275  16.549 -0.0716 -1.3030 -0.9574
13586TIP3    H262174   2.276   3.308  16.408  2.9412  1.2075  0.4870
13587TIP3   OH262175   2.104   1.414   3.655 -0.2026 -0.0064  0.2356
13587TIP3    H162176   2.155   1.459   3.588 -0.6649 -0.6458 -0.5757
13587TIP3    H262177   2.151   1.431   3.737  0.2982  0.9081 -0.2228
13588TIP3   OH262178   5.295   6.578   5.311 -0.5249  0.4443  0.0648
13588TIP3    H162179   5.363   6.518   5.280 -0.5813  0.3155  0.1908
13588TIP3    H262180   5.213   6.540   5.280 -0.5578  0.4737  0.1151
13589TIP3   OH262181   0.568   1.709  10.934  0.0711  0.5306 -0.0169
13589TIP3    H162182   0.632   1.642  10.908  3.7043  2.8850  2.0051
13589TIP3    H262183   0.505   1.661  10.987  2.3549 -1.4414  1.1327
13590TIP3   OH262184   0.819   1.738   2.247 -0.5058 -0.3044 -0.6864
13590TIP3    H162185   0.843   1.657   2.202 -2.2354 -0.7581 -0.8809
13590TIP3    H262186   0.728   1.754   2.221 -0.8861  0.5516  1.0022
13591TIP3   OH262187   1.108   3.175   0.188 -0.0491  0.1458  0.3309
13591TIP3    H162188   1.125   3.185   0.282  0.0452  0.4159  0.2875
13591TIP3    H262189   1.078   3.262   0.160 -0.5281 -0.0568  0.2049
13592TIP3   OH262190   0.858   6.609   2.689  0.2633  0.1041  0.1051
13592TIP3    H162191   0.855   6.514   2.678  0.6386 -0.0731  1.4226
13592TIP3    H262192   0.873   6.643   2.601  0.9893 -1.1018 -0.2569
13593TIP3   OH262193   5.403   2.049  12.049 -0.0672 -0.2200 -0.7833
13593TIP3    H162194   5.367   1.982  12.107  2.1849 -0.1163  0.8870
13593TIP3    H262195   5.475   2.005  12.003 -0.3665  0.3160 -1.7891
13594TIP3   OH262196   2.603   2.319  13.554 -0.3457  0.4787  0.0990
13594TIP3    H162197   2.658   2.241  13.551 -0.9076  0.0418  0.9633
13594TIP3    H262198   2.634   2.368  13.630 -0.7949  0.4920  0.2752
13595TIP3   OH262199   5.995   3.621  12.417  0.4796 -0.2506  0.6712
13595TIP3    H162200   5.998   3.574  12.500  2.0962 -0.4861  0.5134
13595TIP3    H262201   6.042   3.703  12.433 -0.2234  0.2490  0.2889
13596TIP3   OH262202   3.292   6.404  14.836 -0.9987  0.4407  0.0223
13596TIP3    H162203   3.330   6.326  14.876 -0.4466 -0.1938 -1.6563
13596TIP3    H262204   3.322   6.476  14.892 -1.4402 -0.5036  1.5394
13597TIP3   OH262205   0.404   5.773   1.611  0.2833 -0.8752 -0.5347
13597TIP3    H162206   0.313   5.782   1.584  0.2492  0.5868 -0.0267
13597TIP3    H262207   0.452   5.829   1.550  0.6593 -0.5024  0.0992
13598TIP3   OH262208   1.436   1.948  13.410  0.8842 -0.0090 -0.1561
13598TIP3    H162209   1.410   2.039  13.401 -0.6820 -0.4546 -0.5861
13598TIP3    H262210   1.517   1.940  13.361  0.1644  0.8100 -1.5174
13599TIP3   OH262211   2.963   4.526   5.913 -0.9266  0.6515  0.5135
13599TIP3    H162212   2.956   4.433   5.889 -0.2536  0.7829 -0.2429
13599TIP3    H262213   2.895   4.569   5.862 -1.5984  0.5182  1.2701
13600TIP3   OH262214   3.022   1.233  14.127  0.3301  0.0397 -0.4271
13600TIP3    H162215   3.066   1.238  14.042  0.4698  2.4257 -0.2779
13600TIP3    H262216   2.955   1.301  14.123 -0.2964 -0.4652  1.0354
13601TIP3   OH262217   6.099   2.038   2.054 -0.6594  0.3134 -0.1567
13601TIP3    H162218   6.191   2.056   2.076  0.0502 -1.8751 -0.9809
13601TIP3    H262219   6.089   2.072   1.965 -1.4004  2.6721  0.7639
13602TIP3   OH262220   5.700   0.208   4.507  0.3356 -0.1135  0.1590
13602TIP3    H162221   5.780   0.246   4.471 -0.1767 -0.2581 -1.1770
13602TIP3    H262222   5.681   0.132   4.452  1.5074 -2.6532  2.9505
13603TIP3   OH262223   5.556   0.566   2.242 -0.4786  1.2876 -0.1812
13603TIP3    H162224   5.507   0.485   2.256 -0.7020  1.3929 -0.3404
13603TIP3    H262225   5.629   0.541   2.186  0.2008  0.9375  0.8299
13604TIP3   OH262226   1.614   3.873  10.757  0.0408 -0.0845 -0.3677
13604TIP3    H162227   1.653   3.946  10.709  0.3208  0.6222  0.9109
13604TIP3    H262228   1.609   3.802  10.692  0.7907  0.7074 -1.3188
13605TIP3   OH262229   1.261   3.335   0.361  0.5442  0.1842 -0.1465
13605TIP3    H162230   1.354   3.329   0.382  0.1494 -0.6963  1.5753
13605TIP3    H262231   1.248   3.427   0.338  1.6522  0.5792  0.6722
13606TIP3   OH262232   0.830   6.175  16.140  0.1498  0.2603  0.1026
13606TIP3    H162233   0.896   6.212  16.080  0.2020 -0.7027 -0.4664
13606TIP3    H262234   0.872   6.178  16.226  0.8563 -0.1083 -0.2141
13607TIP3   OH262235   1.914   0.085  14.130 -0.1903  0.3973 -0.0490
13607TIP3    H162236   1.864   0.026  14.073 -0.2061  1.0437 -0.7102
13607TIP3    H262237   1.899   0.172  14.094  0.8582  0.6728  0.1501
13608TIP3   OH262238   5.857   3.587   5.896  0.3611 -0.1324 -0.3992
13608TIP3    H162239   5.767   3.576   5.929  0.5401 -0.6849 -0.0693
13608TIP3    H262240   5.909   3.530   5.953  0.9728  0.4584 -0.3593
13609TIP3   OH262241   3.243   5.111  13.060  0.7760 -0.2954 -0.2300
13609TIP3    H162242   3.182   5.117  13.133 -0.2989 -0.0914 -1.1202
13609TIP3    H262243   3.255   5.201  13.031 -0.8583 -0.5680 -1.9268
13610TIP3   OH262244   5.783   2.575  15.100  0.5600  0.7169  0.1781
13610TIP3    H162245   5.831   2.642  15.149  1.8523 -0.5382  0.6941
13610TIP3    H262246   5.750   2.515  15.167  2.2321 -0.9500 -0.4101
13611TIP3   OH262247   6.698   0.568  17.246 -0.3526  0.2302  0.2379
13611TIP3    H162248   6.744   0.514  17.311  0.7869  0.2814 -0.4856
13611TIP3    H262249   6.748   0.555  17.165 -0.1633  2.2017 -0.0009
13612TIP3   OH262250   1.710   3.664  14.956  0.2740 -0.4782 -0.4111
13612TIP3    H162251   1.635   3.656  15.015 -0.7260  1.4385 -1.2985
13612TIP3    H262252   1.675   3.638  14.871  1.2776 -1.7327 -0.4638
13613TIP3   OH262253   4.455   1.081  11.490  0.2415  0.3098  0.1695
13613TIP3    H162254   4.406   1.005  11.522 -0.7740  0.9587  0.1913
13613TIP3    H262255   4.399   1.156  11.510  1.2708  1.0836  0.2355
13614TIP3   OH262256   0.319   3.502   3.734 -0.0444 -0.1504  0.3316
13614TIP3    H162257   0.336   3.454   3.653  0.2820  0.1808  0.2001
13614TIP3    H262258   0.304   3.434   3.800 -2.5460 -0.4479 -0.4433
13615TIP3   OH262259   3.432   5.765   4.498 -0.0920 -0.2584 -0.0684
13615TIP3    H162260   3.378   5.752   4.420 -0.8538  0.8057  0.2538
13615TIP3    H262261   3.496   5.831   4.472  1.2077 -1.6566 -0.5070
13616TIP3   OH262262   0.600   5.828  13.644 -0.1760  0.5223 -0.6914
13616TIP3    H162263   0.515   5.817  13.600 -1.4524 -1.0928  1.9005
13616TIP3    H262264   0.583   5.894  13.711  1.0358  1.1876 -1.0219
13617TIP3   OH262265   4.321   2.022   3.768 -0.6442  0.0176 -0.0662
13617TIP3    H162266   4.306   1.970   3.689  1.5165 -1.8840  0.6652
13617TIP3    H262267   4.343   2.109   3.736 -0.4431 -0.5421 -1.5198
13618TIP3   OH262268   0.216   3.788   0.019 -0.1276  0.3880  0.1499
13618TIP3    H162269   0.147   3.840   0.062  0.4893  1.3462  0.0195
13618TIP3    H262270   0.293   3.800   0.075 -0.5651 -2.5339  1.5821
13619TIP3   OH262271   5.806   5.385   5.821 -0.2105 -0.2744  0.2720
13619TIP3    H162272   5.779   5.323   5.753  0.0657 -0.8693  0.6947
13619TIP3    H262273   5.880   5.432   5.782 -0.5816 -0.0284 -0.1444
13620TIP3   OH262274   1.127   2.830   4.579 -0.4421 -0.0389  0.5670
13620TIP3    H162275   1.136   2.925   4.565 -1.3098  0.2321  1.6445
13620TIP3    H262276   1.078   2.823   4.661 -0.6820 -1.4271  0.3279
13621TIP3   OH262277   1.092   3.117   0.496 -0.0523 -0.1334 -0.5726
13621TIP3    H162278   1.134   3.063   0.564 -1.7869 -0.4760  0.2791
13621TIP3    H262279   1.148   3.194   0.489  0.3090 -0.2164  1.0602
13622TIP3   OH262280   0.923   1.605   6.555 -0.9905  0.4212  1.0932
13622TIP3    H162281   0.920   1.662   6.478  0.3378 -0.5395  0.2856
13622TIP3    H262282   0.968   1.658   6.621  3.1256 -0.5486 -0.5928
13623TIP3   OH262283   1.178   5.760   4.141  0.3617  0.5176  0.0418
13623TIP3    H162284   1.242   5.689   4.149 -1.6889 -1.6191 -1.0936
13623TIP3    H262285   1.127   5.754   4.222 -0.5776 -0.1695 -0.5788
13624TIP3   OH262286   4.026   1.710  13.337 -0.2952 -0.0764 -0.7094
13624TIP3    H162287   3.949   1.669  13.296 -0.0684 -2.2386  0.8345
13624TIP3    H262288   4.094   1.643  13.331 -0.0713 -0.3137  2.4935
13625TIP3   OH262289   1.706   6.756   4.983 -0.1519 -0.1156  0.2138
13625TIP3    H162290   1.614   6.771   5.006 -0.3018 -0.8726  0.1041
13625TIP3    H262291   1.719   6.662   4.993  1.3784  0.2712  3.1336
13626TIP3   OH262292   4.004   5.061  16.496 -0.1259  0.2995  0.1021
13626TIP3    H162293   4.016   5.096  16.584  0.8753 -0.6074  0.3407
13626TIP3    H262294   3.917   5.021  16.497 -0.0462  0.1447  0.7255
13627TIP3   OH262295   0.035   0.781  12.951 -0.1043  0.0984 -0.1960
13627TIP3    H162296  -0.047   0.801  12.906  1.0591  2.7768 -1.3229
13627TIP3    H262297   0.095   0.754  12.881  0.8282  1.2352  0.1256
13628TIP3   OH262298   6.097   1.653   5.361  0.0475 -0.1550  0.4470
13628TIP3    H162299   6.017   1.668   5.311 -0.9442 -1.3137  1.6053
13628TIP3    H262300   6.149   1.731   5.347 -1.8031  1.1811  0.5811
13629TIP3   OH262301   0.530   0.542   5.835  0.4361 -0.1366 -0.8635
13629TIP3    H162302   0.594   0.522   5.903 -0.1554  1.5520  0.2627
13629TIP3    H262303   0.476   0.612   5.872 -0.2702  0.4699 -2.8686
13630TIP3   OH262304   3.817   4.073   1.793 -0.5776  0.0554  0.3043
13630TIP3    H162305   3.870   4.060   1.872 -0.2351 -3.2483 -0.3679
13630TIP3    H262306   3.726   4.070   1.825 -0.5660  3.5223  1.1219
13631TIP3   OH262307   2.657   1.765  12.527  0.3487 -0.2688  0.1888
13631TIP3    H162308   2.750   1.742  12.529  0.2493 -0.6643  1.0810
13631TIP3    H262309   2.617   1.701  12.469  0.6663  0.0472 -0.3829
13632TIP3   OH262310   0.205   5.533  13.354 -0.0921  0.5010  0.4300
13632TIP3    H162311   0.115   5.542  13.386 -0.0772  0.9469  0.3471
13632TIP3    H262312   0.230   5.621  13.329 -0.2369  0.1120 -1.1719
13633TIP3   OH262313   4.783   0.266  16.146  0.6676  0.6596  0.6726
13633TIP3    H162314   4.780   0.312  16.063 -1.6574  1.2366  1.0090
13633TIP3    H262315   4.730   0.188  16.133  0.9711  0.3163  1.3881
13634TIP3   OH262316   1.438   5.525   5.526 -0.0047 -0.3368 -0.2109
13634TIP3    H162317   1.420   5.488   5.613 -3.6597  0.9996 -0.2167
13634TIP3    H262318   1.420   5.619   5.536  0.8102  0.0615 -2.1141
13635TIP3   OH262319   2.146   0.465  15.155  0.6563 -0.1777  0.7103
13635TIP3    H162320   2.206   0.410  15.106  1.0518  0.0280  0.9525
13635TIP3    H262321   2.171   0.555  15.132 -0.7042 -0.0867 -0.5459
13636TIP3   OH262322   4.414   5.438  11.256 -0.1825 -0.3397 -0.0052
13636TIP3    H162323   4.503   5.473  11.251 -1.1823  2.3127 -0.5318
13636TIP3    H262324   4.392   5.439  11.349  0.1003 -0.3817  0.0605
13637TIP3   OH262325   1.659   0.604  14.298  0.2427 -0.6710  0.2444
13637TIP3    H162326   1.581   0.573  14.344  0.1339  1.2516  1.4879
13637TIP3    H262327   1.623   0.652  14.222  0.3394 -1.8345 -0.5614
13638TIP3   OH262328   4.888   4.190  16.328  0.1933  0.0040 -0.5242
13638TIP3    H162329   4.816   4.225  16.275 -0.9190 -1.4408 -0.0547
13638TIP3    H262330   4.899   4.253  16.399 -2.0644 -0.7010  0.5587
13639TIP3   OH262331   0.319   1.200   3.256 -0.2280  0.3166  0.6877
13639TIP3    H162332   0.318   1.142   3.332  0.9358 -0.3145  0.2460
13639TIP3    H262333   0.409   1.197   3.224 -0.4682  1.3127 -0.1610
13640TIP3   OH262334   3.331   3.329   6.311  0.0737 -0.2166  0.0899
13640TIP3    H162335   3.425   3.309   6.317  0.6432  1.0916 -2.7689
13640TIP3    H262336   3.323   3.417   6.347 -0.0589 -0.3105  0.2912
13641TIP3   OH262337   0.972   4.483   1.833 -0.1742 -0.1414 -0.5011
13641TIP3    H162338   0.986   4.496   1.926  0.6840 -1.1304 -0.4747
13641TIP3    H262339   0.949   4.570   1.800  1.6507  0.6903  0.2708
13642TIP3   OH262340   6.667   6.377   6.301 -0.5035  0.1752 -0.3355
13642TIP3    H162341   6.602   6.386   6.231  1.4609  0.8089 -2.1773
13642TIP3    H262342   6.661   6.285   6.327 -1.1033 -0.1414 -1.5058
13643TIP3   OH262343   4.680   6.053   4.930 -0.1313  0.0090 -0.1770
13643TIP3    H162344   4.629   5.975   4.911 -0.7319  0.4203 -0.2989
13643TIP3    H262345   4.694   6.095   4.845 -1.9563  1.3163  0.0837
13644TIP3   OH262346   1.307   3.258   5.611  0.1088  0.3049 -0.0929
13644TIP3    H162347   1.316   3.251   5.706 -0.4896 -0.6868 -0.0913
13644TIP3    H262348   1.363   3.332   5.587  0.8265  0.1270  0.9392
13645TIP3   OH262349   3.442   3.543   2.125  0.1190  0.7274 -0.5181
13645TIP3    H162350   3.465   3.614   2.065 -0.3849  1.1585 -0.2238
13645TIP3    H262351   3.525   3.509   2.156  0.3771  1.4069 -0.4342
13646TIP3   OH262352   1.902   0.198  16.966  0.1339  0.9521 -0.4235
13646TIP3    H162353   1.984   0.215  16.919  0.3849  0.3080 -0.2298
13646TIP3    H262354   1.890   0.103  16.960 -0.4886  1.0175 -0.2645
13647TIP3   OH262355   6.540   2.316  14.465 -0.9875 -0.5131  0.4233
13647TIP3    H162356   6.619   2.306  14.518 -0.6633  1.2562  0.3518
13647TIP3    H262357   6.485   2.377  14.515 -1.0384  0.5335 -0.8444
13648TIP3   OH262358   6.679   2.382  12.014  0.0794  0.0236  0.6634
13648TIP3    H162359   6.750   2.429  12.057  1.0396 -0.7450 -0.0401
13648TIP3    H262360   6.718   2.301  11.984 -0.9223 -0.1138 -0.3650
13649TIP3   OH262361   2.985   3.433   3.321  0.2566  0.1834 -0.3849
13649TIP3    H162362   3.004   3.339   3.326  0.4431  0.2969  1.5929
13649TIP3    H262363   3.027   3.462   3.240  0.5159 -1.3589 -0.8245
13650TIP3   OH262364   0.000   4.432   2.295  0.0641 -0.1323 -0.5960
13650TIP3    H162365   0.086   4.428   2.337 -0.6163  0.4938  0.9430
13650TIP3    H262366  -0.059   4.392   2.359 -0.8698 -0.0341 -1.3931
13651TIP3   OH262367   4.134   2.620  11.476  0.2079 -0.2158 -0.3601
13651TIP3    H162368   4.196   2.557  11.439 -0.5416  0.0786 -2.2595
13651TIP3    H262369   4.059   2.567  11.504 -0.0393 -0.2807 -1.1167
13652TIP3   OH262370   4.605   2.745   4.196 -0.0858 -0.3286  0.6116
13652TIP3    H162371   4.529   2.795   4.225 -0.8329 -1.0494 -0.0424
13652TIP3    H262372   4.676   2.809   4.191 -0.5326  0.2717  1.6484
13653TIP3   OH262373   6.390   5.792   0.001  0.0854  0.0570 -0.5844
13653TIP3    H162374   6.331   5.849   0.051  1.2929  0.3237  0.6092
13653TIP3    H262375   6.471   5.843  -0.008  1.0912 -1.3153  0.2419
13654TIP3   OH262376   4.757   3.965  16.259 -0.8158  0.2647 -0.2793
13654TIP3    H162377   4.817   4.034  16.287 -1.9192  1.0315  0.2411
13654TIP3    H262378   4.783   3.946  16.168 -1.6402  2.6602 -1.0848
13655TIP3   OH262379   3.703   1.945  16.296  0.2944  0.5395  0.3795
13655TIP3    H162380   3.734   1.965  16.208  0.2953  1.7074  0.6391
13655TIP3    H262381   3.735   1.856  16.313 -3.1412 -1.4924 -2.3906
13656TIP3   OH262382   2.965   5.577  15.364 -0.0201  0.2326 -0.4367
13656TIP3    H162383   2.949   5.489  15.399  0.1560 -0.1290 -1.2410
13656TIP3    H262384   2.929   5.575  15.276 -1.8597  1.6229  0.2232
13657TIP3   OH262385   4.862   0.145  11.941  0.0188 -0.2484  0.0760
13657TIP3    H162386   4.935   0.114  11.994 -0.1646  2.3320  2.0652
13657TIP3    H262387   4.903   0.188  11.866  0.8774  2.8876  2.1138
13658TIP3   OH262388   1.018   3.776   2.180  0.1757  0.0006  0.3081
13658TIP3    H162389   1.025   3.837   2.253  3.0181  0.7512 -0.4634
13658TIP3    H262390   1.005   3.691   2.221 -0.6127  0.6934  1.5534
13659TIP3   OH262391   0.626   2.043  12.792 -0.4186  0.8713  0.3608
13659TIP3    H162392   0.560   2.108  12.819 -0.6392  1.0128 -0.4664
13659TIP3    H262393   0.575   1.972  12.754 -0.1976  0.0259  1.5880
13660TIP3   OH262394   0.296   1.136  15.155 -0.0472 -0.2254  0.6553
13660TIP3    H162395   0.244   1.057  15.166  1.0899 -0.7826  2.3477
13660TIP3    H262396   0.262   1.197  15.220  0.5488 -0.1412  0.8998
13661TIP3   OH262397   3.531   2.641   2.770 -0.2580  0.0013  0.0883
13661TIP3    H162398   3.486   2.717   2.732 -0.0148 -1.2839 -3.1373
13661TIP3    H262399   3.606   2.678   2.815 -0.2498  1.7417 -1.2102
13662TIP3   OH262400   1.002   1.953  16.978  0.4931  0.8300  0.0066
13662TIP3    H162401   1.069   1.906  17.027 -1.2026 -0.8618  0.8483
13662TIP3    H262402   1.025   2.045  16.987  2.2481  0.3380  0.9126
13663TIP3   OH262403   4.881   1.483  11.425 -1.1705  0.0023  0.2837
13663TIP3    H162404   4.866   1.557  11.484 -0.8360  0.6570 -0.4319
13663TIP3    H262405   4.956   1.437  11.463 -0.3830  0.9310 -0.0851
13664TIP3   OH262406   0.714   1.361  11.883  0.0183  0.0951 -0.2516
13664TIP3    H162407   0.692   1.279  11.927  1.3100 -0.1903 -0.0862
13664TIP3    H262408   0.796   1.342  11.837  0.9929  1.5971  0.7601
13665TIP3   OH262409   6.497   1.457   0.932  0.3499  0.4643  0.2440
13665TIP3    H162410   6.525   1.368   0.953 -0.8984 -0.2098 -0.8314
13665TIP3    H262411   6.494   1.502   1.017  0.7612 -0.5678  0.8213
13666TIP3   OH262412   4.140   2.299   4.569 -0.4218 -0.0920  0.3949
13666TIP3    H162413   4.221   2.260   4.603  0.6075  1.2413 -0.4305
13666TIP3    H262414   4.134   2.269   4.479 -1.8071 -1.5781  0.9389
13667TIP3   OH262415   3.107   3.812   4.907 -0.3034  0.5303 -0.4651
13667TIP3    H162416   3.184   3.812   4.849 -0.1500 -0.0495 -0.2661
13667TIP3    H262417   3.109   3.726   4.949  1.1850  1.8722  2.5477
13668TIP3   OH262418   0.771   3.689  16.282 -0.0892  0.1512  0.5221
13668TIP3    H162419   0.768   3.735  16.198  1.0376 -2.3649 -0.9979
13668TIP3    H262420   0.688   3.641  16.286 -0.5777  1.0207  1.3700
13669TIP3   OH262421   0.590   2.803  16.093 -0.6193 -0.2699  0.3037
13669TIP3    H162422   0.622   2.890  16.069 -1.1132  0.1488  1.1263
13669TIP3    H262423   0.605   2.749  16.015  0.1621  0.4234 -0.0295
13670TIP3   OH262424   2.140   1.338   4.263 -0.1260 -0.4273  0.1425
13670TIP3    H162425   2.163   1.306   4.176  2.7530 -1.3183  1.1418
13670TIP3    H262426   2.119   1.259   4.313 -1.7254  0.0727  0.3394
13671TIP3   OH262427   0.638   1.761   0.751  0.6255 -0.2351 -0.0567
13671TIP3    H162428   0.577   1.688   0.756  0.2416  0.0103 -0.9714
13671TIP3    H262429   0.672   1.757   0.662  0.3864  0.8678 -0.2044
13672TIP3   OH262430   6.604   1.104   4.813  0.4836 -0.4101  0.0838
13672TIP3    H162431   6.549   1.062   4.879  0.9377 -0.0138  0.7209
13672TIP3    H262432   6.592   1.198   4.828  0.8712 -0.3184 -0.1620
13673TIP3   OH262433   4.159   1.529   4.821  0.3389 -0.8348 -0.2435
13673TIP3    H162434   4.087   1.580   4.858  0.6761 -0.2146 -0.4274
13673TIP3    H262435   4.117   1.454   4.779 -0.1077 -1.1355  0.7050
13674TIP3   OH262436   5.437   1.827  10.494 -0.4934 -0.1674  0.1420
13674TIP3    H162437   5.432   1.757  10.429  1.2735  1.0430 -1.4012
13674TIP3    H262438   5.477   1.785  10.571  1.4880 -0.6989 -1.0954
13675TIP3   OH262439   0.405   1.321  11.656  0.1036  0.1863 -0.1054
13675TIP3    H162440   0.405   1.414  11.677  2.8418  0.1399  0.5311
13675TIP3    H262441   0.447   1.315  11.570  0.1677 -0.4635 -0.0371
13676TIP3   OH262442   6.590   0.297  15.334  0.6014  0.6392  0.2576
13676TIP3    H162443   6.680   0.324  15.317  1.3260 -1.9751 -0.6660
13676TIP3    H262444   6.595   0.245  15.414 -0.4055  1.7730  1.0804
13677TIP3   OH262445   6.560   2.952  15.336 -0.3853  0.5253 -0.8278
13677TIP3    H162446   6.625   2.942  15.405 -0.2057  0.2621 -1.0376
13677TIP3    H262447   6.523   3.040  15.351  0.8007  1.1374 -1.3793
13678TIP3   OH262448   5.324   1.186  17.296 -0.1239  0.2421 -0.0131
13678TIP3    H162449   5.239   1.161  17.261 -0.3109  1.4134 -0.4664
13678TIP3    H262450   5.372   1.104  17.305 -0.7755 -0.2920 -1.1630
13679TIP3   OH262451   1.483   6.340   3.424 -0.4455 -0.2691  0.6773
13679TIP3    H162452   1.465   6.309   3.513 -2.3482 -0.0573  0.3977
13679TIP3    H262453   1.539   6.416   3.436 -0.8675 -0.1091  1.7129
13680TIP3   OH262454   1.770   1.911  11.495 -0.6409 -1.2228 -0.4024
13680TIP3    H162455   1.865   1.919  11.489 -0.7693 -0.0774 -1.1017
13680TIP3    H262456   1.754   1.817  11.489  0.2937 -1.3037 -3.1584
13681TIP3   OH262457   5.204   2.450  16.943 -0.3388  0.0026  0.3146
13681TIP3    H162458   5.141   2.383  16.971 -0.1780 -0.3735 -0.2017
13681TIP3    H262459   5.289   2.408  16.953 -0.0882  0.7813  1.7740
13682TIP3   OH262460   4.663   2.795   1.826 -0.3830 -0.0561  0.3118
13682TIP3    H162461   4.605   2.862   1.790  2.5225  2.5311  0.0202
13682TIP3    H262462   4.617   2.763   1.903 -2.4708  1.3487 -0.2536
13683TIP3   OH262463   5.758   4.055  12.280 -0.2309 -0.4711 -0.2392
13683TIP3    H162464   5.674   4.060  12.234 -0.4783 -2.5025 -0.1012
13683TIP3    H262465   5.822   4.084  12.215 -1.0244  1.3692 -0.2652
13684TIP3   OH262466   1.784   2.768  14.816  0.5955 -0.8770 -0.4151
13684TIP3    H162467   1.753   2.682  14.844 -0.7814  0.2768  1.9790
13684TIP3    H262468   1.731   2.790  14.740 -0.2750 -1.4377  0.0151
13685TIP3   OH262469   4.645   6.462  17.006  0.4465 -0.2383 -0.2288
13685TIP3    H162470   4.679   6.481  16.919 -0.1952 -1.7909 -0.8535
13685TIP3    H262471   4.709   6.402  17.044  0.6758  0.3601  0.3482
13686TIP3   OH262472   0.480   1.923   4.553  0.3727  0.2442  0.2783
13686TIP3    H162473   0.391   1.959   4.558 -0.9206 -1.7814 -3.5749
13686TIP3    H262474   0.494   1.883   4.639 -1.6680  2.1090  1.6166
13687TIP3   OH262475   2.503   0.547   0.521  0.2463 -0.5934  0.7809
13687TIP3    H162476   2.541   0.634   0.532  0.7885 -0.1173 -3.2096
13687TIP3    H262477   2.435   0.542   0.588  1.5892  1.9847  2.5432
13688TIP3   OH262478   2.096   0.005  13.651 -0.2274 -0.6071 -0.7215
13688TIP3    H162479   2.021   0.054  13.685  0.6654  0.3624 -0.1115
13688TIP3    H262480   2.157   0.071  13.620  0.0501 -1.4088 -1.9687
13689TIP3   OH262481   0.230   4.319   2.703 -0.0808  0.1633  0.0301
13689TIP3    H162482   0.195   4.248   2.649  0.7014 -0.3863  0.2194
13689TIP3    H262483   0.278   4.273   2.773 -1.7487  0.8205  1.6750
13690TIP3   OH262484   1.385   2.910   2.951 -0.1019 -0.0625 -0.6347
13690TIP3    H162485   1.412   2.869   3.033  1.9178  0.4540 -0.9883
13690TIP3    H262486   1.444   2.873   2.885 -1.2880 -0.0101 -1.7738
13691TIP3   OH262487   6.231   3.814  12.135 -0.7219  0.2932  0.5772
13691TIP3    H162488   6.241   3.823  12.229 -2.2942  1.6087  0.6682
13691TIP3    H262489   6.167   3.743  12.124  0.0701 -0.4135  0.4524
13692TIP3   OH262490   0.199   2.439   0.164 -0.0869  0.4533  0.7495
13692TIP3    H162491   0.280   2.397   0.135  0.1826  0.4476  1.4865
13692TIP3    H262492   0.193   2.519   0.111  0.8391  0.8787  1.2675
13693TIP3   OH262493   6.015   0.872  14.022  0.2109 -0.6919  0.1482
13693TIP3    H162494   5.963   0.820  13.961 -1.0561  0.8380 -0.1427
13693TIP3    H262495   6.102   0.876  13.983 -0.2175 -0.8874 -0.8510
13694TIP3   OH262496   2.428   2.645   2.547  0.3143 -0.9963 -0.0474
13694TIP3    H162497   2.487   2.648   2.623  0.4461 -1.4523 -0.1291
13694TIP3    H262498   2.449   2.724   2.497 -0.3393 -0.2591  0.8089
13695TIP3   OH262499   1.041   5.296  17.129 -0.3021 -0.1321 -0.0209
13695TIP3    H162500   1.102   5.228  17.100 -1.4940 -0.8523 -0.9467
13695TIP3    H262501   0.982   5.308  17.055 -0.8448  1.0688  0.5821
13696TIP3   OH262502   0.832   1.441   3.522 -0.1340  0.4386  0.0338
13696TIP3    H162503   0.755   1.401   3.560 -0.0442 -0.0750 -0.3100
13696TIP3    H262504   0.899   1.434   3.590 -0.6127  1.6742  0.6658
13697TIP3   OH262505   5.568   5.275   2.630 -0.2456 -0.2864 -0.3732
13697TIP3    H162506   5.541   5.227   2.551 -0.7745  0.8185 -0.8835
13697TIP3    H262507   5.658   5.302   2.612  0.8924 -2.9180  0.8262
13698TIP3   OH262508   4.754   5.590  10.449 -0.0383  0.1260 -0.3376
13698TIP3    H162509   4.817   5.563  10.516  0.5138  3.6584  0.7801
13698TIP3    H262510   4.771   5.683  10.436 -2.4239  0.3365 -2.9652
13699TIP3   OH262511   5.541   4.069   4.984  0.4127  0.2245  0.1003
13699TIP3    H162512   5.498   4.150   4.954  1.1812  0.8953  0.7780
13699TIP3    H262513   5.558   4.020   4.903 -0.6199  0.4471 -0.2650
13700TIP3   OH262514   0.890   6.024  14.040 -0.0532 -0.0689  0.2382
13700TIP3    H162515   0.982   6.047  14.050 -0.4801  1.2877  1.2170
13700TIP3    H262516   0.857   6.015  14.130 -0.7584 -1.0708 -0.0986
13701TIP3   OH262517   5.836   1.363  16.572 -0.2816 -0.0528  0.0508
13701TIP3    H162518   5.770   1.338  16.637 -1.1254  0.0625 -0.7474
13701TIP3    H262519   5.830   1.459  16.568  1.2685  0.1349  1.3497
13702TIP3   OH262520   5.487   0.792  12.331  0.5846  0.4493 -0.2632
13702TIP3    H162521   5.439   0.846  12.268 -0.9502  0.8255  1.1451
13702TIP3    H262522   5.428   0.719  12.348  0.5828  0.7872  1.3260
13703TIP3   OH262523   6.570   3.075  14.882  0.9539 -0.1727  0.2524
13703TIP3    H162524   6.475   3.077  14.884  0.7608 -0.4128 -3.1071
13703TIP3    H262525   6.592   2.982  14.892  0.9612 -0.0303  1.9059
13704TIP3   OH262526   2.250   0.939   5.123 -0.2906  0.2815  0.3305
13704TIP3    H162527   2.249   0.882   5.200  1.7541 -0.4734 -0.1335
13704TIP3    H262528   2.220   0.883   5.051 -0.8901  0.5931  0.3337
13705TIP3   OH262529   2.279   5.629  16.217 -0.3366  0.2570  0.5117
13705TIP3    H162530   2.293   5.534  16.210  0.1819  0.3715 -0.0425
13705TIP3    H262531   2.190   5.637  16.252  0.7026 -0.5168  3.7616
13706TIP3   OH262532   0.956   1.101  13.114 -0.5016 -0.1532 -0.4308
13706TIP3    H162533   0.897   1.078  13.187 -0.9177 -1.9912 -1.2934
13706TIP3    H262534   0.935   1.037  13.045  2.1265 -0.5327 -0.9844
13707TIP3   OH262535   3.761   4.864  16.758 -0.1784 -0.5872  0.0184
13707TIP3    H162536   3.845   4.820  16.747  0.0445 -0.0531 -0.5034
13707TIP3    H262537   3.749   4.869  16.853  1.4433  1.2444  0.1914
13708TIP3   OH262538   0.417   1.613  13.877  0.0058  0.3370 -0.0711
13708TIP3    H162539   0.432   1.596  13.784  0.9349  0.7716 -0.0168
13708TIP3    H262540   0.485   1.677  13.900 -2.0791  2.5848  0.2046
13709TIP3   OH262541   1.559   2.482  15.144 -0.0648 -0.9152 -0.5245
13709TIP3    H162542   1.552   2.567  15.187  1.9904  0.2330 -2.2786
13709TIP3    H262543   1.470   2.447  15.147 -0.6797  0.6069  1.5332
13710TIP3   OH262544   4.417   6.298  13.795 -0.3728  0.3843  0.4358
13710TIP3    H162545   4.433   6.391  13.778 -0.4350  0.9331  2.9722
13710TIP3    H262546   4.326   6.295  13.825  0.0363 -0.2586  1.6778
13711TIP3   OH262547   1.920   5.219  16.609 -0.6878  0.0935  0.5063
13711TIP3    H162548   1.842   5.266  16.580  0.0873  0.5062 -0.9985
13711TIP3    H262549   1.890   5.129  16.623 -1.1837 -0.1071 -1.4987
13712TIP3   OH262550   2.720   5.294  12.153 -0.3238 -0.3216 -0.2608
13712TIP3    H162551   2.791   5.261  12.098  0.2162  0.4671 -0.0577
13712TIP3    H262552   2.658   5.332  12.091  1.4424  2.8505 -0.3245
13713TIP3   OH262553   5.994   3.347   2.382 -1.4684 -0.2094 -0.2653
13713TIP3    H162554   6.029   3.429   2.348  0.6261 -0.8253  0.2496
13713TIP3    H262555   5.923   3.324   2.322 -0.0542  0.3897 -2.2765
13714TIP3   OH262556   4.152   3.108   2.450 -0.1719 -0.4548  0.2635
13714TIP3    H162557   4.065   3.150   2.450  0.4589  0.9207  0.6789
13714TIP3    H262558   4.213   3.182   2.444  0.9619 -1.4664 -3.5017
13715TIP3   OH262559   2.769   4.445  11.715  0.5262  0.1206  0.0464
13715TIP3    H162560   2.844   4.477  11.765 -0.5553  1.4590  0.8898
13715TIP3    H262561   2.746   4.362  11.756  1.4826 -0.2795 -0.1895
13716TIP3   OH262562   0.473   0.224  14.630  0.7252  0.2150  0.6655
13716TIP3    H162563   0.452   0.304  14.582 -0.1740 -0.0442  0.6029
13716TIP3    H262564   0.538   0.180  14.576  1.7801  1.2343  1.0529
13717TIP3   OH262565   1.865   3.702  15.407 -0.0365 -0.4298 -0.7581
13717TIP3    H162566   1.778   3.684  15.372  0.4606  1.1021 -3.0585
13717TIP3    H262567   1.880   3.795  15.386  1.8854 -0.4946  0.1467
13718TIP3   OH262568   4.368   2.269   1.534  0.2387 -0.0784  0.0701
13718TIP3    H162569   4.299   2.277   1.468 -1.3133  0.1641  1.6442
13718TIP3    H262570   4.442   2.230   1.487 -1.5586 -2.0974 -1.2760
13719TIP3   OH262571   1.240   4.413   2.583  0.0667  0.4598  0.3123
13719TIP3    H162572   1.268   4.329   2.618  2.0994  0.8261 -0.2852
13719TIP3    H262573   1.286   4.478   2.637 -0.9474  1.1881  0.3361
13720TIP3   OH262574   5.650   6.370   2.076 -0.1325  0.3493  0.4353
13720TIP3    H162575   5.580   6.423   2.113 -0.1210 -0.7644  2.1264
13720TIP3    H262576   5.616   6.340   1.992 -1.5472  0.1003  1.0793
13721TIP3   OH262577   1.499   0.946   0.960  0.0483 -0.1708 -0.8158
13721TIP3    H162578   1.501   1.040   0.977 -0.6011 -0.1360 -0.9108
13721TIP3    H262579   1.434   0.911   1.022  0.9607 -0.6999 -0.1298
13722TIP3   OH262580   5.288   3.849  16.305  0.2203 -0.2316  0.3999
13722TIP3    H162581   5.313   3.771  16.256  2.3408  0.2580  0.6055
13722TIP3    H262582   5.248   3.815  16.385 -0.3337 -1.0670 -0.2153
13723TIP3   OH262583   2.000   3.596  12.610 -0.2472  0.0078  0.2562
13723TIP3    H162584   1.917   3.643  12.624  0.4303  1.4207 -0.2689
13723TIP3    H262585   2.012   3.597  12.515  0.9992  0.9958  0.3991
13724TIP3   OH262586   5.889   5.635   0.920 -0.0509  0.1609  0.6373
13724TIP3    H162587   5.951   5.704   0.944  0.1363 -0.2966  1.5189
13724TIP3    H262588   5.944   5.560   0.897 -0.2542  0.2817 -0.2883
13725TIP3   OH262589   0.346   5.402  14.558 -0.5989  0.6013 -0.4025
13725TIP3    H162590   0.434   5.402  14.521 -0.3155  0.8329  0.2563
13725TIP3    H262591   0.321   5.309  14.562  0.9247  0.1960  2.4099
13726TIP3   OH262592   0.365   3.672  11.947  0.6470  0.1844 -0.0114
13726TIP3    H162593   0.354   3.683  11.852 -1.3661  0.5983  0.2108
13726TIP3    H262594   0.318   3.591  11.967 -0.1377  0.8107  0.7894
13727TIP3   OH262595   0.608   0.779   0.844 -0.1977 -0.4475 -0.6123
13727TIP3    H162596   0.564   0.756   0.762 -0.4381  1.7268 -1.1472
13727TIP3    H262597   0.548   0.840   0.887 -0.3958 -2.0310  1.5574
13728TIP3   OH262598   4.886   0.316   3.553  0.7540 -0.4829 -0.1778
13728TIP3    H162599   4.843   0.261   3.488  1.7431 -0.7587 -0.6182
13728TIP3    H262600   4.944   0.256   3.600  2.1390  0.2192 -0.9177
13729TIP3   OH262601   4.282   0.803  13.052 -0.5049  0.0051  0.2820
13729TIP3    H162602   4.331   0.745  12.994 -1.3598 -1.3137  0.8221
13729TIP3    H262603   4.210   0.837  12.998 -0.2546  0.2120  0.0818
13730TIP3   OH262604   5.227   5.684   4.649  0.1340  0.2760  0.0390
13730TIP3    H162605   5.221   5.670   4.555  0.8963  0.0564  0.0170
13730TIP3    H262606   5.183   5.608   4.688 -2.3653  1.5206 -0.1285
13731TIP3   OH262607   1.110   4.090   1.293  0.9675 -0.1920 -0.4412
13731TIP3    H162608   1.127   4.010   1.244  0.0754 -1.3217  0.9948
13731TIP3    H262609   1.164   4.082   1.372 -0.3909 -0.2135  0.5212
13732TIP3   OH262610   3.794   2.603  16.683 -0.6941  0.6009 -0.6463
13732TIP3    H162611   3.838   2.626  16.765 -0.3958 -0.3049 -0.5445
13732TIP3    H262612   3.807   2.509  16.674 -2.1585  0.3898 -0.8822
13733TIP3   OH262613   4.355   2.173  15.140 -0.4121  0.2591 -0.1107
13733TIP3    H162614   4.380   2.111  15.071  0.8620 -1.2398  1.5756
13733TIP3    H262615   4.260   2.174  15.139 -0.4325 -0.8927 -0.9044
13734TIP3   OH262616   0.925   5.317   3.233 -0.3120  0.1714  0.6988
13734TIP3    H162617   0.992   5.349   3.293  0.3168 -1.1309  0.7192
13734TIP3    H262618   0.973   5.296   3.153 -0.8374  0.0290  0.4152
13735TIP3   OH262619   5.488   0.747   2.997  0.2126  0.4700 -0.2310
13735TIP3    H162620   5.564   0.769   3.052  0.6749 -1.5276  0.0084
13735TIP3    H262621   5.511   0.778   2.910  1.4378 -0.3399 -0.2129
13736TIP3   OH262622   6.591   5.717   3.643  0.1155  0.5868 -0.1789
13736TIP3    H162623   6.589   5.812   3.642  0.4987  0.5980  0.0773
13736TIP3    H262624   6.640   5.694   3.721 -1.6866  0.1510  0.8784
13737TIP3   OH262625   5.277   5.967   2.900  0.1182 -0.1627  0.4988
13737TIP3    H162626   5.263   6.042   2.957 -0.5111 -0.2708  0.4872
13737TIP3    H262627   5.207   5.972   2.835  1.2895  0.4228 -0.7704
13738TIP3   OH262628   6.247   2.773   3.055 -0.5006 -0.9746 -0.1674
13738TIP3    H162629   6.205   2.846   3.009  0.1222 -0.1448  0.5627
13738TIP3    H262630   6.321   2.812   3.100 -1.0315 -1.7599  1.4773
13739TIP3   OH262631   4.676   4.378   5.419 -0.7085 -0.1502 -0.3892
13739TIP3    H162632   4.769   4.403   5.413 -0.3814 -1.3774 -0.7529
13739TIP3    H262633   4.668   4.336   5.504 -1.5199  2.1266  0.7340
13740TIP3   OH262634   6.272   4.982  14.358  0.1436  0.3173 -0.0520
13740TIP3    H162635   6.218   4.986  14.279  0.3665  0.6784 -0.1873
13740TIP3    H262636   6.252   4.896  14.396  1.7899 -0.9498 -1.7670
13741TIP3   OH262637   4.612   5.040  11.708 -0.1801  0.0658  0.0939
13741TIP3    H162638   4.587   5.092  11.632 -1.2767  0.0574  0.4321
13741TIP3    H262639   4.529   5.009  11.745  0.4039 -1.1249  0.4605
13742TIP3   OH262640   4.192   0.928  10.990 -0.5921  0.2820 -0.2412
13742TIP3    H162641   4.215   0.840  10.960  0.5538  1.2575 -2.4919
13742TIP3    H262642   4.144   0.967  10.917  0.5289  2.1272 -0.0737
13743TIP3   OH262643   1.513   2.357   4.409 -0.3433  0.8663  0.2235
13743TIP3    H162644   1.425   2.390   4.427  1.1188  4.2096  2.2430
13743TIP3    H262645   1.520   2.278   4.462 -1.7255  1.2613  1.0549
13744TIP3   OH262646   4.425   5.940  14.784  0.0809 -0.3638  0.3214
13744TIP3    H162647   4.374   5.900  14.854 -0.4084 -0.3221 -0.0090
13744TIP3    H262648   4.409   5.884  14.708 -1.0432  0.7532 -0.2854
13745TIP3   OH262649   2.416   5.304   6.606  0.1964  0.0258  0.5732
13745TIP3    H162650   2.374   5.383   6.575 -1.6666 -0.1790  2.3913
13745TIP3    H262651   2.508   5.329   6.619 -0.1806  1.6329  0.3024
13746TIP3   OH262652   0.695   6.216   0.935 -0.4655 -0.4823  0.2814
13746TIP3    H162653   0.682   6.124   0.956 -0.5668 -0.2168  1.4114
13746TIP3    H262654   0.619   6.261   0.974  0.6649  0.3341  1.6365
13747TIP3   OH262655   5.868   0.831   2.496 -0.0842  0.5074 -0.1521
13747TIP3    H162656   5.841   0.740   2.481  1.5416  0.1061 -0.9839
13747TIP3    H262657   5.825   0.880   2.427  0.1287  0.1314 -0.5596
13748TIP3   OH262658   3.601   1.616  17.235 -0.1165  0.1177 -0.1544
13748TIP3    H162659   3.663   1.558  17.280 -0.4779 -0.3850 -0.2962
13748TIP3    H262660   3.520   1.608  17.285 -0.6437 -0.7616 -1.1227
13749TIP3   OH262661   2.757   2.319   6.281  1.0033 -0.3045  0.0331
13749TIP3    H162662   2.848   2.313   6.311  0.3064  1.0849  2.7819
13749TIP3    H262663   2.717   2.237   6.311  0.4306  0.8696  2.7435
13750TIP3   OH262664   0.910   1.269  13.792 -0.0529 -0.6553 -0.4909
13750TIP3    H162665   0.901   1.202  13.725  0.5855 -1.1896 -0.0565
13750TIP3    H262666   0.995   1.309  13.773  0.8013 -1.7647  0.8273
13751TIP3   OH262667   1.835   6.390  11.774  0.1511 -0.0578  0.0709
13751TIP3    H162668   1.803   6.429  11.855 -0.3273  1.6476 -0.8913
13751TIP3    H262669   1.783   6.311  11.763 -1.8791  1.2277 -0.0444
13752TIP3   OH262670   4.616   3.685  11.785 -0.0229 -0.1256 -0.2992
13752TIP3    H162671   4.705   3.649  11.785  0.3758  0.7774  1.0900
13752TIP3    H262672   4.627   3.776  11.814 -1.5437 -0.4755  1.6430
13753TIP3   OH262673   2.802   6.739   4.690  0.0749  0.0975  0.4392
13753TIP3    H162674   2.795   6.775   4.778 -0.3801 -0.2895  0.5621
13753TIP3    H262675   2.876   6.679   4.695 -1.5216 -1.9063  1.2643
13754TIP3   OH262676   0.982   2.924   1.360  0.0099  0.0404 -0.4631
13754TIP3    H162677   1.071   2.948   1.335 -0.2193  0.0522 -1.2869
13754TIP3    H262678   0.945   2.883   1.282 -0.8523  0.4352 -0.2748
13755TIP3   OH262679   2.244   6.172  13.777  0.4914 -0.2449 -0.2954
13755TIP3    H162680   2.336   6.197  13.775  0.7176 -0.7397  1.5838
13755TIP3    H262681   2.201   6.238  13.832 -0.0939 -0.5077 -0.4194
13756TIP3   OH262682   6.644   2.357  16.095 -0.3418  0.5529 -0.1688
13756TIP3    H162683   6.639   2.272  16.052 -0.1381  0.1475  0.6010
13756TIP3    H262684   6.563   2.363  16.146  0.8973 -0.4759  2.1010
13757TIP3   OH262685   4.237   5.801   7.006 -0.2539  0.1794  0.2802
13757TIP3    H162686   4.236   5.708   7.031 -1.0005  0.7186  2.4313
13757TIP3    H262687   4.330   5.821   6.995 -0.0226 -0.6087  0.6823
13758TIP3   OH262688   2.805   1.318  15.868 -0.1673 -0.3906  0.2126
13758TIP3    H162689   2.844   1.398  15.833 -0.7232 -0.2878 -0.2065
13758TIP3    H262690   2.744   1.290  15.799 -2.0886  0.3940  1.5168
13759TIP3   OH262691   5.105   2.315   6.013  0.3321  0.1354  0.6277
13759TIP3    H162692   5.192   2.355   6.011  1.8524 -2.9151  0.9245
13759TIP3    H262693   5.073   2.333   6.101  2.0030 -1.2164  1.5685
13760TIP3   OH262694   4.464   4.485   2.144  0.1700 -0.2162  0.0653
13760TIP3    H162695   4.419   4.570   2.145  1.8028  0.8998  4.5756
13760TIP3    H262696   4.480   4.466   2.236  2.7688 -3.9189 -0.9317
13761TIP3   OH262697   1.793   3.143  14.412  0.3213 -0.3782  0.2731
13761TIP3    H162698   1.725   3.090  14.372 -1.0043 -0.0653  1.9932
13761TIP3    H262699   1.746   3.215  14.454  1.7639  0.1401  1.0753
13762TIP3   OH262700   0.050   4.984  16.535 -0.0620  0.4155 -0.2393
13762TIP3    H162701   0.006   4.980  16.450  3.2940 -1.0060 -2.0826
13762TIP3    H262702   0.086   5.072  16.539  0.0621  0.3766 -0.4579
13763TIP3   OH262703   0.126   5.676   5.625  0.4363 -0.6127 -0.2156
13763TIP3    H162704   0.108   5.659   5.717 -0.6452 -2.0468 -0.6640
13763TIP3    H262705   0.152   5.768   5.622 -0.4709 -0.2765  1.3827
13764TIP3   OH262706   3.646   0.548   0.973  0.1516  0.1343  0.5470
13764TIP3    H162707   3.631   0.514   1.061 -1.3842 -0.7498 -0.0050
13764TIP3    H262708   3.612   0.637   0.975 -0.3008 -0.0397  0.7344
13765TIP3   OH262709   6.115   0.350   4.799 -0.6229  0.4131  0.0601
13765TIP3    H162710   6.097   0.395   4.716 -1.3772 -1.0083 -0.5735
13765TIP3    H262711   6.057   0.394   4.862 -1.0960  0.5621 -0.4683
13766TIP3   OH262712   6.101   4.497  16.862 -0.6590 -0.0022 -0.2583
13766TIP3    H162713   6.062   4.424  16.813 -1.3868 -0.5204  1.0380
13766TIP3    H262714   6.062   4.490  16.950 -1.7287  2.6901 -0.4250
13767TIP3   OH262715   6.205   2.371  13.960 -0.0859 -0.0964 -0.8096
13767TIP3    H162716   6.253   2.444  13.921 -1.1473  0.6729 -0.7178
13767TIP3    H262717   6.274   2.310  13.987  0.8027  0.6237 -1.3397
13768TIP3   OH262718   6.169   6.499  12.649  0.1772 -0.1926  0.4359
13768TIP3    H162719   6.196   6.497  12.741 -0.6289  0.4888  0.6967
13768TIP3    H262720   6.152   6.407  12.627  1.5475 -0.5102  0.5937
13769TIP3   OH262721   3.908   3.532   4.756 -0.0111  0.0626 -0.4035
13769TIP3    H162722   3.926   3.474   4.681 -1.8733  0.8829 -1.5546
13769TIP3    H262723   3.818   3.561   4.743  0.0707  1.3209  1.4549
13770TIP3   OH262724   1.629   1.664  13.266  0.1161  0.9329 -0.0555
13770TIP3    H162725   1.669   1.719  13.333 -1.7754  1.6737  0.5358
13770TIP3    H262726   1.691   1.592  13.253  0.5542  0.7817  2.4756
13771TIP3   OH262727   5.310   6.713  13.042  0.0516 -0.2189  0.0908
13771TIP3    H162728   5.233   6.770  13.037 -0.2955 -0.7848 -3.5379
13771TIP3    H262729   5.275   6.629  13.071 -0.9232 -0.6418 -2.1027
13772TIP3   OH262730   3.127   3.519  15.397  0.2238  0.3012 -0.4093
13772TIP3    H162731   3.114   3.612  15.416 -1.1973  0.0373  0.0561
13772TIP3    H262732   3.213   3.498  15.433  0.2615  1.2827  0.0824
13773TIP3   OH262733   6.466   1.463  12.500  0.2387 -0.2641 -0.3052
13773TIP3    H162734   6.422   1.378  12.507 -0.7666  0.3102  0.9884
13773TIP3    H262735   6.402   1.526  12.535  1.1823  0.9440 -0.6708
13774TIP3   OH262736   5.072   2.051  13.141  0.1826 -0.0973  0.1506
13774TIP3    H162737   5.040   2.140  13.135 -1.5704 -0.7468 -1.0110
13774TIP3    H262738   5.051   2.023  13.230 -0.3795  0.2434  0.1266
13775TIP3   OH262739   2.924   6.190  15.539  0.4212 -0.3537 -0.1244
13775TIP3    H162740   2.983   6.258  15.573 -1.3947  1.3229 -0.1457
13775TIP3    H262741   2.937   6.191  15.444 -0.1119  0.5066 -0.1974
13776TIP3   OH262742   3.965   3.792  14.450 -0.2644  0.3014 -0.3152
13776TIP3    H162743   4.058   3.807  14.466 -0.4925  2.1347 -0.5062
13776TIP3    H262744   3.921   3.844  14.517 -1.1588  0.0463 -0.6962
13777TIP3   OH262745   4.592   3.518   5.218  0.6762  0.2836 -0.1986
13777TIP3    H162746   4.542   3.596   5.194  0.6680  0.2955 -0.1424
13777TIP3    H262747   4.658   3.510   5.149  1.6424  1.1993  0.6019
13778TIP3   OH262748   1.041   3.197  15.801  0.6280  0.1628 -0.2402
13778TIP3    H162749   1.027   3.174  15.892  2.2292  1.8754  0.5297
13778TIP3    H262750   0.973   3.261  15.781 -0.4340 -1.0557 -0.6553
13779TIP3   OH262751   4.104   0.458  13.012  0.1558  0.7706 -0.2795
13779TIP3    H162752   4.043   0.436  12.942  0.8206 -1.1805 -0.3025
13779TIP3    H262753   4.060   0.526  13.062 -1.3322  0.5361 -1.2228
13780TIP3   OH262754   3.827   1.379   4.249 -0.6460  0.3011  0.0639
13780TIP3    H162755   3.910   1.392   4.203 -1.1105  0.6544 -0.7073
13780TIP3    H262756   3.844   1.409   4.338  0.3201 -0.5402  0.1787
13781TIP3   OH262757   4.009   3.993  11.833 -0.3154  0.2420 -0.4529
13781TIP3    H162758   4.019   3.899  11.846 -0.0397  0.2176 -0.8292
13781TIP3    H262759   4.089   4.031  11.870  0.6271  0.1497 -2.2735
13782TIP3   OH262760   4.490   4.765  12.064  0.4972 -0.7149 -0.4552
13782TIP3    H162761   4.479   4.845  12.114 -2.1503 -1.2264 -0.0866
13782TIP3    H262762   4.578   4.772  12.027  1.3961  1.0644  1.7773
13783TIP3   OH262763   4.586   3.555   6.619 -0.3765 -0.5408 -0.0975
13783TIP3    H162764   4.519   3.619   6.595 -0.1515  0.2371  1.2072
13783TIP3    H262765   4.636   3.541   6.539  0.6708  2.2984 -0.0616
13784TIP3   OH262766   4.784   0.605  12.665  0.5751  0.6505  0.7656
13784TIP3    H162767   4.844   0.564  12.601 -0.7640 -0.0931 -0.0577
13784TIP3    H262768   4.770   0.693  12.630 -0.7977 -0.0154 -0.4787
13785TIP3   OH262769   4.912   0.974   5.695 -0.1740 -0.8272 -0.4388
13785TIP3    H162770   4.853   0.901   5.677  0.2503 -1.5961  1.1245
13785TIP3    H262771   4.995   0.949   5.654  0.1880 -1.5909  0.7345
13786TIP3   OH262772   4.856   6.156  13.720 -0.3697 -0.1682 -0.4850
13786TIP3    H162773   4.950   6.139  13.726 -0.5853 -1.3132  0.0054
13786TIP3    H262774   4.816   6.083  13.768 -1.4022  2.0756  2.3472
13787TIP3   OH262775   5.901   5.400  11.231  0.2222  0.3332  0.1697
13787TIP3    H162776   5.915   5.313  11.195  2.1112  0.1992  1.1133
13787TIP3    H262777   5.976   5.451  11.199 -0.9537  1.6894 -0.5305
13788TIP3   OH262778   6.227   1.943  12.058  0.1764 -0.2040 -0.2875
13788TIP3    H162779   6.249   2.026  12.017  1.4290 -0.4993 -0.2584
13788TIP3    H262780   6.258   1.877  11.996 -0.8678 -0.6712 -0.3456
13789TIP3   OH262781   2.336   0.311  15.001 -0.2420 -0.2053 -0.4546
13789TIP3    H162782   2.286   0.254  14.942 -0.9206  0.4296 -0.4964
13789TIP3    H262783   2.372   0.251  15.066 -0.4643 -0.7616 -0.8352
13790TIP3   OH262784   6.122   2.148   4.185  0.8280  0.1594 -0.0655
13790TIP3    H162785   6.215   2.155   4.163  0.9015 -1.5253 -0.4624
13790TIP3    H262786   6.092   2.070   4.138 -1.4129  1.9824 -1.9398
13791TIP3   OH262787   5.397   4.584   3.215 -0.2008 -0.0575  0.6727
13791TIP3    H162788   5.462   4.515   3.226 -1.3772 -1.4141 -0.4814
13791TIP3    H262789   5.344   4.556   3.140 -0.0593  2.6525 -0.5577
13792TIP3   OH262790   0.166   3.467   0.408 -0.2014 -0.0314  0.1889
13792TIP3    H162791   0.246   3.486   0.457 -1.6264  1.7323  2.0206
13792TIP3    H262792   0.123   3.399   0.458 -0.3990 -0.1539 -0.1428
13793TIP3   OH262793   6.243   2.743   4.082  0.0864  0.6154  0.5349
13793TIP3    H162794   6.303   2.790   4.024 -1.0100  1.1216 -0.2217
13793TIP3    H262795   6.227   2.660   4.037 -1.3663  1.3225 -0.2968
13794TIP3   OH262796   1.401   4.928  11.665 -0.8296 -0.0721  0.0942
13794TIP3    H162797   1.351   4.907  11.586 -1.1338 -0.3014  0.3449
13794TIP3    H262798   1.368   5.013  11.692  1.2679  1.4038 -1.6222
13795TIP3   OH262799   5.397   5.430   2.852  0.2612 -0.4631 -0.0543
13795TIP3    H162800   5.485   5.401   2.877  0.3360  0.3561  0.7177
13795TIP3    H262801   5.375   5.496   2.918 -0.6600 -0.1768 -0.6338
13796TIP3   OH262802   1.440   5.729  14.715  0.0280  0.1359 -0.2548
13796TIP3    H162803   1.433   5.704  14.807 -1.5941 -0.6964 -0.5712
13796TIP3    H262804   1.369   5.792  14.701 -0.7302 -0.9147 -1.2840
13797TIP3   OH262805   2.752   0.038   2.478  0.3817 -0.1680  0.0790
13797TIP3    H162806   2.714  -0.021   2.413  1.9767  0.2171 -1.2764
13797TIP3    H262807   2.776   0.116   2.428  2.5339 -0.2299  0.9101
13798TIP3   OH262808   5.957   3.900   5.482 -0.2373  0.5476 -0.0569
13798TIP3    H162809   5.947   3.892   5.387 -0.4009 -0.3970  0.0247
13798TIP3    H262810   5.873   3.869   5.517  0.6618 -1.4736  0.4588
13799TIP3   OH262811   2.366   6.598   2.880  0.8024  0.6262  0.6967
13799TIP3    H162812   2.304   6.553   2.938 -1.1841  2.3198 -0.0009
13799TIP3    H262813   2.414   6.527   2.837  1.1496 -0.7020  3.0924
13800TIP3   OH262814   6.581   3.069  12.827  0.2835 -0.5111 -0.5748
13800TIP3    H162815   6.638   2.994  12.848 -0.1152 -0.4784  0.6926
13800TIP3    H262816   6.625   3.144  12.867  0.8759  0.0241 -2.1650
13801TIP3   OH262817   2.603   0.173  11.897 -0.3978 -0.1052 -0.3055
13801TIP3    H162818   2.544   0.169  11.822 -0.8239  0.0075  0.0207
13801TIP3    H262819   2.571   0.105  11.957  0.4313 -0.7416 -0.5735
13802TIP3   OH262820   2.167   6.509   0.619  0.0953  0.0090  0.7088
13802TIP3    H162821   2.212   6.590   0.643  1.4245 -0.5665  0.2425
13802TIP3    H262822   2.231   6.440   0.638  0.1124 -0.7041 -1.6837
13803TIP3   OH262823   6.349   4.268   2.905  0.2395  0.2845 -0.5448
13803TIP3    H162824   6.281   4.217   2.948  0.7070  0.8843  0.9815
13803TIP3    H262825   6.318   4.279   2.815 -0.2691 -1.9184 -0.6903
13804TIP3   OH262826   1.128   2.163   4.392  0.2219  0.1548 -0.3254
13804TIP3    H162827   1.171   2.236   4.347  0.9194 -0.7303 -1.1234
13804TIP3    H262828   1.052   2.143   4.337  0.3096 -0.0426 -0.3741
13805TIP3   OH262829   1.457   5.039   5.604  0.0106  0.5858 -0.2048
13805TIP3    H162830   1.474   5.055   5.697  2.1094  0.2084 -0.4702
13805TIP3    H262831   1.537   5.066   5.559 -0.0394 -1.3923 -1.6519
13806TIP3   OH262832   4.440   6.146   1.242 -0.0025  0.5520  0.5928
13806TIP3    H162833   4.440   6.146   1.338 -0.3264  2.1638  0.6273
13806TIP3    H262834   4.499   6.217   1.218 -0.8723  0.9801 -0.3691
13807TIP3   OH262835   4.284   0.066   2.048  0.4290 -0.4402 -0.3644
13807TIP3    H162836   4.293   0.065   1.953 -0.9463  1.4604 -0.5645
13807TIP3    H262837   4.281   0.159   2.071  1.7283 -0.8409  1.6682
13808TIP3   OH262838   2.324   5.354  16.613 -0.3695  0.3344 -0.7792
13808TIP3    H162839   2.268   5.282  16.587 -0.5620  0.1419  0.1444
13808TIP3    H262840   2.407   5.313  16.639 -0.9924  0.2588  1.2495
13809TIP3   OH262841   3.238   0.659  10.400 -0.1460  0.0614  0.1852
13809TIP3    H162842   3.185   0.690  10.473 -0.4730  2.3470 -0.8937
13809TIP3    H262843   3.178   0.660  10.325  0.8925  0.7671 -0.6758
13810TIP3   OH262844   0.153   0.500  17.100 -0.3186 -0.0829  0.2658
13810TIP3    H162845   0.191   0.425  17.145 -0.2556  0.3992  1.0296
13810TIP3    H262846   0.125   0.466  17.015  1.0026 -0.6508  0.0374
13811TIP3   OH262847   1.343   6.093   2.355 -0.3685  0.0644  0.3938
13811TIP3    H162848   1.251   6.068   2.362 -1.0897  2.5179  0.8590
13811TIP3    H262849   1.351   6.131   2.268  0.1945 -0.1325  0.3602
13812TIP3   OH262850   6.486   5.950  13.414  0.1622 -0.4036  0.2179
13812TIP3    H162851   6.549   5.961  13.343 -0.6670 -2.8277 -0.9937
13812TIP3    H262852   6.530   5.987  13.491  1.7647  0.7651 -1.1854
13813TIP3   OH262853   2.338   4.332   4.974 -0.3515  0.2447  0.1523
13813TIP3    H162854   2.426   4.308   5.004  0.8218  0.5682 -2.6673
13813TIP3    H262855   2.303   4.251   4.938  0.3367  0.8268 -1.9977
13814TIP3   OH262856   0.752   0.287  12.023  0.0850  0.3122 -0.0416
13814TIP3    H162857   0.671   0.261  11.978  0.5022 -1.5701  0.2167
13814TIP3    H262858   0.814   0.217  12.002  0.8463  0.3486  1.9189
13815TIP3   OH262859   1.129   0.737  16.448  0.1725 -0.1618  0.4527
13815TIP3    H162860   1.140   0.770  16.359  1.5996  0.1212  0.7152
13815TIP3    H262861   1.182   0.658  16.452  0.7186  0.2249  1.2488
13816TIP3   OH262862   6.146   6.156  16.771  0.3841  0.0000 -0.3879
13816TIP3    H162863   6.064   6.186  16.732  1.3494  1.4219 -1.4062
13816TIP3    H262864   6.195   6.117  16.698  0.0406 -2.2432  0.4969
13817TIP3   OH262865   5.348   2.521   3.070  0.1059 -0.6088  0.6427
13817TIP3    H162866   5.402   2.534   3.148 -2.5440  0.6239  2.4279
13817TIP3    H262867   5.264   2.561   3.092 -0.4538  0.8375 -3.2893
13818TIP3   OH262868   1.110   2.262  11.975  0.2419  0.5611  0.1754
13818TIP3    H162869   1.077   2.333  11.920  2.8392  2.9273  1.3951
13818TIP3    H262870   1.114   2.300  12.063 -1.8084 -2.4073  1.7454
13819TIP3   OH262871   0.788   3.103  16.894 -0.3866  0.1967  0.4547
13819TIP3    H162872   0.726   3.034  16.869  0.3754 -0.2104 -0.3685
13819TIP3    H262873   0.864   3.056  16.928 -0.7180  0.7056  2.0144
13820TIP3   OH262874   5.202   5.647  17.039 -0.2196 -0.4166  0.3298
13820TIP3    H162875   5.277   5.700  17.065  0.8809 -1.2904 -0.8922
13820TIP3    H262876   5.151   5.704  16.981  2.3670 -1.3492 -3.1847
13821TIP3   OH262877   3.956   0.175  14.924  0.2124  0.2485  0.2567
13821TIP3    H162878   3.863   0.180  14.900  0.0175 -1.8708  0.4189
13821TIP3    H262879   3.977   0.263  14.955 -0.7472  1.8197 -3.1414
13822TIP3   OH262880   5.613   1.934  15.440 -0.2306  0.2505 -0.1495
13822TIP3    H162881   5.663   1.856  15.415  0.1434  0.1359  0.8837
13822TIP3    H262882   5.639   1.950  15.531 -0.5975  1.3546 -0.2284
13823TIP3   OH262883   2.431   4.540  15.765  0.2859  0.2022 -0.0692
13823TIP3    H162884   2.502   4.496  15.719  2.1487  1.4569  1.4678
13823TIP3    H262885   2.412   4.618  15.713  0.3129  0.0796 -0.2628
13824TIP3   OH262886   3.966   1.674  11.394  0.3867 -0.2180  0.3759
13824TIP3    H162887   3.923   1.648  11.312  0.5506  0.8028 -0.0375
13824TIP3    H262888   4.043   1.723  11.367  0.6628 -0.2189  1.1439
13825TIP3   OH262889   0.877   5.097  14.832 -0.3395 -0.1142 -0.8654
13825TIP3    H162890   0.917   5.173  14.876 -0.1333 -0.1535 -0.9787
13825TIP3    H262891   0.840   5.134  14.751 -1.2715  0.0651 -0.3628
13826TIP3   OH262892   0.608   3.568  13.137  0.1623 -0.2984 -0.8292
13826TIP3    H162893   0.519   3.560  13.102 -0.2310 -0.9970  0.2854
13826TIP3    H262894   0.640   3.478  13.143  0.4911 -0.1394 -0.0878
13827TIP3   OH262895   4.107   1.749  11.867  0.1940 -0.3983  0.2637
13827TIP3    H162896   4.015   1.773  11.852  0.0936  0.0212  1.4656
13827TIP3    H262897   4.134   1.709  11.785 -1.4660 -1.8048  0.3417
13828TIP3   OH262898   0.748   4.280  15.252  0.7445  0.1300  0.0063
13828TIP3    H162899   0.735   4.196  15.208 -0.3733  0.8109 -1.0170
13828TIP3    H262900   0.668   4.329  15.234 -1.1060 -0.4872  5.0745
13829TIP3   OH262901   5.990   0.453   2.951 -0.3518  0.0234  0.6019
13829TIP3    H162902   5.906   0.408   2.963 -0.7387 -0.1993 -2.1863
13829TIP3    H262903   6.055   0.383   2.953 -0.2165  0.1522  2.3832
13830TIP3   OH262904   6.376   3.231   5.639 -0.6463 -0.0221 -0.2112
13830TIP3    H162905   6.359   3.146   5.600 -2.1104  0.5591 -0.8935
13830TIP3    H262906   6.425   3.279   5.572 -1.2982  0.2417 -0.5065
13831TIP3   OH262907   1.696   5.314  12.939 -0.4228 -0.1430 -0.0693
13831TIP3    H162908   1.769   5.341  12.882 -0.8621  0.2857 -0.4306
13831TIP3    H262909   1.709   5.363  13.020  0.7857 -1.5054  0.6153
13832TIP3   OH262910   0.797   4.235   1.824  0.6228 -0.0940 -0.5933
13832TIP3    H162911   0.846   4.317   1.820 -0.6978  0.7376 -0.3164
13832TIP3    H262912   0.815   4.201   1.912  0.7007  0.1891 -0.4984
13833TIP3   OH262913   6.025   5.669   3.752  0.3889 -0.9495 -0.2124
13833TIP3    H162914   5.938   5.700   3.776 -0.5537 -3.0835 -0.6599
13833TIP3    H262915   6.044   5.712   3.669 -0.7068 -1.2666 -0.6435
13834TIP3   OH262916   4.439   4.497   2.415  0.2311 -0.3723 -0.3948
13834TIP3    H162917   4.367   4.560   2.410  1.7696  1.4419 -0.9208
13834TIP3    H262918   4.477   4.511   2.502 -0.0007 -1.3093 -0.1270
13835TIP3   OH262919   0.405   6.121   5.183  0.7234  0.5373  0.9286
13835TIP3    H162920   0.367   6.183   5.245  0.5514 -0.7699  2.1860
13835TIP3    H262921   0.416   6.171   5.102 -2.3015  1.3769  0.9200
13836TIP3   OH262922   4.392   3.344  16.485  0.4442 -0.6770 -0.1456
13836TIP3    H162923   4.350   3.390  16.412 -0.0734 -0.7320  0.1148
13836TIP3    H262924   4.348   3.260  16.489  0.8251 -0.8767 -0.0931
13837TIP3   OH262925   5.144   5.569   0.342  0.2152 -0.0995 -0.0460
13837TIP3    H162926   5.191   5.495   0.302 -1.7018 -1.7878  0.6254
13837TIP3    H262927   5.142   5.548   0.435  0.0974  1.0971  0.2275
13838TIP3   OH262928   4.703   2.290  13.409  0.1540 -0.3869  0.0169
13838TIP3    H162929   4.661   2.266  13.327 -1.5097  1.5471  0.2215
13838TIP3    H262930   4.756   2.367  13.388  1.0329 -0.8451  0.4590
13839TIP3   OH262931   5.777   3.793  10.825 -0.3335  0.3512 -0.2579
13839TIP3    H162932   5.771   3.878  10.867 -1.0412  1.2210 -1.9926
13839TIP3    H262933   5.861   3.794  10.779  1.3227 -1.3192  2.4875
13840TIP3   OH262934   4.617   1.479  16.087  0.1357 -0.6518  0.1787
13840TIP3    H162935   4.560   1.518  16.020 -0.5359 -0.2163  0.9848
13840TIP3    H262936   4.559   1.423  16.138  0.0736  0.8867  1.8940
13841TIP3   OH262937   0.883   4.260   4.685 -0.1797 -0.0704 -0.7068
13841TIP3    H162938   0.875   4.299   4.772 -2.1639 -0.5819 -0.6180
13841TIP3    H262939   0.966   4.212   4.688  1.2361  2.2592 -0.1024
13842TIP3   OH262940   5.469   0.483   0.960 -0.2742 -0.3975  0.0857
13842TIP3    H162941   5.378   0.462   0.983 -1.1376  1.6361 -1.2063
13842TIP3    H262942   5.490   0.560   1.013 -0.3352  0.8790 -1.6628
13843TIP3   OH262943   5.445   4.915  16.261  0.4372 -0.2241 -0.1200
13843TIP3    H162944   5.378   4.954  16.316  0.3794  0.2025 -0.4899
13843TIP3    H262945   5.527   4.952  16.291  0.5354 -0.8924  0.4583
13844TIP3   OH262946   0.193   0.006  15.409  0.3149  0.0288 -0.4448
13844TIP3    H162947   0.115  -0.049  15.422  2.1994 -2.3158  2.0267
13844TIP3    H262948   0.163   0.094  15.432 -1.4769 -0.9207  1.2078
13845TIP3   OH262949   6.199   0.041   0.789  0.0669 -0.0145 -0.1809
13845TIP3    H162950   6.109   0.047   0.822  0.1740 -1.8526  0.5696
13845TIP3    H262951   6.208   0.117   0.731 -2.0519  0.0830 -0.4847
13846TIP3   OH262952   6.674   5.209   2.720  0.4764  1.0419  0.1697
13846TIP3    H162953   6.683   5.220   2.626 -0.2575 -1.6512 -0.3202
13846TIP3    H262954   6.596   5.260   2.743  1.2650  2.5860 -0.4368
13847TIP3   OH262955   5.657   1.968  10.733 -0.7845  0.5957  0.3221
13847TIP3    H162956   5.605   2.023  10.675 -1.3171 -0.6948 -0.4610
13847TIP3    H262957   5.602   1.891  10.750  0.4090 -0.2752  0.3805
13848TIP3   OH262958   1.913   6.242  13.198 -0.0340 -0.9553 -0.1237
13848TIP3    H162959   1.865   6.304  13.143  0.7804  0.4503  0.7089
13848TIP3    H262960   1.987   6.215  13.143 -1.8161 -3.3759 -1.5342
13849TIP3   OH262961   5.454   5.728   6.161  0.3678 -0.2255 -0.0600
13849TIP3    H162962   5.494   5.775   6.234  0.8365  0.8144 -0.9641
13849TIP3    H262963   5.376   5.779   6.139 -0.7709 -1.5040  0.8151
13850TIP3   OH262964   5.256   3.291  11.173 -0.0252  0.1721  1.5552
13850TIP3    H162965   5.261   3.285  11.268  0.9141 -0.6485  1.4716
13850TIP3    H262966   5.346   3.305  11.144 -0.4577  1.8602  0.8455
13851TIP3   OH262967   6.456   3.177  11.517  0.3283 -0.0872 -0.0524
13851TIP3    H162968   6.474   3.251  11.575  0.8620  0.6190 -1.0906
13851TIP3    H262969   6.533   3.170  11.461 -0.8547  0.4066 -1.8565
13852TIP3   OH262970   2.772   4.739   1.701  0.6246  0.4402 -0.0996
13852TIP3    H162971   2.740   4.741   1.792  0.0306 -0.8357 -0.2581
13852TIP3    H262972   2.861   4.776   1.707  0.4696  0.7036  0.9351
13853TIP3   OH262973   2.976   5.945  14.832 -0.2990  0.0034  0.0931
13853TIP3    H162974   2.948   6.033  14.806 -1.9873 -0.3862  0.5253
13853TIP3    H262975   2.929   5.928  14.913  2.0369 -0.2910  1.4707
13854TIP3   OH262976   1.280   1.925  11.179  0.1671 -0.1389  0.0799
13854TIP3    H162977   1.347   1.990  11.200  2.4746 -2.1674 -0.4396
13854TIP3    H262978   1.302   1.850  11.235 -1.8505 -0.8158  0.0495
13855TIP3   OH262979   6.207   5.788   6.132  0.3531 -0.0778  0.3098
13855TIP3    H162980   6.141   5.738   6.181 -0.8826  1.4573  0.2988
13855TIP3    H262981   6.191   5.879   6.156  1.8125  0.4395 -0.5190
13856TIP3   OH262982   4.348   5.707   3.848 -0.3735 -0.2935 -0.6751
13856TIP3    H162983   4.362   5.794   3.810  0.4924 -0.3174 -0.4284
13856TIP3    H262984   4.380   5.646   3.782  1.7712 -0.3139  0.3253
13857TIP3   OH262985   0.080   3.533  12.982 -0.1112  0.4269 -0.2525
13857TIP3    H162986   0.045   3.622  12.990 -0.8740  0.2813 -1.6798
13857TIP3    H262987   0.069   3.510  12.890  1.1917 -0.7113 -0.1718
13858TIP3   OH262988   6.553   0.105   5.280  0.7919 -0.2131  0.2222
13858TIP3    H162989   6.511   0.100   5.194 -0.1298 -0.3514  0.6659
13858TIP3    H262990   6.568   0.013   5.304  2.9384 -0.1561 -0.6580
13859TIP3   OH262991   4.995   1.860  15.516 -0.1885 -0.0059  0.4048
13859TIP3    H162992   4.939   1.788  15.544 -1.4443 -0.7095 -3.3004
13859TIP3    H262993   5.078   1.819  15.493 -0.2255  0.0541  0.1611
13860TIP3   OH262994   6.201   4.503   0.668 -0.1544 -0.3887  0.2686
13860TIP3    H162995   6.277   4.446   0.675 -0.0042 -0.0644  1.4280
13860TIP3    H262996   6.126   4.447   0.685 -0.0344 -0.3249  1.0215
13861TIP3   OH262997   0.489   1.875  10.735 -0.0186 -0.1071  0.0034
13861TIP3    H162998   0.420   1.829  10.687 -0.1291 -1.4398  1.3383
13861TIP3    H262999   0.508   1.817  10.810  1.7300  0.7832  0.2995
13862TIP3   OH263000   5.562   1.440   5.448  0.2712  0.2412 -0.5526
13862TIP3    H163001   5.492   1.377   5.432 -1.0565  1.6524 -0.5299
13862TIP3    H263002   5.565   1.450   5.543  1.0331 -0.3871 -0.5083
13863TIP3   OH263003   2.807   1.872  12.204 -0.1655 -0.4372 -0.0039
13863TIP3    H163004   2.836   1.962  12.190  1.8813 -0.6962  2.0608
13863TIP3    H263005   2.712   1.878  12.212 -0.2200  1.2992 -1.3293
13864TIP3   OH263006   2.400   5.175  17.161  0.5629 -0.2828  0.0545
13864TIP3    H163007   2.439   5.232  17.227  0.4101  1.1149 -1.0218
13864TIP3    H263008   2.436   5.206  17.078 -0.0871 -1.2944 -0.6359
13865TIP3   OH263009   4.598   4.884  16.417 -0.3242  0.1626 -0.5775
13865TIP3    H163010   4.554   4.871  16.333 -1.9777  0.7249  0.1650
13865TIP3    H263011   4.538   4.938  16.469  1.1376  0.7727  0.5954
13866TIP3   OH263012   3.089   3.726   1.245 -0.6535 -0.1261 -0.0749
13866TIP3    H163013   3.012   3.742   1.300  0.4043  0.3873  1.3086
13866TIP3    H263014   3.108   3.810   1.204  0.1035  0.1446  0.8262
13867TIP3   OH263015   2.641   4.597  15.559  0.1746 -0.1292 -0.2451
13867TIP3    H163016   2.724   4.596  15.511  0.6681 -1.3330  0.6061
13867TIP3    H263017   2.605   4.509  15.548  0.3521 -0.4818  1.6583
13868TIP3   OH263018   3.916   6.135   1.229  0.1526  0.0505  0.1751
13868TIP3    H163019   3.998   6.112   1.273  1.3101  1.0590 -1.3648
13868TIP3    H263020   3.876   6.050   1.209  1.3517 -0.4951 -0.0103
13869TIP3   OH263021   6.506   1.885  12.634 -0.0371 -0.4880  0.0451
13869TIP3    H163022   6.552   1.957  12.678  1.0925 -1.9820  1.4823
13869TIP3    H263023   6.574   1.843  12.581 -0.1604 -1.6333  0.7633
13870TIP3   OH263024   5.238   2.583  11.911 -0.1529 -0.2583  0.5125
13870TIP3    H163025   5.301   2.541  11.854 -0.0897  0.0721  0.3380
13870TIP3    H263026   5.163   2.523  11.912 -0.4571  0.0855 -0.5064
13871TIP3   OH263027   0.545   4.811  14.547  0.8736  0.5096 -0.3678
13871TIP3    H163028   0.519   4.721  14.564 -0.2291  0.5583 -1.6500
13871TIP3    H263029   0.496   4.836  14.468  1.7987  1.9517 -0.5190
13872TIP3   OH263030   5.450   6.421   0.705  0.6857  0.3899  0.0586
13872TIP3    H163031   5.513   6.435   0.634 -1.7596 -0.8955 -2.5586
13872TIP3    H263032   5.385   6.491   0.693 -0.1335 -0.2616  0.5590
13873TIP3   OH263033   5.521   6.211   3.133  0.1791  0.2129 -0.4892
13873TIP3    H163034   5.549   6.223   3.223 -0.3480 -0.7805 -0.1857
13873TIP3    H263035   5.580   6.145   3.097 -0.2832 -0.1670 -0.5543
13874TIP3   OH263036   3.272   6.450   5.004 -0.0347  0.2444  0.1863
13874TIP3    H163037   3.177   6.456   5.012 -0.0724  0.4465 -0.3547
13874TIP3    H263038   3.292   6.498   4.923  0.7186  1.9505  1.3294
13875TIP3   OH263039   5.016   4.235  16.037  0.2577 -0.6518  0.5771
13875TIP3    H163040   5.073   4.228  16.113 -0.3029  1.9162  1.3558
13875TIP3    H263041   4.946   4.172  16.053  2.4445 -3.4192 -0.1162
13876TIP3   OH263042   5.948   2.830   5.882 -0.0588 -0.1730 -0.0946
13876TIP3    H163043   5.984   2.833   5.971  0.0238  1.8629 -0.1595
13876TIP3    H263044   5.998   2.896   5.834  0.4041 -1.7488 -1.8864
13877TIP3   OH263045   2.137   3.467   2.292  0.1170 -0.2219  0.4695
13877TIP3    H163046   2.049   3.493   2.319  0.6308  1.1833  0.8568
13877TIP3    H263047   2.126   3.432   2.204 -0.8644 -0.2742  0.6080
13878TIP3   OH263048   6.350   4.751   5.770  0.3056  0.5891 -0.2503
13878TIP3    H163049   6.426   4.699   5.794  0.0104  0.9696  1.6595
13878TIP3    H263050   6.297   4.692   5.716  0.6097 -0.6845  0.7834
13879TIP3   OH263051   5.328   2.243  14.694 -0.0854 -0.0754  0.6959
13879TIP3    H163052   5.387   2.280  14.760 -0.8742  3.5239 -0.4225
13879TIP3    H263053   5.352   2.286  14.613 -1.1195 -2.1801 -0.8234
13880TIP3   OH263054   0.609   1.464  13.696 -0.1578  0.4433 -0.4660
13880TIP3    H163055   0.661   1.460  13.777  1.3007 -1.0314 -1.4059
13880TIP3    H263056   0.603   1.373  13.668 -0.9565  0.8940 -1.8241
13881TIP3   OH263057   3.479   4.428  12.785  0.3056  0.5835 -0.1944
13881TIP3    H163058   3.391   4.391  12.783  0.6117 -0.4581  2.2135
13881TIP3    H263059   3.512   4.416  12.696 -1.0522 -1.3305 -0.5008
13882TIP3   OH263060   1.952   1.923  11.258  0.0626  0.1348 -0.1250
13882TIP3    H163061   1.947   1.910  11.163  1.8997  1.4673 -0.4598
13882TIP3    H263062   1.949   2.018  11.269  0.0381  0.0023  1.1385
13883TIP3   OH263063   1.861   0.183  13.685 -0.2117  0.0260 -0.3823
13883TIP3    H163064   1.844   0.207  13.594 -1.4805  1.3053  0.1643
13883TIP3    H263065   1.789   0.126  13.709  1.2639 -2.1225 -0.7845
13884TIP3   OH263066   1.536   3.692   0.900 -0.1090  0.6268 -0.3446
13884TIP3    H163067   1.536   3.633   0.975 -0.6349  0.3394 -0.5610
13884TIP3    H263068   1.626   3.690   0.867 -0.0502  0.1811 -0.1628
13885TIP3   OH263069   3.492   4.172  15.888  0.8118 -0.5096 -0.2073
13885TIP3    H163070   3.408   4.155  15.930  0.2934  0.5014 -0.8025
13885TIP3    H263071   3.519   4.087  15.853  0.9361 -1.2329  1.5404
13886TIP3   OH263072   3.299   4.830  17.178  0.2758 -0.1176 -0.1907
13886TIP3    H163073   3.204   4.834  17.173  0.2630  1.3589  0.8299
13886TIP3    H263074   3.326   4.800  17.091 -1.0668  0.5291 -0.8589
13887TIP3   OH263075   6.522   2.166   4.754 -0.1216  0.1561  0.0401
13887TIP3    H163076   6.595   2.192   4.698 -1.5036  1.0758 -1.4339
13887TIP3    H263077   6.499   2.078   4.724 -0.0468  0.1404  0.0296
13888TIP3   OH263078   2.748   5.868   0.625  0.2626  0.6440  0.1753
13888TIP3    H163079   2.808   5.898   0.557  0.8023  0.6164  0.6346
13888TIP3    H263080   2.721   5.781   0.597 -1.8267  1.7261 -1.5201
13889TIP3   OH263081   5.572   4.721   4.696  0.5150 -0.6348 -0.2664
13889TIP3    H163082   5.616   4.691   4.616 -1.5320  0.7235 -2.0190
13889TIP3    H263083   5.564   4.815   4.685  0.5822 -0.3481  1.8156
13890TIP3   OH263084   0.715   0.456  16.164 -0.1123 -0.9540  0.1731
13890TIP3    H163085   0.632   0.487  16.200  0.3371  1.0354 -0.4055
13890TIP3    H263086   0.768   0.435  16.240 -0.6504 -0.9154  0.5647
13891TIP3   OH263087   3.228   1.816  15.645 -0.1887  0.0777  0.1205
13891TIP3    H163088   3.191   1.846  15.728  2.0826  0.3705  1.1044
13891TIP3    H263089   3.220   1.892  15.587  1.5803  1.2547  1.2845
13892TIP3   OH263090   2.254   4.189  16.424 -0.0709 -0.2706 -0.1072
13892TIP3    H163091   2.334   4.243  16.421  1.3702 -2.3034  0.0588
13892TIP3    H263092   2.267   4.130  16.498 -1.0091 -1.7175 -1.0537
13893TIP3   OH263093   4.272   4.449  12.466 -0.2206 -0.0350 -0.3906
13893TIP3    H163094   4.352   4.453  12.414  0.0764 -0.6888  0.0032
13893TIP3    H263095   4.286   4.376  12.526 -1.4131 -0.6294 -0.8023
13894TIP3   OH263096   5.092   2.624   5.545 -0.5767 -0.0671 -0.0048
13894TIP3    H163097   5.136   2.632   5.630  2.8346 -0.6553 -1.5473
13894TIP3    H263098   5.161   2.597   5.485 -3.1997 -1.3558 -2.6917
13895TIP3   OH263099   0.987   1.495  13.536  0.2279  0.0125 -0.5025
13895TIP3    H163100   0.981   1.539  13.451 -1.5812 -0.0574 -0.4316
13895TIP3    H263101   0.970   1.403  13.516 -0.0410 -0.0270 -0.0891
13896TIP3   OH263102   6.231   0.771  13.346 -0.1521 -0.4074  0.1037
13896TIP3    H163103   6.189   0.753  13.429  1.1617 -3.2545  0.2762
13896TIP3    H263104   6.193   0.709  13.285 -0.9150  1.4557 -1.4452
13897TIP3   OH263105   0.119   6.295  13.477 -0.2154  0.0211  0.1490
13897TIP3    H163106   0.200   6.268  13.433 -1.3832 -1.7906 -0.9971
13897TIP3    H263107   0.119   6.391  13.470  2.1496  0.1371  0.8317
13898TIP3   OH263108   6.078   2.162  11.355 -0.0991 -0.5046 -0.3047
13898TIP3    H163109   6.106   2.096  11.418  0.7755  0.0022 -0.1469
13898TIP3    H263110   6.157   2.181  11.303  0.0592  1.3784  0.5219
13899TIP3   OH263111   4.091   3.971  14.781  0.1663  0.0381 -0.2292
13899TIP3    H163112   4.022   3.989  14.717 -1.6012 -0.5197  1.4247
13899TIP3    H263113   4.129   3.888  14.752  0.2463  0.4025 -1.2220
13900TIP3   OH263114   0.613   4.903   0.525  0.0805 -0.0231  0.6014
13900TIP3    H163115   0.589   4.995   0.532  0.1751 -0.1354  4.4733
13900TIP3    H263116   0.708   4.903   0.521  0.1824  0.0743  2.3710
13901TIP3   OH263117   5.904   0.070   3.073  0.2496 -0.0894 -0.0384
13901TIP3    H163118   5.972   0.114   3.021  0.3062 -0.5072 -0.3241
13901TIP3    H263119   5.943   0.063   3.160  0.3579  0.1582 -0.0632
13902TIP3   OH263120   3.955   2.213  13.735  0.7548  0.1717 -0.4590
13902TIP3    H163121   3.951   2.286  13.673  0.1044 -0.2115 -0.8770
13902TIP3    H263122   4.001   2.249  13.811 -0.4602  1.3237 -0.2373
13903TIP3   OH263123   3.675   5.217   5.445 -0.6075 -0.9553  0.0723
13903TIP3    H163124   3.625   5.224   5.364  0.6017 -1.2832 -0.7310
13903TIP3    H263125   3.759   5.258   5.425  0.0246 -1.8153  0.8671
13904TIP3   OH263126   6.012   2.756  14.367  0.1969  0.5730 -0.0143
13904TIP3    H163127   6.058   2.678  14.337 -1.4389 -0.5621  0.2519
13904TIP3    H263128   5.966   2.728  14.447 -0.7289  1.6913 -0.1099
13905TIP3   OH263129   3.701   3.775  12.367 -0.3546  0.0521 -0.0146
13905TIP3    H163130   3.619   3.785  12.415  0.2378  2.5407  0.6297
13905TIP3    H263131   3.686   3.821  12.284  0.2279  0.0916 -0.1057
13906TIP3   OH263132   1.431   1.880   3.163 -0.1298  0.8530  0.5128
13906TIP3    H163133   1.461   1.864   3.074 -2.9875  0.2492 -0.4408
13906TIP3    H263134   1.390   1.966   3.161 -2.5165 -0.2041  0.4887
13907TIP3   OH263135   4.456   0.029   1.095 -0.4315  0.3898  0.4190
13907TIP3    H163136   4.457   0.125   1.097  0.6430  0.4030 -0.1218
13907TIP3    H263137   4.378   0.005   1.145 -0.6620  1.5422  0.6419
13908TIP3   OH263138   2.632   1.847   3.995  0.4242 -0.3708 -0.2622
13908TIP3    H163139   2.591   1.870   4.078  0.6540 -1.2191  0.0925
13908TIP3    H263140   2.615   1.922   3.938 -0.1679 -0.0027  0.3934
13909TIP3   OH263141   5.918   1.064   5.461 -0.3005  1.1447  0.0939
13909TIP3    H163142   5.970   1.142   5.477  1.3375 -0.2597  2.2466
13909TIP3    H263143   5.830   1.086   5.492 -0.1950  2.5091 -0.5378
13910TIP3   OH263144   2.442   3.569  11.946  0.1983  0.2377  0.1916
13910TIP3    H163145   2.409   3.604  11.863 -0.0208 -3.3521 -1.3987
13910TIP3    H263146   2.525   3.527  11.923  1.3360  1.1650  2.3242
13911TIP3   OH263147   4.090   2.596  16.557  0.8855  0.1216 -0.2044
13911TIP3    H163148   4.046   2.598  16.472  1.2195  0.9984 -0.3642
13911TIP3    H263149   4.119   2.505  16.566 -1.5890 -0.7145  0.2612
13912TIP3   OH263150   4.815   5.230  12.191  0.1388 -0.1075  0.1507
13912TIP3    H163151   4.754   5.303  12.202  0.5209  0.7004 -2.3999
13912TIP3    H263152   4.834   5.201  12.280 -2.2671  1.0061  1.1179
13913TIP3   OH263153   3.851   0.824   1.443 -0.6853 -0.0587  0.2912
13913TIP3    H163154   3.855   0.919   1.436 -0.3563  0.0072  1.1880
13913TIP3    H263155   3.864   0.792   1.354  0.8767  0.6900  0.2208
13914TIP3   OH263156   4.425   1.809  12.259 -0.5649 -0.1417  0.3119
13914TIP3    H163157   4.416   1.874  12.329  2.1277 -0.2656  0.8812
13914TIP3    H263158   4.488   1.848  12.198  1.1662 -2.1700  0.6883
13915TIP3   OH263159   3.054   5.572   3.443  0.4213  0.1709 -0.9972
13915TIP3    H163160   3.110   5.516   3.388  1.2683  0.5331 -0.5154
13915TIP3    H263161   2.970   5.526   3.445  0.7912 -0.5575 -1.4598
13916TIP3   OH263162   1.795   1.581  10.847 -0.1550 -0.6074 -0.5095
13916TIP3    H163163   1.797   1.657  10.789 -0.1965 -0.4305 -0.2827
13916TIP3    H263164   1.867   1.596  10.908 -1.6993  0.5505  1.1471
13917TIP3   OH263165   3.416   1.820   4.314  0.0752  0.3663  0.0338
13917TIP3    H163166   3.417   1.907   4.274  1.4421  0.6130  0.5340
13917TIP3    H263167   3.508   1.792   4.313 -0.3973 -1.2981 -0.5689
13918TIP3   OH263168   1.882   2.473   2.564 -0.3834 -0.2788 -0.3260
13918TIP3    H163169   1.866   2.542   2.629 -2.2319  0.5026 -1.5393
13918TIP3    H263170   1.834   2.397   2.598 -1.7291  0.2621 -0.9417
13919TIP3   OH263171   3.238   1.012   0.528  0.1710 -0.1027 -0.3397
13919TIP3    H163172   3.223   0.928   0.484 -0.9263 -0.5076  0.7261
13919TIP3    H263173   3.322   1.043   0.496  1.2144 -2.2416  0.2057
13920TIP3   OH263174   3.283   1.906  11.515 -0.5977  0.0274 -0.1225
13920TIP3    H163175   3.373   1.893  11.486 -1.1383 -1.8085 -1.1425
13920TIP3    H263176   3.229   1.876  11.442 -2.0191 -1.0360  1.2711
13921TIP3   OH263177   0.066   2.027  12.163 -0.3376 -0.0000 -0.3366
13921TIP3    H163178   0.118   1.964  12.112 -1.7470 -0.8935 -0.7151
13921TIP3    H263179  -0.010   2.045  12.109 -1.5780 -0.4969  1.1872
13922TIP3   OH263180   3.529   6.744  15.211 -0.0288 -0.2844 -0.0825
13922TIP3    H163181   3.456   6.782  15.161  1.3432  0.1005 -1.8867
13922TIP3    H263182   3.492   6.665  15.251 -1.5863  0.2048 -0.4912
13923TIP3   OH263183   3.685   2.943   4.906 -0.0134  0.1071 -0.1958
13923TIP3    H163184   3.653   2.882   4.972 -0.8630  1.1891  0.4111
13923TIP3    H263185   3.759   2.897   4.866  0.2412 -0.7582  1.1893
13924TIP3   OH263186   1.458   0.273   5.801 -0.3422  0.0093 -0.1775
13924TIP3    H163187   1.444   0.314   5.886 -0.7118 -0.3124 -0.0816
13924TIP3    H263188   1.547   0.238   5.805 -0.3781 -0.0480  0.0926
13925TIP3   OH263189   0.970   2.555   4.078  0.8469  0.1532  0.2794
13925TIP3    H163190   1.025   2.481   4.055  3.5300  1.9407  0.4937
13925TIP3    H263191   0.899   2.554   4.013  1.7954 -1.5659 -0.7799
13926TIP3   OH263192   6.118   2.971  17.112  0.0446  0.2192  0.1784
13926TIP3    H163193   6.166   2.926  17.181 -1.1325 -0.1887  0.7583
13926TIP3    H263194   6.143   2.925  17.031 -1.4988 -1.8632  0.8057
13927TIP3   OH263195   4.193   6.547   0.475 -0.8386  0.3344 -0.5364
13927TIP3    H163196   4.144   6.621   0.509 -0.8923 -0.1866  0.5736
13927TIP3    H263197   4.285   6.571   0.490 -0.8873 -0.3143  0.9486
13928TIP3   OH263198   4.065   4.620   2.851 -0.5750  0.4272 -0.6416
13928TIP3    H163199   4.087   4.536   2.891 -1.0469  0.0973 -1.0606
13928TIP3    H263200   4.111   4.685   2.904  0.8296 -0.1840 -1.0763
13929TIP3   OH263201   5.395   4.577  15.334  0.7016 -0.3716  0.0980
13929TIP3    H163202   5.399   4.488  15.299 -1.6105  0.3440 -2.3017
13929TIP3    H263203   5.350   4.568  15.418  1.0103 -1.5144  0.1630
13930TIP3   OH263204   1.433   3.656  13.507 -0.6307  0.6417 -0.3227
13930TIP3    H163205   1.388   3.741  13.503 -0.2580  0.7921 -1.4780
13930TIP3    H263206   1.526   3.678  13.514 -0.6609  0.3264  1.9783
13931TIP3   OH263207   1.446   6.011  14.072 -0.6328  0.3656 -0.1693
13931TIP3    H163208   1.476   6.095  14.038  1.7561 -0.3274  0.0238
13931TIP3    H263209   1.517   5.982  14.130 -1.6542 -1.5057  0.2214
13932TIP3   OH263210   1.495   3.233  12.516  0.0629  0.1372  0.1062
13932TIP3    H163211   1.532   3.169  12.577  1.1043  1.1139  0.5543
13932TIP3    H263212   1.404   3.242  12.543 -0.2110 -1.3942 -0.1997
13933TIP3   OH263213   6.767   2.969  14.623 -0.1451  0.6608  0.5903
13933TIP3    H163214   6.673   2.985  14.633 -0.2873 -0.3869  0.9938
13933TIP3    H263215   6.793   2.928  14.705  0.1599 -1.3253 -0.4513
13934TIP3   OH263216   3.966   6.300   3.509 -0.7223  0.3113 -0.1144
13934TIP3    H163217   4.058   6.323   3.501 -1.0469  1.2759 -1.3395
13934TIP3    H263218   3.959   6.259   3.595  1.7872 -4.2556 -1.7524
13935TIP3   OH263219   0.586   3.453  12.554 -0.1907 -0.6888  0.6905
13935TIP3    H163220   0.590   3.509  12.632  0.8333  0.4513 -0.1363
13935TIP3    H263221   0.639   3.376  12.578  2.4288  0.8544  0.2741
13936TIP3   OH263222   0.568   4.016   4.195 -0.0788 -0.6668 -0.0493
13936TIP3    H163223   0.600   3.943   4.142  1.8794  0.0183  0.1331
13936TIP3    H263224   0.584   4.093   4.141 -0.4312 -0.1911  0.5167
13937TIP3   OH263225   3.105   5.794   1.415  0.0795 -0.2913  0.1599
13937TIP3    H163226   3.063   5.708   1.416 -0.2044 -0.1789 -1.1079
13937TIP3    H263227   3.199   5.774   1.421 -0.0479 -0.6218  1.1621
13938TIP3   OH263228   6.565   5.054  11.650  0.2237  0.0520 -0.1982
13938TIP3    H163229   6.531   5.044  11.739  1.8664  1.1322  0.6065
13938TIP3    H263230   6.516   5.128  11.613 -0.5614 -0.4898 -0.2633
13939TIP3   OH263231   2.708   2.027   6.160  0.5626 -0.2366 -0.2712
13939TIP3    H163232   2.720   2.055   6.251 -0.0930 -1.2515  0.1447
13939TIP3    H263233   2.763   1.949   6.152  1.0164  0.1402 -0.9065
13940TIP3   OH263234   4.288   2.993  12.705  0.4542 -0.0532 -0.9066
13940TIP3    H163235   4.225   3.039  12.648  0.3117 -0.5608 -1.1687
13940TIP3    H263236   4.374   3.018  12.671  0.4166  0.8778 -0.3648
13941TIP3   OH263237   0.904   1.292   0.010 -0.5345 -0.5815 -0.1983
13941TIP3    H163238   0.976   1.246   0.052 -0.4452  0.7507  1.2028
13941TIP3    H263239   0.877   1.357   0.075 -2.2209 -0.2765 -1.1674
13942TIP3   OH263240   1.188   1.627   1.342  0.4544 -0.0227 -0.1206
13942TIP3    H163241   1.260   1.659   1.289  0.2825  1.6015  0.5685
13942TIP3    H263242   1.111   1.635   1.286  0.1824  2.2071  0.4608
13943TIP3   OH263243   6.073   5.893   4.025 -0.0617 -0.1934  0.3751
13943TIP3    H163244   6.066   5.974   4.076 -1.0502  0.3050 -0.5262
13943TIP3    H263245   6.000   5.896   3.963 -0.5439 -2.1163  0.7760
13944TIP3   OH263246   2.610   0.681  11.449  0.0698  0.6105 -0.1113
13944TIP3    H163247   2.585   0.768  11.480 -1.8452 -0.1437  0.5787
13944TIP3    H263248   2.670   0.648  11.516 -0.5520  0.7328  0.5101
13945TIP3   OH263249   5.947   5.677   5.732  0.3868  0.3981 -0.3475
13945TIP3    H163250   5.868   5.667   5.785 -0.3097 -2.7186 -1.7040
13945TIP3    H263251   6.016   5.698   5.795 -0.5792 -2.0859  1.7189
13946TIP3   OH263252   3.829   0.049   2.451 -0.1335 -0.3560 -0.1415
13946TIP3    H163253   3.871   0.135   2.457 -0.2680 -0.0803 -2.4517
13946TIP3    H263254   3.877  -0.004   2.514 -0.5234  1.5390  1.8989
13947TIP3   OH263255   4.338   6.309  15.987 -0.1164 -0.1745 -0.0968
13947TIP3    H163256   4.285   6.304  15.907 -0.7661  0.7438  0.2498
13947TIP3    H263257   4.309   6.391  16.029 -0.9420 -1.3956  1.8647
13948TIP3   OH263258   4.034   6.697   6.754  0.4581  0.1495 -0.3139
13948TIP3    H163259   3.989   6.757   6.695 -1.6305 -0.6976  0.3228
13948TIP3    H263260   3.964   6.649   6.799  1.9767 -0.5765  1.4678
13949TIP3   OH263261   5.576   2.800   4.848  0.0357  0.8700  0.2763
13949TIP3    H163262   5.539   2.781   4.762  0.1921 -0.0419  0.4041
13949TIP3    H263263   5.575   2.716   4.894 -2.9752  1.8650  2.3218
13950TIP3   OH263264   1.845   1.321   0.654 -0.4575 -0.4674  0.0294
13950TIP3    H163265   1.898   1.392   0.691  0.3649 -0.4707 -1.1052
13950TIP3    H263266   1.845   1.254   0.723 -2.0669  0.9747  1.5318
13951TIP3   OH263267   4.815   5.071  11.971  0.6173 -0.6046 -0.0141
13951TIP3    H163268   4.821   5.118  12.054 -1.8181  0.3723 -0.3196
13951TIP3    H263269   4.757   5.124  11.917  0.6451 -2.1728 -1.6901
13952TIP3   OH263270   2.863   6.620  10.998 -0.3693 -0.1483  0.5826
13952TIP3    H163271   2.951   6.593  10.970 -0.9238 -1.6113  0.1010
13952TIP3    H263272   2.823   6.539  11.030 -1.9601  0.2019 -0.3882
13953TIP3   OH263273   0.243   3.616   2.903 -0.2055 -0.0325 -0.0517
13953TIP3    H163274   0.267   3.621   2.810  0.2601 -2.2015 -0.1117
13953TIP3    H263275   0.154   3.580   2.903 -1.2064  2.2506  0.3416
13954TIP3   OH263276   6.398   1.022  15.617  0.4019 -0.5187 -0.0732
13954TIP3    H163277   6.452   1.099  15.599  1.4106 -1.0745  0.5184
13954TIP3    H263278   6.311   1.058  15.637  0.3172  0.3340 -1.8561
13955TIP3   OH263279   0.072   6.758  13.318  0.2627  0.3315  0.5583
13955TIP3    H163280   0.114   6.844  13.325  1.2305  0.0148 -0.8587
13955TIP3    H263281  -0.020   6.778  13.300  0.1698  1.0480  1.7224
13956TIP3   OH263282   3.079   3.272  11.651 -0.1597  0.3065 -0.1689
13956TIP3    H163283   3.116   3.302  11.568  0.6600 -1.4289 -0.4908
13956TIP3    H263284   3.126   3.321  11.717  1.7709 -0.7929 -0.6392
13957TIP3   OH263285   3.079   0.364  14.764 -0.4401  0.2615 -0.7695
13957TIP3    H163286   3.095   0.458  14.765 -0.6711  0.3247  1.3198
13957TIP3    H263287   3.120   0.331  14.844 -1.9011 -1.1209 -0.5244
13958TIP3   OH263288   2.227   3.061  16.552 -0.2337 -0.0586 -0.4369
13958TIP3    H163289   2.315   3.024  16.560 -0.6647 -0.6765  2.7856
13958TIP3    H263290   2.168   2.987  16.568 -1.3035  0.6801 -0.8428
13959TIP3   OH263291   4.312   5.750  13.335  0.4361  0.5703  0.4983
13959TIP3    H163292   4.376   5.796  13.389  2.7946 -1.6777 -0.1706
13959TIP3    H263293   4.254   5.707  13.397  1.4886  0.1553  1.2116
13960TIP3   OH263294   4.690   1.070   3.961 -0.4025  1.0083 -0.2425
13960TIP3    H163295   4.608   1.062   4.010 -0.4946 -0.1038 -0.5463
13960TIP3    H263296   4.689   0.995   3.901  1.1569  0.5930  0.2178
13961TIP3   OH263297   1.590   1.343   0.571  0.5574 -0.2124  0.1920
13961TIP3    H163298   1.678   1.346   0.609  0.2980  1.0584  0.7437
13961TIP3    H263299   1.555   1.259   0.600  2.1441 -1.4827 -1.3858
13962TIP3   OH263300   3.780   1.936   3.802  0.1603  0.0073 -0.1932
13962TIP3    H163301   3.829   1.892   3.733 -0.1770  0.8933 -1.0201
13962TIP3    H263302   3.807   1.892   3.883 -0.1155 -1.6381 -0.9737
13963TIP3   OH263303   1.429   1.229   3.643 -0.2944 -0.1854  0.6830
13963TIP3    H163304   1.472   1.245   3.727 -0.7512  2.6393  0.4764
13963TIP3    H263305   1.387   1.143   3.654  2.0225 -1.2196  2.2588
13964TIP3   OH263306   2.362   3.968   5.580  0.2375  0.0269 -0.5382
13964TIP3    H163307   2.429   4.032   5.604  0.2940 -0.5429  0.9431
13964TIP3    H263308   2.391   3.933   5.496  2.7377 -1.3779  0.8026
13965TIP3   OH263309   3.572   5.573  11.101  0.3434  0.4786 -0.5292
13965TIP3    H163310   3.490   5.525  11.111 -0.2652  1.5915  0.0491
13965TIP3    H263311   3.553   5.641  11.037  0.8173  0.7259 -0.4153
13966TIP3   OH263312   5.539   3.689   4.491 -0.0839 -0.3929 -0.3822
13966TIP3    H163313   5.550   3.669   4.398  0.5362  0.5908 -0.5336
13966TIP3    H263314   5.616   3.651   4.532 -1.1435 -2.2808  0.0018
13967TIP3   OH263315   5.455   5.450  15.700 -0.4664 -0.4140 -0.2152
13967TIP3    H163316   5.466   5.484  15.612 -2.7100  0.5580 -0.1832
13967TIP3    H263317   5.425   5.360  15.688  2.4553 -1.4899 -0.3253
13968TIP3   OH263318   1.714   2.541  13.193 -0.0235 -0.1821  0.0790
13968TIP3    H163319   1.797   2.551  13.146  0.1385  2.0033  0.7250
13968TIP3    H263320   1.655   2.502  13.128  1.3892 -1.4982 -0.4820
13969TIP3   OH263321   5.508   5.459  16.699  0.5667 -0.3229  0.2596
13969TIP3    H163322   5.525   5.411  16.780 -0.5469 -0.2668  0.5477
13969TIP3    H263323   5.579   5.524  16.694  0.1981  0.2198  1.6286
13970TIP3   OH263324   6.345   5.139   3.589 -0.7690  0.2233 -0.0932
13970TIP3    H163325   6.417   5.139   3.652 -1.7617 -0.1899  1.0661
13970TIP3    H263326   6.295   5.060   3.609 -0.8502 -0.1836 -1.7187
13971TIP3   OH263327   6.019   3.870   2.386 -0.3345 -0.1513 -0.3092
13971TIP3    H163328   5.945   3.811   2.401 -0.0830 -0.9436 -1.9107
13971TIP3    H263329   5.992   3.923   2.311 -0.0187  0.8697  0.2835
13972TIP3   OH263330   4.277   1.915  14.748  0.4953 -0.3404 -0.0760
13972TIP3    H163331   4.310   2.000  14.719  1.2507  0.3352  2.4479
13972TIP3    H263332   4.298   1.855  14.677  0.9404  1.3611 -1.4570
13973TIP3   OH263333   4.720   1.638   1.374  0.5600  0.4479  0.0676
13973TIP3    H163334   4.664   1.671   1.444 -0.4679 -1.5635  0.2546
13973TIP3    H263335   4.713   1.703   1.305  1.0193  2.1181  1.4953
13974TIP3   OH263336   5.115   3.880   5.963 -0.1389  0.3269  0.5841
13974TIP3    H163337   5.187   3.942   5.956 -1.5910  1.9175 -1.5020
13974TIP3    H263338   5.039   3.935   5.983 -1.0300 -1.1400  1.3702
13975TIP3   OH263339   0.884   5.206  16.911 -0.8094  0.1635  0.4520
13975TIP3    H163340   0.818   5.182  16.975  0.2583 -0.4278  1.3706
13975TIP3    H263341   0.879   5.139  16.843 -0.1101 -0.7964  1.3166
13976TIP3   OH263342   3.208   4.266  13.730 -0.0355 -0.4962  0.1921
13976TIP3    H163343   3.232   4.202  13.797 -0.9009  0.5465  1.5528
13976TIP3    H263344   3.255   4.238  13.652 -1.6192 -3.7443  0.2313
13977TIP3   OH263345   3.868   0.713   0.798  0.1240  0.1761 -0.3251
13977TIP3    H163346   3.788   0.678   0.837  0.0314  0.1741 -0.5147
13977TIP3    H263347   3.857   0.808   0.801 -1.1440  0.1914 -2.8806
13978TIP3   OH263348   6.121   4.188   3.075 -0.3140 -0.0216  0.4085
13978TIP3    H163349   6.055   4.237   3.026 -1.0386 -2.0083 -0.7088
13978TIP3    H263350   6.075   4.158   3.153 -0.4567 -0.5772  0.1138
13979TIP3   OH263351   3.073   4.634  15.746 -0.2742 -0.3029  0.5100
13979TIP3    H163352   3.169   4.632  15.749 -0.2448  0.1847  0.0573
13979TIP3    H263353   3.051   4.721  15.780 -0.5824 -0.6197  1.1280
13980TIP3   OH263354   1.736   5.603   1.594  0.2636  0.1750 -0.5335
13980TIP3    H163355   1.816   5.602   1.647  0.9360  0.6421 -1.5137
13980TIP3    H263356   1.675   5.659   1.644 -0.0624 -1.4764  1.0322
13981TIP3   OH263357   4.560   2.983  15.867  0.2701  0.6290  0.4782
13981TIP3    H163358   4.624   3.020  15.807 -0.6990  0.7054 -0.5337
13981TIP3    H263359   4.504   3.057  15.890  0.0885  0.4061  0.7620
13982TIP3   OH263360   4.439   4.968   5.015 -0.6766 -0.0222  0.0369
13982TIP3    H163361   4.451   4.948   5.108 -0.8576  0.4849  0.1767
13982TIP3    H263362   4.370   4.908   4.985  0.5722 -1.3764 -0.2062
13983TIP3   OH263363   4.021   2.150   1.615 -0.2293  0.3351  0.1098
13983TIP3    H163364   4.036   2.060   1.646 -0.6297 -0.0010 -0.6397
13983TIP3    H263365   4.003   2.140   1.521  1.0049  1.3306 -0.2494
13984TIP3   OH263366   1.225   5.482  14.244  0.3622 -0.2713  0.0623
13984TIP3    H163367   1.283   5.490  14.320  0.0127 -2.1054  0.5574
13984TIP3    H263368   1.185   5.396  14.254  0.4168 -0.6154 -2.3035
13985TIP3   OH263369   2.451   3.323   2.861 -0.2861 -0.1216  0.1816
13985TIP3    H163370   2.380   3.285   2.913  0.9384 -2.3775  0.3076
13985TIP3    H263371   2.518   3.255   2.857  2.1532  2.1145  0.4968
13986TIP3   OH263372   1.256   6.311  16.035  0.0550  0.1635  0.5944
13986TIP3    H163373   1.272   6.403  16.053 -2.1969  1.2924 -2.3635
13986TIP3    H263374   1.338   6.279  15.997  1.2054  0.5599  2.5722
13987TIP3   OH263375   4.395   3.815  16.768  0.0676  0.3172 -0.2986
13987TIP3    H163376   4.479   3.862  16.770  0.0349  0.3681 -0.1271
13987TIP3    H263377   4.419   3.723  16.781  0.2019  0.1896 -1.3551
13988TIP3   OH263378   3.580   2.347  13.475  0.0703  0.1510 -0.3613
13988TIP3    H163379   3.655   2.339  13.416 -1.4571 -0.6481 -2.3195
13988TIP3    H263380   3.548   2.257  13.485  0.4400  0.2138  1.9881
13989TIP3   OH263381   1.656   4.241   0.750 -0.3565  0.3604  0.3281
13989TIP3    H163382   1.634   4.334   0.752  0.6140  0.7029 -2.0387
13989TIP3    H263383   1.581   4.198   0.792 -1.3681  2.0930  0.4095
13990TIP3   OH263384   0.942   5.471   1.267 -0.2034  0.3134  0.2889
13990TIP3    H163385   1.026   5.445   1.304  0.6240  1.9624 -0.3388
13990TIP3    H263386   0.898   5.388   1.246  1.2069 -0.5794  0.7360
13991TIP3   OH263387   1.157   5.068   5.161 -0.0640 -0.0011 -0.2714
13991TIP3    H163388   1.061   5.065   5.168 -0.0787 -0.0270 -0.4948
13991TIP3    H263389   1.177   5.019   5.082  0.1769 -0.5052  0.0961
13992TIP3   OH263390   2.006   4.117  14.989 -0.0318  0.2033 -0.1210
13992TIP3    H163391   1.919   4.081  14.973 -0.6458  2.0474 -1.1400
13992TIP3    H263392   2.061   4.078  14.921  0.1227 -1.3985  0.8597
13993TIP3   OH263393   6.138   0.650   5.209  0.4627  0.7642 -0.5887
13993TIP3    H163394   6.107   0.629   5.297  1.2961 -0.1801 -0.5018
13993TIP3    H263395   6.113   0.741   5.196  1.0789  1.1944  0.9678
13994TIP3   OH263396   5.612   0.354   5.431  0.1306 -0.3396 -0.5974
13994TIP3    H163397   5.631   0.438   5.389 -1.5103 -0.2602 -1.2641
13994TIP3    H263398   5.566   0.376   5.511  1.9466 -0.5511  0.5526
13995TIP3   OH263399   3.617   4.001   2.153 -0.2132 -0.0719  0.1815
13995TIP3    H163400   3.634   4.050   2.233 -0.5577  1.1783 -0.4863
13995TIP3    H263401   3.701   4.000   2.107 -0.5342  1.2315 -0.4953
13996TIP3   OH263402   2.400   5.507  13.436  0.1897  0.1947  0.4667
13996TIP3    H163403   2.392   5.421  13.395  0.5066 -0.2764  1.3855
13996TIP3    H263404   2.365   5.495  13.524 -1.2239  1.3934  0.1050
13997TIP3   OH263405   0.711   3.043  11.672  0.1499  0.4573  1.0338
13997TIP3    H163406   0.755   3.127  11.657  2.9195 -1.2460 -1.7052
13997TIP3    H263407   0.636   3.045  11.612  0.6240  0.7366  0.4311
13998TIP3   OH263408   4.286   0.729   1.147  0.3835 -0.0754 -0.0966
13998TIP3    H163409   4.332   0.729   1.063  0.0052 -2.4494 -0.3645
13998TIP3    H263410   4.212   0.789   1.133  0.8696  0.3158 -1.1247
13999TIP3   OH263411   4.833   1.369   0.808  0.2138  0.8836  0.3467
13999TIP3    H163412   4.828   1.380   0.903 -0.4374  1.3533  0.2704
13999TIP3    H263413   4.758   1.314   0.787  2.1641 -2.0385  0.4483
14000TIP3   OH263414   1.389   3.250   5.186  0.1825  0.0192  0.0039
14000TIP3    H163415   1.332   3.226   5.113  0.9376 -0.8993 -0.3051
14000TIP3    H263416   1.334   3.239   5.264 -0.3885  0.2176 -0.3664
14001TIP3   OH263417   6.318   0.099  13.601 -0.0737 -0.4661  0.3659
14001TIP3    H163418   6.331   0.152  13.680  0.3830 -0.2669  0.1606
14001TIP3    H263419   6.223   0.091  13.593 -0.1868  1.2088 -0.1821
14002TIP3   OH263420   1.964   1.077  17.250 -0.1070  0.1353 -0.2222
14002TIP3    H163421   1.958   1.172  17.258  3.4443  0.5713 -1.0442
14002TIP3    H263422   2.002   1.048  17.333  1.0503 -0.2154 -0.8499
14003TIP3   OH263423   0.583   3.589   5.297 -0.5659 -0.0789 -0.1279
14003TIP3    H163424   0.612   3.543   5.218  0.9162  3.5393 -1.9066
14003TIP3    H263425   0.661   3.595   5.351 -0.9805 -0.3843  0.5246
14004TIP3   OH263426   5.039   4.714  12.003 -0.2698  0.0820 -0.0444
14004TIP3    H163427   4.993   4.691  12.083 -0.9901  1.9894  0.1324
14004TIP3    H263428   5.123   4.750  12.033 -0.6653  1.0817 -0.1167
14005TIP3   OH263429   4.307   2.201  17.308  0.3133  0.0727 -0.1806
14005TIP3    H163430   4.216   2.175  17.298  0.0403  0.7921  0.3564
14005TIP3    H263431   4.348   2.181  17.224 -0.4973  0.3863 -0.6538
14006TIP3   OH263432   4.868   6.014  16.280  0.5362 -0.1543  0.4279
14006TIP3    H163433   4.920   6.007  16.200  0.5889 -0.3409  0.4774
14006TIP3    H263434   4.852   5.923  16.307 -0.1024 -0.1036  0.2299
14007TIP3   OH263435   5.794   3.939  17.149  0.3228  0.2437 -0.3976
14007TIP3    H163436   5.846   4.007  17.192 -1.7591  1.3807  0.4868
14007TIP3    H263437   5.733   3.909  17.216 -0.3976 -0.7715 -1.4661
14008TIP3   OH263438   2.250   3.597  16.746  0.4881  0.3950 -0.0576
14008TIP3    H163439   2.273   3.556  16.829  1.0643  1.1459  0.1716
14008TIP3    H263440   2.254   3.526  16.682  0.2796 -0.1402  0.5158
14009TIP3   OH263441   6.155   6.550  13.646 -0.0953  0.1619  0.5034
14009TIP3    H163442   6.175   6.497  13.569 -0.1218  0.0714  0.5586
14009TIP3    H263443   6.195   6.503  13.719  0.7879  0.7663  0.4170
14010TIP3   OH263444   4.823   5.947   3.969 -0.4531  0.5322  0.6387
14010TIP3    H163445   4.737   5.912   3.991  0.1273 -0.8164  0.9157
14010TIP3    H263446   4.884   5.886   4.010  0.6500  0.5304 -0.9248
14011TIP3   OH263447   1.552   5.197  13.915 -0.4109 -0.1869  0.3365
14011TIP3    H163448   1.509   5.189  14.000 -1.6598 -0.9519 -0.3511
14011TIP3    H263449   1.480   5.207  13.852  0.5127  1.2959 -0.5501
14012TIP3   OH263450   6.354   3.863  11.139 -0.0922  0.0463 -0.4192
14012TIP3    H163451   6.319   3.779  11.110  2.0903 -1.4147  0.9111
14012TIP3    H263452   6.448   3.856  11.126  0.1329  2.4393 -0.5656
14013TIP3   OH263453   1.048   2.674   2.913 -0.4756  0.2702 -0.3709
14013TIP3    H163454   0.977   2.702   2.971  0.1729  0.0890  0.5453
14013TIP3    H263455   1.079   2.592   2.952  0.6261  0.6563 -0.4038
14014TIP3   OH263456   5.346   3.872  11.784 -0.3137  0.4256  0.4673
14014TIP3    H163457   5.394   3.954  11.777  0.0829  0.4097  2.4237
14014TIP3    H263458   5.358   3.845  11.875 -2.1327 -0.7525  0.4123
14015TIP3   OH263459   0.768   5.741   1.311 -0.2555 -0.1278 -0.0573
14015TIP3    H163460   0.771   5.686   1.390 -1.0301 -0.1989 -0.0718
14015TIP3    H263461   0.826   5.697   1.249 -0.2867 -0.5195  0.1872
14016TIP3   OH263462   0.267   1.683   3.671 -0.3753  0.6203  0.3235
14016TIP3    H163463   0.350   1.695   3.717 -0.6049  1.5378  0.5106
14016TIP3    H263464   0.206   1.743   3.715 -1.4320 -0.8266  0.9056
14017TIP3   OH263465   3.111   0.630  12.953 -0.1041  0.1636  0.6479
14017TIP3    H163466   3.169   0.638  13.028 -0.6380 -0.1569  1.1000
14017TIP3    H263467   3.050   0.560  12.977  0.6013 -0.9430 -0.6577
14018TIP3   OH263468   4.577   6.238   0.783 -0.0640  0.2006  0.2400
14018TIP3    H163469   4.485   6.262   0.784  0.1796  1.1501  0.4432
14018TIP3    H263470   4.577   6.143   0.770 -1.0487  0.2812 -0.4253
14019TIP3   OH263471   5.830   5.778  16.878 -0.7169 -0.2289  0.0410
14019TIP3    H163472   5.842   5.685  16.893 -3.4160 -0.8813 -1.1385
14019TIP3    H263473   5.912   5.819  16.907  0.8997 -3.0262 -0.2784
14020TIP3   OH263474   1.933   3.936   2.842  0.0552  0.0197 -0.1508
14020TIP3    H163475   1.851   3.949   2.795  0.1565 -0.9680 -0.6324
14020TIP3    H263476   1.944   3.841   2.844  0.7828  0.1110  0.6121
14021TIP3   OH263477   6.671   3.203   5.102  0.4591 -0.0447  0.3418
14021TIP3    H163478   6.635   3.204   5.014  0.0653  0.6988  0.5003
14021TIP3    H263479   6.638   3.122   5.142  1.2901 -0.7880 -0.4432
14022TIP3   OH263480   4.408   5.368   4.306 -0.0949 -1.0057 -0.0437
14022TIP3    H163481   4.417   5.463   4.296  0.4807 -1.1311 -0.7724
14022TIP3    H263482   4.315   5.354   4.322 -0.0622 -0.2505  0.8546
14023TIP3   OH263483   1.311   5.528   2.078  0.3533  0.3881  0.1867
14023TIP3    H163484   1.265   5.593   2.132 -2.2768 -1.2025  0.0355
14023TIP3    H263485   1.363   5.478   2.140 -1.5817 -0.5447  1.1518
14024TIP3   OH263486   0.041   3.873   2.191  0.9228 -0.6001 -0.1474
14024TIP3    H163487  -0.037   3.820   2.178 -0.5472  1.1306  1.0286
14024TIP3    H263488   0.114   3.811   2.187 -0.3971 -2.1262 -2.2386
14025TIP3   OH263489   5.007   3.255  17.147  0.1925  0.0076  0.6932
14025TIP3    H163490   4.919   3.246  17.185 -0.3276  0.5692 -0.3427
14025TIP3    H263491   5.024   3.349  17.148  0.4133 -0.0204  0.1041
14026TIP3   OH263492   5.925   6.650  11.803  0.2523  0.0719  0.6897
14026TIP3    H163493   5.879   6.718  11.754  0.4757 -0.4764 -0.3243
14026TIP3    H263494   5.857   6.607  11.854 -0.2642 -0.2714 -0.2477
14027TIP3   OH263495   2.539   2.555   2.805 -0.5916  0.2804 -0.1462
14027TIP3    H163496   2.461   2.581   2.854 -0.0736 -0.0563  0.8873
14027TIP3    H263497   2.552   2.463   2.828  1.1836  0.8201  1.2287
14028TIP3   OH263498   6.063   0.927   4.132 -0.3909  0.2466  0.1242
14028TIP3    H163499   6.031   0.904   4.045 -1.4305 -2.7201  1.1584
14028TIP3    H263500   6.155   0.900   4.132  0.3624  2.6105 -0.7714
14029TIP3   OH263501   4.931   1.582  14.804 -0.6031  0.6546  0.1705
14029TIP3    H163502   4.960   1.601  14.893 -0.4246  1.6831 -0.1015
14029TIP3    H263503   5.012   1.571  14.754 -0.5649  3.6409 -0.6159
14030TIP3   OH263504   2.811   3.778   0.781  0.1083  0.1477 -0.0297
14030TIP3    H163505   2.888   3.766   0.724  3.9235  2.3135  4.0118
14030TIP3    H263506   2.802   3.873   0.787 -0.6802 -0.0375  2.2062
14031TIP3   OH263507   2.453   5.178   3.337 -0.2368  0.0380 -0.5092
14031TIP3    H163508   2.423   5.204   3.250  1.0427  0.5009 -0.8280
14031TIP3    H263509   2.424   5.250   3.394 -0.3327  0.1510 -0.6974
14032TIP3   OH263510   4.997   6.274   6.460  0.4376 -0.2253 -0.4142
14032TIP3    H163511   4.921   6.304   6.410  0.2866  2.5707  1.2700
14032TIP3    H263512   5.071   6.318   6.418  0.6445 -0.0111  0.1693
14033TIP3   OH263513   2.154   5.377   0.830 -0.3751 -1.0521 -0.0967
14033TIP3    H163514   2.241   5.348   0.858 -0.0805 -0.1276 -0.0165
14033TIP3    H263515   2.155   5.365   0.735  0.8046  1.3093 -0.4618
14034TIP3   OH263516   1.739   3.417  12.050  0.3893  0.2046  1.0860
14034TIP3    H163517   1.795   3.359  11.998  0.7153  1.4281  0.0108
14034TIP3    H263518   1.695   3.359  12.112  3.7763 -0.6836  2.8743
14035TIP3   OH263519   3.769   6.093   0.763  0.0805  0.2853 -0.1903
14035TIP3    H163520   3.847   6.074   0.815 -1.1457 -1.3958  1.1530
14035TIP3    H263521   3.798   6.086   0.673  1.5275 -0.0680  0.2740
14036TIP3   OH263522   6.495   3.278  16.443 -0.0144 -0.0213 -0.4615
14036TIP3    H163523   6.479   3.326  16.362 -1.4004  0.2252 -0.0751
14036TIP3    H263524   6.515   3.189  16.416 -0.9010 -0.0445 -1.0737
14037TIP3   OH263525   2.768   6.211   1.894 -0.1740 -0.0828 -0.5576
14037TIP3    H163526   2.800   6.265   1.822  1.5205 -0.6495 -0.2726
14037TIP3    H263527   2.707   6.268   1.942 -0.7283  0.5500 -1.9608
14038TIP3   OH263528   1.725   3.627  16.250 -0.2665  0.0950 -0.3034
14038TIP3    H163529   1.817   3.604  16.260 -0.2385  0.5227  0.4719
14038TIP3    H263530   1.724   3.692  16.180 -0.1539 -0.9841 -1.3258
14039TIP3   OH263531   4.762   5.772   4.683 -0.2475  0.6596  0.3096
14039TIP3    H163532   4.822   5.739   4.750  0.7937  0.7364 -0.5566
14039TIP3    H263533   4.677   5.776   4.727 -0.2533 -2.1894  0.7718
14040TIP3   OH263534   3.984   4.753  11.168 -0.1610  0.4486  0.2872
14040TIP3    H163535   3.973   4.782  11.077 -0.7418  2.9464  1.0762
14040TIP3    H263536   3.904   4.705  11.187 -0.0456 -0.0798 -0.4927
14041TIP3   OH263537   3.398   4.089  14.634  0.2732  0.0077 -0.3718
14041TIP3    H163538   3.383   4.159  14.698  0.1332  1.1926 -1.6439
14041TIP3    H263539   3.486   4.105  14.601 -0.4537  0.8075 -2.0634
14042TIP3   OH263540   1.070   2.543   1.133 -0.1022 -0.8770  0.2531
14042TIP3    H163541   1.027   2.458   1.123  1.1397 -1.8895  2.7426
14042TIP3    H263542   1.153   2.523   1.175  1.1244  1.4198 -0.9060
14043TIP3   OH263543   5.335   3.853  16.572 -0.3559  0.3861  0.0532
14043TIP3    H163544   5.248   3.890  16.557  0.1536  2.4610  1.8136
14043TIP3    H263545   5.326   3.801  16.652 -0.1633 -0.1220 -0.2492
14044TIP3   OH263546   6.016   6.574   0.051 -0.1314 -0.5771  0.1227
14044TIP3    H163547   6.013   6.518  -0.027  2.1501 -0.3628 -0.1800
14044TIP3    H263548   5.972   6.655   0.024  1.8898  0.0661 -1.5140
14045TIP3   OH263549   6.685   4.993   0.129 -0.3817 -0.1967  0.1301
14045TIP3    H163550   6.644   4.917   0.088  1.6989 -0.9447 -0.7189
14045TIP3    H263551   6.693   5.057   0.058  0.8984 -0.5014 -0.0250
14046TIP3   OH263552   3.897   3.885   3.213  0.8487 -0.7277 -0.2074
14046TIP3    H163553   3.832   3.857   3.277  0.7575 -1.8390 -0.7543
14046TIP3    H263554   3.936   3.964   3.251 -0.7072 -0.1019  0.1904
14047TIP3   OH263555   3.571   4.736   3.873 -0.0664  0.0152  0.0326
14047TIP3    H163556   3.487   4.694   3.861  0.1523 -0.5423  0.4252
14047TIP3    H263557   3.564   4.782   3.956  0.4976 -1.2520  0.8127
14048TIP3   OH263558   5.341   2.348   6.626  0.2346  0.1187  0.1777
14048TIP3    H163559   5.253   2.320   6.600  0.5594  0.2119 -1.0775
14048TIP3    H263560   5.399   2.281   6.590  0.7803  0.7939 -0.2054
14049TIP3   OH263561   3.230   4.154   2.299 -0.2029  0.3818  0.4350
14049TIP3    H163562   3.241   4.249   2.301 -0.1593  0.3707  2.1961
14049TIP3    H263563   3.310   4.120   2.340 -0.7297 -0.3532  0.8776
14050TIP3   OH263564   4.587   3.772   4.548  0.0929 -0.2194  0.2299
14050TIP3    H163565   4.628   3.803   4.629  0.7427 -2.7925  0.9854
14050TIP3    H263566   4.503   3.736   4.576  0.3715 -1.2353 -0.1772
14051TIP3   OH263567   6.427   3.289  14.464 -0.3318 -0.3138 -0.5140
14051TIP3    H163568   6.506   3.341  14.449  0.1816 -0.9704 -0.1320
14051TIP3    H263569   6.355   3.346  14.436  0.1260  1.0591  0.9557
14052TIP3   OH263570   2.106   1.430   4.967 -0.9986  0.1074  0.5996
14052TIP3    H163571   2.198   1.411   4.983 -1.0911 -1.5465 -0.5241
14052TIP3    H263572   2.104   1.467   4.878 -1.1532  2.9708  1.6976
14053TIP3   OH263573   4.042   0.770   1.808  0.6552 -0.0920 -0.0582
14053TIP3    H163574   4.090   0.825   1.871  1.4849 -1.2766  0.3860
14053TIP3    H263575   3.979   0.722   1.861 -1.0122  1.3699 -0.6291
14054TIP3   OH263576   3.399   4.700  16.733  0.1307  0.0254  0.0278
14054TIP3    H163577   3.329   4.656  16.686  0.3953  0.1793 -0.5187
14054TIP3    H263578   3.377   4.689  16.826 -1.6673  1.7485 -0.1219
14055TIP3   OH263579   5.348   3.936   1.024 -0.8084  0.5283  0.0025
14055TIP3    H163580   5.348   4.001   1.095  0.7168  0.7754 -0.1807
14055TIP3    H263581   5.284   3.969   0.961 -0.5398  1.5178  0.2217
14056TIP3   OH263582   0.699   6.220   2.822  0.1552 -0.3614  0.9576
14056TIP3    H163583   0.764   6.154   2.845 -0.3624 -1.3671 -0.3500
14056TIP3    H263584   0.748   6.287   2.775  0.4227 -0.6031  0.8891
14057TIP3   OH263585   5.873   2.417   3.105 -0.2635 -0.4790  0.0633
14057TIP3    H163586   5.844   2.365   3.030 -1.8408  0.7914 -0.2423
14057TIP3    H263587   5.969   2.419   3.096 -0.1764 -2.7664 -0.2470
14058TIP3   OH263588   3.010   3.354   2.098  0.0879 -0.3520  0.1204
14058TIP3    H163589   2.953   3.278   2.092 -1.1383  0.5328  0.2472
14058TIP3    H263590   2.959   3.426   2.060  0.4634  0.8240  1.7283
14059TIP3   OH263591   2.817   3.056  15.174 -0.2697 -0.4901 -0.3345
14059TIP3    H163592   2.891   3.035  15.231  0.6617 -0.7322 -1.5966
14059TIP3    H263593   2.847   3.034  15.086 -1.3203  0.7822 -1.0516
14060TIP3   OH263594   3.723   6.458  15.022  0.2791 -0.0170 -0.3624
14060TIP3    H163595   3.757   6.495  15.104  0.3602 -0.1797 -0.3217
14060TIP3    H263596   3.801   6.430  14.975  0.3181  1.1663 -1.0260
14061TIP3   OH263597   6.320   4.795  12.285  0.0414 -0.1630 -0.2891
14061TIP3    H163598   6.274   4.746  12.354 -1.0781  0.8591 -0.2774
14061TIP3    H263599   6.326   4.733  12.212 -0.6947 -0.5703 -0.0246
14062TIP3   OH263600   1.920   3.468  16.717  0.0144 -0.0560  0.6394
14062TIP3    H163601   1.960   3.382  16.714 -0.2110 -0.1538  0.3995
14062TIP3    H263602   1.826   3.451  16.718 -0.0266  0.1792  0.8579
14063TIP3   OH263603   1.008   2.411   4.777 -0.2618  0.1919  0.1217
14063TIP3    H163604   0.950   2.412   4.701 -0.3163 -0.3535  0.1571
14063TIP3    H263605   1.081   2.468   4.751 -1.0866  1.3602  0.3074
14064TIP3   OH263606   5.816   1.183  13.461  0.3397 -0.6015 -0.0591
14064TIP3    H163607   5.858   1.097  13.450 -0.9513 -1.2443 -0.1655
14064TIP3    H263608   5.821   1.223  13.374  0.4318 -0.8222 -0.1571
14065TIP3   OH263609   1.938   4.036  15.606  0.3314 -0.8606 -0.0406
14065TIP3    H163610   1.904   3.966  15.551  0.2426 -0.3233 -0.6822
14065TIP3    H263611   1.929   4.115  15.553  0.5162 -0.3731  0.6351
14066TIP3   OH263612   1.985   6.626   5.832  0.3603 -1.0283 -0.5952
14066TIP3    H163613   1.892   6.602   5.829  0.5013 -1.9197  1.0586
14066TIP3    H263614   2.019   6.581   5.910  2.1941 -0.7542 -1.1946
14067TIP3   OH263615   4.504   4.476  14.748  0.1629 -0.3924  0.0847
14067TIP3    H163616   4.453   4.442  14.822 -1.5489  1.0841 -0.3529
14067TIP3    H263617   4.476   4.423  14.673 -1.1174  0.6987 -0.2395
14068TIP3   OH263618   0.876   0.594  12.264 -0.6234  0.0716  0.3059
14068TIP3    H163619   0.855   0.506  12.295 -0.8782  1.1729  3.6839
14068TIP3    H263620   0.939   0.628  12.328  2.3799  1.1546 -2.9151
14069TIP3   OH263621   5.295   2.805   6.342  0.2960 -0.5605  0.4544
14069TIP3    H163622   5.378   2.853   6.337  0.6599 -1.2935 -1.8526
14069TIP3    H263623   5.321   2.714   6.357  0.1085 -1.0720 -1.8671
14070TIP3   OH263624   6.477   3.063  13.598 -0.5853  0.4035 -0.5148
14070TIP3    H163625   6.479   2.998  13.668  1.8981  0.4436 -0.4673
14070TIP3    H263626   6.470   3.012  13.517 -1.0940  0.2304 -0.3646
14071TIP3   OH263627   4.764   3.845   5.789 -0.0450 -0.7144  0.2885
14071TIP3    H163628   4.797   3.767   5.745 -2.9823 -0.9142 -1.8722
14071TIP3    H263629   4.697   3.813   5.849 -2.2773  0.1036 -1.6255
14072TIP3   OH263630   6.099   0.540   1.732 -0.3461 -0.6504  0.2880
14072TIP3    H163631   6.037   0.613   1.733  0.0175 -0.3427  1.5588
14072TIP3    H263632   6.124   0.532   1.640  0.7873  1.8509  0.3099
14073TIP3   OH263633   1.148   1.270  13.267 -0.0496 -0.3106  0.5595
14073TIP3    H163634   1.087   1.231  13.204 -0.0848  1.4002 -0.5435
14073TIP3    H263635   1.232   1.269  13.222 -0.5263  3.3260 -0.8018
14074TIP3   OH263636   0.847   1.918   4.843 -0.4752 -0.2818  0.0159
14074TIP3    H163637   0.919   1.916   4.907  0.0428 -3.8234 -0.4432
14074TIP3    H263638   0.768   1.916   4.896 -0.1972  0.9575  0.5140
14075TIP3   OH263639   5.343   6.271  13.764 -0.4063  0.2069  0.2112
14075TIP3    H163640   5.421   6.219  13.785 -1.8435 -1.4681  1.8128
14075TIP3    H263641   5.286   6.259  13.840 -2.7425  0.3350 -1.4195
14076TIP3   OH263642   2.136   3.627   0.850 -0.4083  0.1189 -0.1380
14076TIP3    H163643   2.141   3.580   0.933 -0.6392 -0.5140 -0.4811
14076TIP3    H263644   2.211   3.595   0.800 -2.0446 -1.9515 -1.4259
14077TIP3   OH263645   6.260   6.665  14.382 -0.1791 -0.0107  0.5782
14077TIP3    H163646   6.176   6.692  14.419 -1.0163 -0.8967 -0.5797
14077TIP3    H263647   6.313   6.639  14.458 -1.3619 -0.5167  1.2572
14078TIP3   OH263648   2.551   1.397   5.243 -0.0057  0.4499 -0.5402
14078TIP3    H163649   2.483   1.450   5.202  1.7378  3.0450 -0.3379
14078TIP3    H263650   2.631   1.420   5.196  1.2247 -0.2618  1.0893
14079TIP3   OH263651   5.334   0.429  13.662  0.2158  0.8827  0.8727
14079TIP3    H163652   5.315   0.482  13.739 -0.3696  0.9454  0.6896
14079TIP3    H263653   5.376   0.489  13.601  0.2462  0.9497  0.9590
14080TIP3   OH263654   3.689   4.221   3.534 -0.1910  0.0031  0.1067
14080TIP3    H163655   3.770   4.173   3.555  0.8004  1.6551  0.2432
14080TIP3    H263656   3.657   4.252   3.619 -0.4384  0.1468 -0.0396
14081TIP3   OH263657   0.327   4.728  13.519 -0.1210  0.4796  0.0505
14081TIP3    H163658   0.344   4.729  13.425 -3.4370  1.2837 -0.6639
14081TIP3    H263659   0.352   4.815  13.549  2.5989 -0.3291  0.3562
14082TIP3   OH263660   3.062   2.403  14.336  0.1836  0.1400 -0.1430
14082TIP3    H163661   2.983   2.418  14.389  0.7155  0.6766  0.5228
14082TIP3    H263662   3.095   2.318  14.366 -0.4871 -0.3923 -0.8823
14083TIP3   OH263663   5.156   0.485   4.270 -0.2399  0.0330  0.4246
14083TIP3    H163664   5.235   0.470   4.322  0.1829  0.2650 -0.1433
14083TIP3    H263665   5.089   0.507   4.335 -0.3527 -2.0673  1.1060
14084TIP3   OH263666   2.709   6.721  14.578 -0.6297  0.0354  0.1028
14084TIP3    H163667   2.760   6.684  14.650  1.2702 -1.4179 -1.8410
14084TIP3    H263668   2.666   6.798  14.616  3.7112  1.9699  1.8174
14085TIP3   OH263669   3.327   0.485  14.467 -0.1393 -0.2026 -0.0148
14085TIP3    H163670   3.263   0.552  14.440 -0.9865 -0.9767  0.0282
14085TIP3    H263671   3.390   0.533  14.521  0.0312  0.8241 -1.1004
14086TIP3   OH263672   3.964   6.449   4.914 -0.1472  0.1493 -0.5481
14086TIP3    H163673   3.897   6.387   4.883  0.0611 -0.9455  1.0132
14086TIP3    H263674   4.047   6.409   4.889  0.0269 -0.7869  1.3032
14087TIP3   OH263675   6.373   4.713  13.849 -0.0241 -0.0340  0.0894
14087TIP3    H163676   6.381   4.767  13.928 -1.2027 -0.6479  0.6653
14087TIP3    H263677   6.371   4.776  13.777  0.9235  0.5443  0.5556
14088TIP3   OH263678   6.288   4.936  14.677 -0.1552  0.5278  0.0667
14088TIP3    H163679   6.355   4.979  14.625 -1.5243  1.4128 -1.0323
14088TIP3    H263680   6.207   4.981  14.654 -1.2796 -1.1089  0.6552
14089TIP3   OH263681   3.644   2.123  12.047 -0.1533  0.0540 -0.1570
14089TIP3    H163682   3.569   2.086  12.095 -1.2201  0.7873 -1.2260
14089TIP3    H263683   3.650   2.213  12.078 -2.0031  1.1375 -2.5799
14090TIP3   OH263684   3.305   2.904  14.316  0.2140  0.2921 -0.0509
14090TIP3    H163685   3.288   2.955  14.395 -1.2676  0.4027 -0.4189
14090TIP3    H263686   3.376   2.845  14.341  1.1931  1.7264  0.7290
14091TIP3   OH263687   4.185   1.050  15.126  0.5711  0.2824 -0.2802
14091TIP3    H163688   4.209   1.068  15.217 -0.7480  1.6783 -0.1622
14091TIP3    H263689   4.097   1.012  15.132  0.4789  0.3678 -0.9769
14092TIP3   OH263690   2.473   5.421  13.676 -0.3635 -0.2335  0.1644
14092TIP3    H163691   2.504   5.331  13.677 -1.2354 -0.5541 -0.2299
14092TIP3    H263692   2.542   5.471  13.720  0.2450 -1.0475  0.1586
14093TIP3   OH263693   6.065   4.252   6.141  0.0072 -0.0804  0.0259
14093TIP3    H163694   6.028   4.164   6.149 -0.3775 -0.0033 -0.7958
14093TIP3    H263695   5.989   4.310   6.138  0.2155  0.1738 -0.5691
14094TIP3   OH263696   2.017   6.565   4.966 -0.2023  0.1955  0.1343
14094TIP3    H163697   1.984   6.579   4.877  0.2579 -0.6692 -0.1977
14094TIP3    H263698   1.953   6.506   5.006  1.2599 -2.1817 -0.7973
14095TIP3   OH263699   2.749   4.954   3.863  0.3650 -0.0187  0.6114
14095TIP3    H163700   2.700   4.872   3.875 -1.3100  1.2124  3.0281
14095TIP3    H263701   2.815   4.953   3.933  0.2592  0.7173  0.7314
14096TIP3   OH263702   5.801   0.245  13.102 -0.4880 -0.3589 -0.2438
14096TIP3    H163703   5.730   0.194  13.064 -0.1518 -0.5574 -0.6194
14096TIP3    H263704   5.775   0.336  13.087  0.1498 -0.4206 -1.9864
14097TIP3   OH263705   0.591   6.606   0.775  0.5997  0.2756 -0.3224
14097TIP3    H163706   0.532   6.610   0.701 -0.3737 -2.4804  0.1849
14097TIP3    H263707   0.675   6.579   0.738  0.7942  1.2970 -0.6677
14098TIP3   OH263708   0.020   3.583   2.424 -0.1433 -0.5630  0.1758
14098TIP3    H163709  -0.008   3.585   2.333  0.4681 -1.7045 -0.0677
14098TIP3    H263710   0.116   3.578   2.419  0.0013  0.9983  0.9241
14099TIP3   OH263711   1.447   1.259   2.870 -0.0703 -0.0006  0.2043
14099TIP3    H163712   1.463   1.218   2.955 -0.0750 -0.6404 -0.0909
14099TIP3    H263713   1.352   1.266   2.863 -0.0780 -0.1276  0.1745
14100TIP3   OH263714   2.786   1.117  12.962 -0.4104  0.1127  0.2399
14100TIP3    H163715   2.824   1.032  12.982  1.0896  0.4718 -0.9281
14100TIP3    H263716   2.754   1.108  12.872 -0.1204  0.8063  0.0582
14101TIP3   OH263717   3.948   5.196  13.103 -0.0999  0.4133 -0.1543
14101TIP3    H163718   3.939   5.210  13.008 -1.2260 -0.3578 -0.1875
14101TIP3    H263719   3.874   5.243  13.141 -1.1077 -1.2916  0.1110
14102TIP3   OH263720   5.452   0.192  15.121  0.0605  0.4845 -0.6123
14102TIP3    H163721   5.495   0.276  15.104  1.0621 -0.0178 -0.5659
14102TIP3    H263722   5.523   0.130  15.134 -0.6573 -0.0066  1.2581
14103TIP3   OH263723   2.269   4.029  12.053 -0.6542 -0.3102  0.6093
14103TIP3    H163724   2.258   4.042  11.958 -0.9647 -0.9630  0.5514
14103TIP3    H263725   2.268   4.117  12.089 -0.0995 -0.0203 -0.0410
14104TIP3   OH263726   1.577   2.404  16.557 -0.5779  0.1768 -0.0976
14104TIP3    H163727   1.542   2.409  16.469 -0.4508 -0.7378 -0.2134
14104TIP3    H263728   1.503   2.424  16.614 -1.1500 -1.0992 -0.3600
14105TIP3   OH263729   1.437   5.193  14.883 -0.5503  0.0180  0.0333
14105TIP3    H163730   1.374   5.143  14.832 -1.0659  0.3426  0.3386
14105TIP3    H263731   1.383   5.246  14.942 -0.0364  1.2237 -0.5443
14106TIP3   OH263732   4.486   6.571   6.503  0.1237  0.4605 -0.3070
14106TIP3    H163733   4.438   6.530   6.575 -0.2011  1.1688 -0.1136
14106TIP3    H263734   4.574   6.534   6.509 -0.5161 -1.2332 -0.9809
14107TIP3   OH263735   4.601   4.616  15.890 -0.0778  0.0706 -0.0362
14107TIP3    H163736   4.649   4.534  15.879  1.6261  1.1373 -0.9672
14107TIP3    H263737   4.526   4.608  15.831 -1.3385 -1.7755  1.7073
14108TIP3   OH263738   6.744   3.056   3.095  0.1210 -0.0882 -0.0876
14108TIP3    H163739   6.803   3.088   3.026  0.6783  0.5404  0.6513
14108TIP3    H263740   6.676   3.123   3.100  0.3971  0.1691  0.3491
14109TIP3   OH263741   3.454   1.263  17.123 -0.8462  0.2069 -0.5273
14109TIP3    H163742   3.455   1.269  17.219  2.9280 -2.5449 -0.2016
14109TIP3    H263743   3.381   1.203  17.104  1.2003 -3.1636  1.2220
14110TIP3   OH263744   1.370   4.835   2.801 -0.1096 -0.3808  0.1761
14110TIP3    H163745   1.299   4.878   2.848 -0.0113 -0.9604  0.8750
14110TIP3    H263746   1.450   4.875   2.838 -0.0202 -1.0941  0.7830
14111TIP3   OH263747   6.002   0.479  16.901 -0.2751  0.5975  0.4423
14111TIP3    H163748   5.950   0.404  16.929  0.2730 -0.6490 -1.6938
14111TIP3    H263749   5.946   0.524  16.838  0.3467  0.5550 -0.1447
14112TIP3   OH263750   2.962   1.049   5.593 -0.5732 -0.0243 -0.3637
14112TIP3    H163751   2.992   1.140   5.594  0.9024 -0.4756 -0.6217
14112TIP3    H263752   3.018   1.004   5.656 -0.3669 -1.0120 -1.2188
14113TIP3   OH263753   4.737   3.963   4.693  0.3155  0.2128  0.4043
14113TIP3    H163754   4.811   4.005   4.650 -0.4664  0.9127 -0.2964
14113TIP3    H263755   4.669   4.030   4.696 -0.4084 -0.5087  0.7399
14114TIP3   OH263756   0.615   4.865   4.256 -0.3784 -0.3736 -0.1957
14114TIP3    H163757   0.645   4.874   4.347 -1.2692  0.2184  0.0524
14114TIP3    H263758   0.600   4.955   4.227  0.6544 -0.5066 -1.2085
14115TIP3   OH263759   2.328   2.328  13.625 -0.1042 -0.7758  0.1964
14115TIP3    H163760   2.320   2.422  13.607  0.0930 -0.2243  2.6265
14115TIP3    H263761   2.422   2.310  13.618 -0.2839 -1.1552 -1.6752
14116TIP3   OH263762   3.758   6.721   2.939  0.1089 -0.2297 -0.1294
14116TIP3    H163763   3.668   6.700   2.916 -0.8993  1.3409  2.1685
14116TIP3    H263764   3.787   6.647   2.992 -1.8779  1.6924  4.0062
14117TIP3   OH263765   1.328   0.063  10.635 -0.2128  0.6100 -0.5824
14117TIP3    H163766   1.403   0.068  10.695 -0.5754  1.6588 -0.1961
14117TIP3    H263767   1.347  -0.013  10.580  0.3858 -0.0593  0.5067
14118TIP3   OH263768   6.663   4.713   6.180 -0.5698 -0.4364 -0.2753
14118TIP3    H163769   6.733   4.688   6.241 -0.3996  1.2037  0.2525
14118TIP3    H263770   6.601   4.641   6.184 -0.7613 -0.2190  2.1805
14119TIP3   OH263771   0.812   1.609  12.481 -0.3218 -0.0656  0.5771
14119TIP3    H163772   0.789   1.670  12.411 -1.3812 -0.5180  0.5132
14119TIP3    H263773   0.736   1.552  12.490  0.2053 -0.6758  1.3987
14120TIP3   OH263774   1.062   2.615  14.196 -0.5127 -0.0063  0.2400
14120TIP3    H163775   1.037   2.593  14.286 -1.9152 -0.1257 -0.1556
14120TIP3    H263776   1.090   2.532  14.158 -2.7055 -0.5792 -0.2748
14121TIP3   OH263777   0.180   2.021  15.408  0.3414 -0.1071  0.0177
14121TIP3    H163778   0.153   2.044  15.319  0.5857  0.0594 -0.0161
14121TIP3    H263779   0.216   1.933  15.400 -2.6498 -1.4972  0.5404
14122TIP3   OH263780   2.674   0.277  13.351 -0.0473 -0.0540 -0.1955
14122TIP3    H163781   2.724   0.289  13.432  0.9444 -0.8191 -0.6639
14122TIP3    H263782   2.586   0.254  13.380 -0.1861  1.4765  0.6589
14123TIP3   OH263783   4.264   3.553  14.246  0.6723 -0.4476 -0.0953
14123TIP3    H163784   4.342   3.569  14.299 -0.2686 -0.1664  1.2236
14123TIP3    H263785   4.235   3.466  14.271 -0.1819 -0.0346  0.3871
14124TIP3   OH263786   0.480   2.081   1.417 -0.1675  0.4397  0.1108
14124TIP3    H163787   0.431   2.086   1.335 -0.2831  0.4937  0.1833
14124TIP3    H263788   0.472   2.168   1.456  0.8462  0.7612 -0.3702
14125TIP3   OH263789   5.799   3.946   1.838 -0.1867  0.4079  1.2134
14125TIP3    H163790   5.732   3.942   1.906  1.3907  0.0506  2.8240
14125TIP3    H263791   5.837   4.033   1.847 -0.1880  0.4855  0.5336
14126TIP3   OH263792   6.471   2.655  17.170 -0.1918 -0.1841 -0.4481
14126TIP3    H163793   6.491   2.585  17.232 -2.5317 -1.2333 -0.7803
14126TIP3    H263794   6.458   2.609  17.087 -2.9295  0.4422 -0.4357
14127TIP3   OH263795   1.076   3.271  14.454  1.1194 -0.2531  0.0310
14127TIP3    H163796   1.005   3.278  14.389  0.2709 -2.0515  0.7044
14127TIP3    H263797   1.156   3.282  14.403  0.4373 -0.8540 -1.2192
14128TIP3   OH263798   2.968   1.426  12.806  0.6622 -0.3800 -0.5115
14128TIP3    H163799   3.056   1.427  12.843  2.7188 -3.2660 -4.4864
14128TIP3    H263800   2.972   1.488  12.732 -0.3561 -1.1124 -1.2171
14129TIP3   OH263801   6.644   4.463   0.449  0.0452  0.2255 -0.6569
14129TIP3    H163802   6.643   4.552   0.415 -0.7994  0.8509  0.8973
14129TIP3    H263803   6.667   4.472   0.541 -1.9238 -0.9186  0.0257
14130TIP3   OH263804   0.012   5.165   5.261 -0.8085 -0.5654 -0.7652
14130TIP3    H163805  -0.052   5.224   5.300 -1.2081 -1.5964  0.1810
14130TIP3    H263806   0.038   5.209   5.180 -0.3862  1.3485  0.3590
14131TIP3   OH263807   0.750   3.922   2.152 -0.3406  0.2101  0.0389
14131TIP3    H163808   0.797   3.879   2.222 -0.8227 -1.3765 -0.5811
14131TIP3    H263809   0.681   3.861   2.127 -1.1797  1.4205 -0.7468
14132TIP3   OH263810   3.850   0.162   4.429  0.1134  1.1026 -0.5360
14132TIP3    H163811   3.755   0.162   4.415  0.0204  0.6214  0.0707
14132TIP3    H263812   3.861   0.183   4.522  0.4829 -1.3352  0.0448
14133TIP3   OH263813   5.417   2.984  15.388 -0.1068 -0.0788  0.3335
14133TIP3    H163814   5.388   3.062  15.435 -0.8198 -0.6823  0.9076
14133TIP3    H263815   5.368   2.986  15.305 -1.0202 -0.5484  0.8587
14134TIP3   OH263816   2.590   6.161  15.435 -0.4871  0.2655  0.3610
14134TIP3    H163817   2.499   6.172  15.461 -0.7394 -0.5790 -0.1287
14134TIP3    H263818   2.640   6.169  15.516 -1.0180  0.4608  0.6722
14135TIP3   OH263819   2.682   3.892   2.647  0.2110  0.4714 -0.4794
14135TIP3    H163820   2.612   3.918   2.706 -0.1833  0.6307 -1.0021
14135TIP3    H263821   2.730   3.823   2.693  2.4418  3.2809  1.7661
14136TIP3   OH263822   3.416   6.503   6.436 -0.0043 -0.5650  0.1581
14136TIP3    H163823   3.449   6.414   6.424 -1.6731 -1.4756  1.7489
14136TIP3    H263824   3.381   6.527   6.351 -0.1582 -1.7245 -0.1295
14137TIP3   OH263825   6.703   5.449   0.701  0.2543  0.7280 -0.2400
14137TIP3    H163826   6.613   5.474   0.682  0.1346  0.4166 -0.0866
14137TIP3    H263827   6.740   5.427   0.616 -0.4145 -1.1107 -0.0957
14138TIP3   OH263828   2.756   0.477  12.214 -0.1340  0.0860 -0.3215
14138TIP3    H163829   2.708   0.517  12.141  2.3459 -0.9463 -2.6665
14138TIP3    H263830   2.715   0.391  12.225 -3.3799  1.7337  2.6271
14139TIP3   OH263831   2.297   6.604   3.801  0.7778 -0.0697 -0.1234
14139TIP3    H163832   2.330   6.690   3.828 -0.8398  1.0442 -1.5301
14139TIP3    H263833   2.231   6.582   3.867 -1.7400  1.7268 -1.9107
14140TIP3   OH263834   3.617   2.552   5.249  0.3208  0.4378  0.2077
14140TIP3    H163835   3.706   2.517   5.256 -0.8693 -2.8925  0.5973
14140TIP3    H263836   3.593   2.575   5.339  0.2503 -0.2159  0.3612
14141TIP3   OH263837   0.316   5.337  14.887 -0.6814 -0.1605  0.3577
14141TIP3    H163838   0.301   5.359  14.795 -0.0572 -1.8519 -0.1869
14141TIP3    H263839   0.248   5.385  14.935 -1.1246  0.5960 -1.0022
14142TIP3   OH263840   5.014   2.916   6.271  0.0883  0.2825  0.0344
14142TIP3    H163841   5.099   2.898   6.312 -0.3136 -0.4716  0.5381
14142TIP3    H263842   5.028   2.896   6.178  0.3579 -0.1651  0.1711
14143TIP3   OH263843   0.427   5.553   4.971 -0.2246 -0.3376 -0.1613
14143TIP3    H163844   0.345   5.535   5.017 -1.5495  0.8038 -1.9420
14143TIP3    H263845   0.495   5.527   5.033 -1.8961  0.0366  1.9568
14144TIP3   OH263846   1.018   4.503  16.461  0.4139 -0.3486 -0.1207
14144TIP3    H163847   1.036   4.409  16.454  0.2414 -0.3004 -1.4872
14144TIP3    H263848   0.923   4.511  16.452  0.2086 -0.1508  1.7127
14145TIP3   OH263849   2.756   2.214  11.963 -0.3385 -0.1828  0.1099
14145TIP3    H163850   2.722   2.274  11.896  1.2980 -1.3776 -1.9010
14145TIP3    H263851   2.836   2.255  11.994  0.6605 -1.1565 -1.1013
14146TIP3   OH263852   3.917   2.359  10.266  0.6177  0.8886 -1.4850
14146TIP3    H163853   3.879   2.441  10.236  2.1061  0.6846 -4.1425
14146TIP3    H263854   4.005   2.381  10.294 -0.2112  0.7922  1.6721
14147TIP3   OH263855   2.866   5.961   4.176  0.7992 -0.0627  0.1787
14147TIP3    H163856   2.813   5.897   4.128  0.8251 -0.8512  1.1577
14147TIP3    H263857   2.944   5.912   4.203  0.6055  0.2364  1.3393
14148TIP3   OH263858   0.572   1.100  16.613 -0.0745 -0.8916  1.1359
14148TIP3    H163859   0.657   1.063  16.637  0.7329  0.8513  1.0826
14148TIP3    H263860   0.588   1.149  16.533 -0.8456  0.3934  1.7268
14149TIP3   OH263861   3.366   6.700  13.450 -0.4383 -0.3840 -0.4105
14149TIP3    H163862   3.396   6.761  13.517 -1.8172  0.5671 -0.6171
14149TIP3    H263863   3.445   6.678  13.400  0.7354 -1.5251  1.7929
14150TIP3   OH263864   4.315   6.041  14.231 -0.0121  0.1297  0.2049
14150TIP3    H163865   4.396   6.062  14.184  0.0641  0.5123  0.5134
14150TIP3    H263866   4.259   6.002  14.164  1.2223 -2.2171  0.4250
14151TIP3   OH263867   4.365   1.516  14.176  0.4647  0.1165 -0.4116
14151TIP3    H163868   4.283   1.547  14.138  0.4268 -0.4560 -0.8069
14151TIP3    H263869   4.431   1.533  14.109  0.2824 -1.5447 -1.0581
14152TIP3   OH263870   2.822   5.586  13.894  0.3728 -0.4305 -0.0349
14152TIP3    H163871   2.865   5.533  13.826 -1.3856 -2.3759  0.2827
14152TIP3    H263872   2.815   5.528  13.969  1.4280  1.3933  1.5779
14153TIP3   OH263873   2.232   2.852  14.787 -0.8722 -0.4050  0.0553
14153TIP3    H163874   2.200   2.938  14.813  0.3358  0.5230 -1.3199
14153TIP3    H263875   2.153   2.798  14.781 -1.8012  0.9044 -0.1045
14154TIP3   OH263876   2.080   6.330  12.945 -0.1242  0.4225 -0.0311
14154TIP3    H163877   2.061   6.360  12.856 -0.1242 -1.2758 -0.6422
14154TIP3    H263878   2.113   6.407  12.990  0.0189  1.2836 -1.5506
14155TIP3   OH263879   3.359   1.046   5.975  0.1459  0.5404 -0.0103
14155TIP3    H163880   3.380   0.972   6.031  1.9969 -0.2280 -1.5971
14155TIP3    H263881   3.336   1.117   6.035 -1.8001 -1.2827  1.5571
14156TIP3   OH263882   4.371   4.667   5.713  0.4595 -0.4849 -0.1502
14156TIP3    H163883   4.428   4.644   5.786 -0.9232  1.7278  1.7207
14156TIP3    H263884   4.290   4.618   5.729 -0.4155  1.1874  0.7189
14157TIP3   OH263885   6.388   3.139   2.034 -0.5979 -0.3319  0.3796
14157TIP3    H163886   6.416   3.156   1.944  0.8592 -0.3288  0.8021
14157TIP3    H263887   6.465   3.101   2.076 -0.4743  1.8342  2.2670
14158TIP3   OH263888   2.639   4.047  12.271 -0.1963 -0.4409  0.2888
14158TIP3    H163889   2.597   4.131  12.254  1.1466 -0.1723 -2.2825
14158TIP3    H263890   2.574   3.982  12.244 -1.2620 -0.2833  2.3498
14159TIP3   OH263891   5.913   0.425  11.760 -0.4030  0.3458  0.5253
14159TIP3    H163892   5.871   0.339  11.759 -2.5034  1.3053 -0.6502
14159TIP3    H263893   5.887   0.464  11.843 -0.6146  0.3888  0.4374
14160TIP3   OH263894   0.669   6.764  11.869 -0.4381  0.1174 -0.3563
14160TIP3    H163895   0.739   6.708  11.904 -0.2347 -0.7695 -2.0548
14160TIP3    H263896   0.607   6.772  11.940 -0.6864 -2.6886 -0.1336
14161TIP3   OH263897   6.660   6.145   4.460  0.3091  0.0273  0.5919
14161TIP3    H163898   6.600   6.211   4.426  2.4849  1.8870  0.1021
14161TIP3    H263899   6.690   6.181   4.544  1.6559 -0.2132  0.2377
14162TIP3   OH263900   1.271   5.357   4.333 -0.2154  1.0383  0.0199
14162TIP3    H163901   1.282   5.262   4.334  0.7992  1.1075 -1.7437
14162TIP3    H263902   1.347   5.390   4.380  1.3352  1.0750 -2.4031
14163TIP3   OH263903   2.522   0.954  15.718  0.9215 -0.0999 -0.1161
14163TIP3    H163904   2.607   0.931  15.682  1.1966 -0.4780  0.7398
14163TIP3    H263905   2.459   0.908  15.662  1.4202 -2.3697  1.0444
14164TIP3   OH263906   1.319   1.328  14.574 -0.8693  0.3061  0.7467
14164TIP3    H163907   1.233   1.286  14.580 -0.2665 -1.0653  0.1989
14164TIP3    H263908   1.325   1.357  14.483 -0.0778 -1.1859  0.2891
14165TIP3   OH263909   4.066   5.655   4.293  0.0814 -0.6356  0.0226
14165TIP3    H163910   4.085   5.749   4.290 -0.4587 -0.5278 -2.2118
14165TIP3    H263911   3.980   5.649   4.334  1.0972 -0.3998  2.3081
14166TIP3   OH263912   1.132   3.711  11.559 -0.2150 -0.3193  0.7736
14166TIP3    H163913   1.176   3.633  11.526  1.4256  0.1991  1.6626
14166TIP3    H263914   1.106   3.687  11.648  1.3933  0.5233  1.5016
14167TIP3   OH263915   5.575   1.351   2.266 -0.1976 -0.1544  0.2058
14167TIP3    H163916   5.581   1.425   2.326 -0.1859 -1.8072  2.3568
14167TIP3    H263917   5.508   1.294   2.305 -0.5175 -1.0952 -1.6151
14168TIP3   OH263918   4.220   0.895  12.630 -0.3878 -0.0116  0.5670
14168TIP3    H163919   4.143   0.838  12.625  0.2947 -0.8526 -0.7207
14168TIP3    H263920   4.260   0.890  12.544 -0.1097  2.1943  0.5201
14169TIP3   OH263921   1.556   1.809   0.288 -0.1554  0.2792  0.8817
14169TIP3    H163922   1.499   1.885   0.272  0.5737  0.2518 -2.7558
14169TIP3    H263923   1.504   1.734   0.259  0.6049 -0.0875  0.4422
14170TIP3   OH263924   1.152   2.904   0.145  0.5452  0.1453  0.3492
14170TIP3    H163925   1.244   2.912   0.120  0.8777 -1.6801  0.8683
14170TIP3    H263926   1.128   2.992   0.175  1.3508  1.3069 -2.1496
14171TIP3   OH263927   2.488   5.098  15.069  0.3980  0.1871  0.0337
14171TIP3    H163928   2.397   5.128  15.064  0.4557  0.1662 -1.2799
14171TIP3    H263929   2.496   5.031  15.002  1.4052  0.2391  0.0798
14172TIP3   OH263930   0.227   5.757   2.843 -0.3370  0.1090 -0.4994
14172TIP3    H163931   0.164   5.827   2.858  0.7373  1.1887 -0.8762
14172TIP3    H263932   0.225   5.743   2.748 -0.3188 -0.1493 -0.4616
14173TIP3   OH263933   1.262   3.476  12.722 -0.5364  0.1209 -0.2922
14173TIP3    H163934   1.326   3.533  12.680 -0.1496  1.1341  1.5793
14173TIP3    H263935   1.291   3.470  12.813 -2.0647 -0.9190  0.1636
14174TIP3   OH263936   4.773   2.204  13.731 -0.2355 -0.1125 -0.1390
14174TIP3    H163937   4.861   2.215  13.765  0.7388 -0.6445 -2.2992
14174TIP3    H263938   4.750   2.290  13.694 -0.3846 -0.1384 -0.1096
14175TIP3   OH263939   5.652   3.143  15.353 -0.1716  0.5380 -0.0683
14175TIP3    H163940   5.615   3.058  15.374 -0.6310  0.9093  0.6945
14175TIP3    H263941   5.624   3.161  15.264 -0.9143  0.3263  0.1211
14176TIP3   OH263942   6.045   2.220   6.171 -0.5655 -0.1078  0.3575
14176TIP3    H163943   6.115   2.180   6.120 -1.4445  0.6545 -1.5529
14176TIP3    H263944   5.964   2.189   6.129 -1.3091  1.0848  0.8540
14177TIP3   OH263945   5.324   4.131  15.860 -0.0369  0.9031 -0.0078
14177TIP3    H163946   5.328   4.045  15.902  0.2121  1.0855  0.3462
14177TIP3    H263947   5.280   4.187  15.925  0.2555  1.1614 -0.0326
14178TIP3   OH263948   3.334   3.406   3.554 -0.3365  0.4847 -0.2059
14178TIP3    H163949   3.382   3.385   3.634 -0.3762 -3.7101 -1.0668
14178TIP3    H263950   3.402   3.435   3.493  0.3407 -0.3742  0.1196
14179TIP3   OH263951   3.326   5.477   0.602  0.0554  0.4236 -0.1863
14179TIP3    H163952   3.277   5.558   0.613 -1.3128 -0.4335  0.1833
14179TIP3    H263953   3.336   5.442   0.690 -2.4551 -1.5443 -0.5714
14180TIP3   OH263954   3.005   1.341  11.163  0.5734 -0.0066  0.2252
14180TIP3    H163955   2.991   1.262  11.112  1.4960 -0.7436  1.0679
14180TIP3    H263956   3.073   1.317  11.226  0.6279  1.3554  0.7228
14181TIP3   OH263957   3.534   4.394  11.471 -0.4064  0.4763 -0.0488
14181TIP3    H163958   3.517   4.370  11.562 -1.1276 -0.7244 -0.4800
14181TIP3    H263959   3.457   4.443  11.444  0.5651  2.4038  0.4782
14182TIP3   OH263960   5.966   1.458  14.586  0.1317  0.0239 -0.2339
14182TIP3    H163961   5.908   1.386  14.561 -1.6931  0.7627  1.5984
14182TIP3    H263962   6.015   1.424  14.661 -0.6574  0.6169  0.5672
14183TIP3   OH263963   4.361   0.182  13.331 -0.0104 -0.3283  0.2080
14183TIP3    H163964   4.273   0.218  13.334  0.3991  0.9078 -1.2241
14183TIP3    H263965   4.414   0.243  13.383  0.0814 -0.8451  0.7322
14184TIP3   OH263966   2.071   4.793   2.826  0.7096  0.1803 -0.3455
14184TIP3    H163967   1.980   4.784   2.852  1.0971 -0.3279  0.9403
14184TIP3    H263968   2.071   4.861   2.758 -0.5806  0.3491 -0.1907
14185TIP3   OH263969   0.606   4.435  13.703 -0.1618  0.0938  0.0715
14185TIP3    H163970   0.645   4.506  13.754 -0.5390  0.6533 -0.4121
14185TIP3    H263971   0.536   4.401  13.758  1.7464 -1.7519  1.4986
14186TIP3   OH263972   4.992   1.471  16.122  0.4348  0.4238  0.4354
14186TIP3    H163973   5.043   1.390  16.114 -0.6121 -0.1864 -0.3346
14186TIP3    H263974   5.051   1.540  16.094  0.5870 -0.3741 -1.3046
14187TIP3   OH263975   1.627   5.778  12.529  0.4211 -0.1699 -0.1023
14187TIP3    H163976   1.691   5.716  12.563  0.8558  0.3708  0.0815
14187TIP3    H263977   1.544   5.731  12.534  0.8091 -0.9139 -0.4365
14188TIP3   OH263978   1.578   5.701  13.181  0.1641 -0.2243 -0.3301
14188TIP3    H163979   1.662   5.711  13.227  0.6565  1.8957 -1.5081
14188TIP3    H263980   1.513   5.694  13.251  1.2991 -1.9800  0.6136
14189TIP3   OH263981   4.030   4.248   5.695 -0.1501 -0.0011  0.0011
14189TIP3    H163982   4.118   4.218   5.717 -0.6950 -1.5540  0.1914
14189TIP3    H263983   4.021   4.230   5.601  0.0082  0.9043 -0.1946
14190TIP3   OH263984   0.725   2.343  12.739  0.3384  0.6198  0.1007
14190TIP3    H163985   0.732   2.293  12.820 -0.5070  0.2006 -0.0683
14190TIP3    H263986   0.710   2.433  12.767  0.2488  0.5091  0.4118
14191TIP3   OH263987   1.945   0.353   6.207 -0.7239  0.2377 -0.3011
14191TIP3    H163988   1.982   0.441   6.201  0.5418 -0.1344  1.1949
14191TIP3    H263989   1.962   0.313   6.122  1.1196  0.5694 -0.1333
14192TIP3   OH263990   5.554   4.460   1.496  0.3586  0.5264  0.1466
14192TIP3    H163991   5.640   4.490   1.524  0.3746  1.4805 -0.8302
14192TIP3    H263992   5.572   4.385   1.439  0.4023 -0.5290  1.5062
14193TIP3   OH263993   2.332   3.055  14.413  0.2275 -0.0656  0.7299
14193TIP3    H163994   2.399   3.115  14.445  1.2337 -1.8163  2.0810
14193TIP3    H263995   2.250   3.104  14.422  1.2078  1.9159 -0.4345
14194TIP3   OH263996   1.346   1.486   1.891  0.5092  0.0111 -0.6293
14194TIP3    H163997   1.414   1.524   1.836  0.7408 -1.4565 -1.3958
14194TIP3    H263998   1.343   1.394   1.866 -2.1114  0.1145 -1.0035
14195TIP3   OH263999   5.996   6.151   6.470 -0.9372 -0.0540  0.2527
14195TIP3    H164000   6.017   6.150   6.563 -1.6214 -0.8002  0.4098
14195TIP3    H264001   5.982   6.244   6.450  2.0410  0.4863  0.2033
14196TIP3   OH264002   4.630   2.491   5.491 -0.2117  0.4693  0.2697
14196TIP3    H164003   4.690   2.563   5.508 -0.5432  0.5144  1.2646
14196TIP3    H264004   4.678   2.434   5.430  0.1608  1.3685 -0.2998
14197TIP3   OH264005   2.652   4.807  16.040  0.4928 -0.1421 -0.1493
14197TIP3    H164006   2.603   4.889  16.036 -0.7413 -0.8675 -0.5155
14197TIP3    H264007   2.713   4.819  16.112 -0.4448  0.6842  0.5375
14198TIP3   OH264008   2.303   2.821  12.027 -0.2896  0.9106 -0.0435
14198TIP3    H164009   2.304   2.791  11.936  0.0188 -0.0284  0.2607
14198TIP3    H264010   2.290   2.742  12.079 -0.3621  1.4214  0.7402
14199TIP3   OH264011   2.326   4.317   3.554  0.0755  0.1726  0.7135
14199TIP3    H164012   2.293   4.374   3.623 -0.8128  1.0802 -0.4166
14199TIP3    H264013   2.420   4.308   3.572  0.2069  1.8891  0.9936
14200TIP3   OH264014   4.697   2.209   2.132  0.2380  0.2215  0.7143
14200TIP3    H164015   4.717   2.289   2.182  0.4239 -0.4562  1.7589
14200TIP3    H264016   4.764   2.206   2.064 -0.0456  1.1930  0.3802
14201TIP3   OH264017   3.199   2.300   5.394  0.1015 -0.6209  0.4808
14201TIP3    H164018   3.192   2.225   5.335  0.0588  0.3707 -0.8246
14201TIP3    H264019   3.268   2.354   5.356  1.5347 -0.9196  2.4955
14202TIP3   OH264020   0.759   1.938  11.730  0.4970 -0.0298 -0.1691
14202TIP3    H164021   0.830   1.874  11.723 -0.0095 -0.5383 -0.7133
14202TIP3    H264022   0.785   2.009  11.672 -0.4279 -1.1691 -2.0859
14203TIP3   OH264023   6.053   6.361   5.253  0.4249  0.0961  0.6401
14203TIP3    H164024   5.983   6.317   5.206  0.3333  1.1798 -0.2654
14203TIP3    H264025   6.078   6.299   5.322 -0.6744 -0.7473  0.3042
14204TIP3   OH264026   3.841   0.608   1.887 -0.0954 -0.4767 -0.5442
14204TIP3    H164027   3.792   0.675   1.840 -0.2836  1.1712  1.8344
14204TIP3    H264028   3.778   0.571   1.948  0.5989 -1.2706 -0.3006
14205TIP3   OH264029   1.187   5.512   3.883 -0.4415  0.0557 -0.6658
14205TIP3    H164030   1.269   5.525   3.931  0.8823 -0.6642 -2.6449
14205TIP3    H264031   1.121   5.499   3.952  1.0866  0.6085  0.9658
14206TIP3   OH264032   6.736   5.281   1.395 -0.2258  0.3157  0.2793
14206TIP3    H164033   6.727   5.315   1.306 -0.5183  1.8841  0.8885
14206TIP3    H264034   6.657   5.228   1.409 -0.1158 -0.0496 -0.4223
14207TIP3   OH264035   2.238   6.081  15.995 -0.2830 -0.6486  0.1006
14207TIP3    H164036   2.193   6.116  15.918  0.3442  0.1073  0.0628
14207TIP3    H264037   2.218   5.988  15.994 -0.0518 -0.7091 -1.1525
14208TIP3   OH264038   0.155   2.670   3.147  0.1037  0.1070 -0.3281
14208TIP3    H164039   0.141   2.752   3.195 -0.3007 -0.6331  0.8629
14208TIP3    H264040   0.114   2.603   3.202  1.0470 -0.9935 -0.9349
14209TIP3   OH264041   5.897   1.342  16.903  0.5675  0.1852  0.2652
14209TIP3    H164042   5.846   1.272  16.861  0.6562  0.8897 -1.0458
14209TIP3    H264043   5.835   1.384  16.962  0.0558  0.0413 -0.1631
14210TIP3   OH264044   0.757   1.345   4.754 -0.4514 -0.4609 -0.8983
14210TIP3    H164045   0.792   1.261   4.784 -1.6872 -0.1318  1.7050
14210TIP3    H264046   0.803   1.410   4.807 -2.4016  0.1834  0.0950
14211TIP3   OH264047   3.763   3.668  13.778  0.1060  0.2268  0.0288
14211TIP3    H164048   3.798   3.693  13.693 -0.3021 -0.3219 -0.3058
14211TIP3    H264049   3.714   3.588  13.762  0.5056 -0.2103  0.8901
14212TIP3   OH264050   5.435   2.085   0.685  0.0213  0.6259 -0.1111
14212TIP3    H164051   5.403   2.092   0.595 -0.7542  2.1356  0.2503
14212TIP3    H264052   5.495   2.159   0.695 -2.1569  2.3349  1.4602
14213TIP3   OH264053   5.370   5.933  17.192 -0.3444  0.2129  0.6729
14213TIP3    H164054   5.301   5.978  17.240 -0.5391 -0.2645  0.8471
14213TIP3    H264055   5.371   5.845  17.229  0.0813  0.0963  0.3875
14214TIP3   OH264056   4.457   3.863  11.444  0.4603 -0.1284 -0.6118
14214TIP3    H164057   4.530   3.816  11.403 -1.3021 -1.8380 -1.9675
14214TIP3    H264058   4.499   3.930  11.498  2.9957 -0.2227 -2.3015
14215TIP3   OH264059   4.677   1.583  17.207 -0.2443  0.1956  0.4071
14215TIP3    H164060   4.624   1.538  17.273  0.7505 -1.2402  0.2717
14215TIP3    H264061   4.764   1.589  17.246 -0.0320  0.8061 -0.1351
14216TIP3   OH264062   3.729   1.854  11.136 -0.2219  0.2669  0.3361
14216TIP3    H164063   3.660   1.897  11.086 -0.1809  1.1030  0.9774
14216TIP3    H264064   3.696   1.766  11.152  0.0547 -0.2809 -1.7414
14217TIP3   OH264065   5.601   0.316  13.795 -0.2035 -0.1338  0.1889
14217TIP3    H164066   5.532   0.263  13.754 -1.4986 -0.3105  2.4660
14217TIP3    H264067   5.573   0.326  13.886  2.5624  0.2009  1.0867
14218TIP3   OH264068   0.678   3.757  15.721  0.5978  0.5716 -0.0784
14218TIP3    H164069   0.620   3.808  15.777 -0.0901 -1.5554  1.2347
14218TIP3    H264070   0.753   3.815  15.704 -0.9439  2.6250 -0.1528
14219TIP3   OH264071   1.109   4.095  12.317 -0.6546 -0.7202  0.5458
14219TIP3    H164072   1.176   4.156  12.286 -1.2046 -0.4137 -0.0619
14219TIP3    H264073   1.157   4.031  12.369  0.1628 -0.7379 -0.2164
14220TIP3   OH264074   3.928   0.592   0.514  0.1753 -0.4125  0.5714
14220TIP3    H164075   3.905   0.677   0.551  0.3685  0.3100 -0.8949
14220TIP3    H264076   4.016   0.604   0.478  0.1622 -1.1966  0.2506
14221TIP3   OH264077   5.763   2.225   2.953  0.4774  0.8075 -0.5692
14221TIP3    H164078   5.706   2.282   2.901 -1.8551 -0.6920  0.1476
14221TIP3    H264079   5.738   2.136   2.926  1.0059  0.0570  1.2726
14222TIP3   OH264080   1.437   6.427  15.338 -0.5135  0.7138  0.2108
14222TIP3    H164081   1.452   6.423  15.433  0.8387 -0.5782 -0.0170
14222TIP3    H264082   1.498   6.495  15.308 -0.6392  0.8274  0.2112
14223TIP3   OH264083   5.558   4.015  11.189 -0.4137 -0.4515 -0.1113
14223TIP3    H164084   5.590   4.101  11.162  0.3233 -0.0324  1.9262
14223TIP3    H264085   5.490   4.034  11.254  0.4816 -1.3836  1.1415
14224TIP3   OH264086   0.075   5.043  12.711 -0.0554 -0.0977 -0.0272
14224TIP3    H164087   0.077   4.996  12.628  0.1371 -1.0168  0.4834
14224TIP3    H264088   0.132   4.993  12.769  0.1036  0.7345  0.5632
14225TIP3   OH264089   2.277   2.833   3.588 -0.3192  0.0954 -0.0407
14225TIP3    H164090   2.342   2.773   3.625  1.0682  1.6589  0.1915
14225TIP3    H264091   2.274   2.811   3.495  1.0903  0.4348 -0.1879
14226TIP3   OH264092   3.862   0.877  15.827 -0.0698 -0.7251 -0.1576
14226TIP3    H164093   3.834   0.886  15.918 -1.3684  1.2719 -0.7079
14226TIP3    H264094   3.786   0.841  15.782 -0.2383  0.4198 -0.8304
14227TIP3   OH264095   1.307   4.959   0.814 -0.3526  0.8633  0.8325
14227TIP3    H164096   1.266   4.951   0.728  0.2098 -2.7334  0.7788
14227TIP3    H264097   1.387   5.010   0.797 -0.7802  1.1336 -0.5256
14228TIP3   OH264098   3.149   0.752  16.502 -0.2937  0.4180 -0.0953
14228TIP3    H164099   3.136   0.749  16.407  1.5972 -0.1526 -0.3864
14228TIP3    H264100   3.181   0.841  16.518 -2.0285  1.0227  0.2695
14229TIP3   OH264101   6.651   1.745  15.398 -0.0719  0.3115  0.0730
14229TIP3    H164102   6.646   1.816  15.462  0.1561  0.3684  0.0252
14229TIP3    H264103   6.612   1.781  15.318 -3.4745 -0.7443  1.0528
14230TIP3   OH264104   1.859   1.638  11.589 -0.4332 -0.3656 -0.2379
14230TIP3    H164105   1.821   1.645  11.677  0.0541 -2.0112  0.1431
14230TIP3    H264106   1.828   1.554  11.556  0.2313 -0.2399 -1.2280
14231TIP3   OH264107   1.825   0.385  14.616  0.8397 -0.2609 -0.3288
14231TIP3    H164108   1.827   0.472  14.655  1.8820 -0.2572 -0.3553
14231TIP3    H264109   1.752   0.341  14.659  0.5291  0.5103 -0.0621
14232TIP3   OH264110   4.521   0.955  13.416 -0.1814  0.4941  0.2945
14232TIP3    H164111   4.545   0.912  13.334  0.0602 -0.2794  0.7601
14232TIP3    H264112   4.425   0.956  13.417 -0.1924  1.2807 -0.3840
14233TIP3   OH264113   0.347   5.933   2.065 -1.1231  0.1640 -0.0005
14233TIP3    H164114   0.356   5.965   1.975 -0.5584 -0.6896 -0.2569
14233TIP3    H264115   0.360   5.839   2.058 -0.7494  0.1348  1.0283
14234TIP3   OH264116   1.359   4.252   2.296  0.1179 -0.5374  1.0941
14234TIP3    H164117   1.329   4.291   2.378 -0.0091  0.4366  0.5940
14234TIP3    H264118   1.365   4.325   2.235 -3.5126 -1.6258 -0.8921
14235TIP3   OH264119   1.941   0.051  12.537  0.0620 -0.4928 -0.2203
14235TIP3    H164120   1.999   0.079  12.608 -0.2594  0.2190 -0.2308
14235TIP3    H264121   2.001   0.016  12.471  0.7942  2.3620 -1.2568
14236TIP3   OH264122   6.304   0.827   4.114 -0.3663  0.5186  0.3744
14236TIP3    H164123   6.343   0.740   4.126 -0.8451  0.3237  0.5158
14236TIP3    H264124   6.363   0.871   4.053  0.0284  0.1907  0.5170
14237TIP3   OH264125   1.882   0.341   3.281  0.0625 -0.3305 -0.5586
14237TIP3    H164126   1.949   0.378   3.339  0.0176  1.8812 -1.7720
14237TIP3    H264127   1.800   0.381   3.312 -0.2982 -0.9496 -0.7151
14238TIP3   OH264128   6.061   4.603  15.009 -0.1934  0.3781  0.2583
14238TIP3    H164129   6.145   4.642  14.986 -0.0024 -0.8685 -1.3325
14238TIP3    H264130   5.999   4.641  14.946 -0.7880  1.0487  1.2159
14239TIP3   OH264131   2.690   2.373  13.806 -0.2538  0.3949  0.0760
14239TIP3    H164132   2.702   2.407  13.894  2.2840 -1.8762  0.7641
14239TIP3    H264133   2.648   2.288  13.819 -1.3562  0.7327 -1.0863
14240TIP3   OH264134   5.263   5.340   6.457 -0.2740 -0.2242 -0.4822
14240TIP3    H164135   5.352   5.329   6.492  0.0838  0.3567 -1.1833
14240TIP3    H264136   5.260   5.431   6.428 -1.5704  0.1822  0.8125
14241TIP3   OH264137   2.570   0.351   6.189 -0.6244  0.4825  0.0468
14241TIP3    H164138   2.505   0.349   6.259 -0.3123  0.5384  0.3404
14241TIP3    H264139   2.646   0.305   6.225 -0.9714 -0.8062 -0.7776
14242TIP3   OH264140   3.463   5.668   0.822 -0.1334  0.1985  0.7182
14242TIP3    H164141   3.461   5.573   0.823  0.3156  0.1684 -0.1823
14242TIP3    H264142   3.397   5.694   0.886  0.0170 -0.7132  1.2577
14243TIP3   OH264143   6.058   3.864  16.108  0.2036 -0.1561  0.3267
14243TIP3    H164144   5.993   3.932  16.094  0.1929 -0.1367  0.4761
14243TIP3    H264145   6.072   3.827  16.021 -0.9547 -1.0220  0.4842
14244TIP3   OH264146   2.635   3.214   1.822 -0.2286 -0.0175 -0.0047
14244TIP3    H164147   2.688   3.293   1.826  0.9647 -0.8319  2.9743
14244TIP3    H264148   2.657   3.174   1.738  2.2098  0.8282  0.1511
14245TIP3   OH264149   3.549   2.294  17.153  0.0085  0.0558  0.7210
14245TIP3    H164150   3.625   2.308  17.209  1.2900 -0.4124 -0.8385
14245TIP3    H264151   3.543   2.375  17.101  1.0049 -0.8750 -0.9123
14246TIP3   OH264152   3.449   2.674  17.278  0.5355 -0.3778 -0.1469
14246TIP3    H164153   3.467   2.698  17.369 -1.4896  0.3996  0.0874
14246TIP3    H264154   3.416   2.584  17.283  0.6561 -0.4234 -0.1519
14247TIP3   OH264155   3.427   6.109  16.547  0.4973  0.2917 -0.3223
14247TIP3    H164156   3.449   6.147  16.632  0.7056  0.2227 -0.3465
14247TIP3    H264157   3.423   6.184  16.488  1.3446  0.2303 -0.4640
14248TIP3   OH264158   4.368   0.204   4.382  0.4188 -0.0520 -0.1449
14248TIP3    H164159   4.342   0.292   4.353  1.6902  0.7751  1.0622
14248TIP3    H264160   4.421   0.170   4.310 -0.4264 -0.0271 -0.8007
14249TIP3   OH264161   2.947   4.040   4.784 -1.0498 -0.1068  0.3567
14249TIP3    H164162   3.024   3.995   4.818  0.4870  1.1213 -1.3029
14249TIP3    H264163   2.911   4.087   4.860 -1.4749 -2.3769  1.6267
14250TIP3   OH264164   6.693   2.833  15.850  0.4977 -0.0251  0.5457
14250TIP3    H164165   6.775   2.865  15.886  0.4691  0.6963 -0.0130
14250TIP3    H264166   6.700   2.738  15.853  2.2833 -0.0395 -1.5304
14251TIP3   OH264167   5.942   0.294   4.350  0.0355  0.0042  0.0792
14251TIP3    H164168   5.997   0.217   4.332 -0.1963 -0.3418  0.8136
14251TIP3    H264169   6.002   0.358   4.389 -0.1468 -0.5520  1.3379
14252TIP3   OH264170   0.405   4.185  13.262 -0.3971  0.1131 -0.1313
14252TIP3    H164171   0.463   4.212  13.191 -0.5314 -1.9895 -1.0855
14252TIP3    H264172   0.425   4.247  13.333  1.8382  0.4518 -0.9758
14253TIP3   OH264173   6.500   5.562   1.511  0.2057 -0.2238  0.6765
14253TIP3    H164174   6.563   5.524   1.450 -0.4107  0.7896 -0.6580
14253TIP3    H264175   6.441   5.489   1.533 -1.4722 -0.0275 -2.4894
14254TIP3   OH264176   0.318   0.787  16.177 -0.5689  0.3490  0.0495
14254TIP3    H164177   0.232   0.800  16.216 -0.2119  1.5641  0.4788
14254TIP3    H264178   0.372   0.857  16.214  1.0451 -1.3545  1.0460
14255TIP3   OH264179   1.745   3.950   1.388  0.4376 -0.8638 -0.3769
14255TIP3    H164180   1.652   3.933   1.375  0.1289  0.4730 -0.0685
14255TIP3    H264181   1.788   3.911   1.312 -0.4432 -0.9175 -0.8585
14256TIP3   OH264182   1.317   6.709   4.506 -0.3625  0.0732 -0.1749
14256TIP3    H164183   1.372   6.787   4.518 -1.6626  0.8677  0.7789
14256TIP3    H264184   1.258   6.709   4.581 -1.9633 -0.5003 -1.3696
14257TIP3   OH264185   0.453   6.235  11.813  0.0891 -0.0005 -0.3688
14257TIP3    H164186   0.511   6.291  11.865  1.2847 -0.3021 -1.3349
14257TIP3    H264187   0.389   6.296  11.775 -0.6985  0.2484  1.2653
14258TIP3   OH264188   3.746   4.846  16.303  0.0594  0.1679 -0.2847
14258TIP3    H164189   3.661   4.802  16.313  0.6428 -1.5252 -2.2398
14258TIP3    H264190   3.809   4.786  16.341  0.5692  0.7522 -0.1894
14259TIP3   OH264191   1.394   5.284   2.299  0.7107 -0.3622  0.5101
14259TIP3    H164192   1.419   5.315   2.386 -1.5341  0.4821  0.9277
14259TIP3    H264193   1.476   5.274   2.252  1.8368  1.3183  2.0140
14260TIP3   OH264194   0.472   2.247   3.623 -0.2589 -0.1583  0.1935
14260TIP3    H164195   0.444   2.159   3.599 -0.7084  0.4105 -1.4367
14260TIP3    H264196   0.567   2.240   3.629 -0.0148 -0.2279 -2.4730
14261TIP3   OH264197   1.575   2.219   3.201  0.0904  0.0084 -0.2934
14261TIP3    H164198   1.593   2.174   3.118  1.8515 -2.2526  1.1781
14261TIP3    H264199   1.496   2.175   3.235  0.5674 -0.5373  0.1425
14262TIP3   OH264200   1.417   4.974   3.892  0.1566 -0.5486  0.6520
14262TIP3    H164201   1.499   4.930   3.915  2.0026  2.1934 -0.0525
14262TIP3    H264202   1.372   4.988   3.975  1.0722 -0.9327  1.2221
14263TIP3   OH264203   0.403   1.263  14.710  0.0077  0.2355 -0.0427
14263TIP3    H164204   0.366   1.309  14.635 -1.5423  0.6146  0.9161
14263TIP3    H264205   0.336   1.269  14.778  0.6627 -1.5636  0.8369
14264TIP3   OH264206   5.882   0.883  14.810 -0.4578 -0.3373  0.7158
14264TIP3    H164207   5.891   0.839  14.726 -1.1622 -0.3956  0.6625
14264TIP3    H264208   5.971   0.902  14.837 -0.2648  0.4754 -0.4567
14265TIP3   OH264209   5.443   5.778   0.439 -0.7066  0.5542 -0.1735
14265TIP3    H164210   5.379   5.790   0.369 -1.6384  1.9264  0.8801
14265TIP3    H264211   5.511   5.722   0.400 -2.7357 -1.3450 -1.1874
14266TIP3   OH264212   6.203   0.191  16.758  0.0912  0.2294  0.2014
14266TIP3    H164213   6.227   0.277  16.793 -0.9252  1.8355 -2.6928
14266TIP3    H264214   6.165   0.144  16.832  0.7420  2.2278  1.8960
14267TIP3   OH264215   4.284   6.354  11.401  0.3640  0.1341  0.4956
14267TIP3    H164216   4.209   6.297  11.387  1.2884 -1.0915  0.3864
14267TIP3    H264217   4.264   6.401  11.482 -0.1852 -0.7372  0.8817
14268TIP3   OH264218   3.127   5.357   4.705  0.1877 -0.1548 -0.4590
14268TIP3    H164219   3.166   5.291   4.761  1.6153  0.3463 -0.8239
14268TIP3    H264220   3.069   5.307   4.647  0.6006 -0.9881 -0.1785
14269TIP3   OH264221   4.447   5.484   3.698 -0.3944 -0.4711 -0.0473
14269TIP3    H164222   4.530   5.499   3.652 -0.4793 -0.2886 -0.1411
14269TIP3    H264223   4.401   5.420   3.643 -0.7351  0.1692 -0.5145
14270TIP3   OH264224   6.026   2.708  11.081 -0.1709 -0.3129 -0.0283
14270TIP3    H164225   5.936   2.733  11.057 -0.3351 -0.8939 -0.0250
14270TIP3    H264226   6.036   2.619  11.048  0.7747  0.1351 -0.9681
14271TIP3   OH264227   0.416   3.263  11.653  0.4965  0.1066 -0.6438
14271TIP3    H164228   0.337   3.295  11.610  0.8091  1.9607  0.0657
14271TIP3    H264229   0.462   3.214  11.585 -1.2337 -1.0065 -1.0715
14272TIP3   OH264230   4.586   2.829   5.918 -0.0921 -0.1003  0.0564
14272TIP3    H164231   4.606   2.824   5.825  1.2758 -0.0084  0.3233
14272TIP3    H264232   4.574   2.738   5.946  2.1967 -0.3789  0.3117
14273TIP3   OH264233   4.565   6.624  14.446  0.2383  0.2598 -0.1514
14273TIP3    H164234   4.590   6.623  14.353  0.3650  0.5585 -0.1212
14273TIP3    H264235   4.544   6.533  14.466  1.4926 -0.0430 -0.1276
14274TIP3   OH264236   6.039   1.780   0.170  0.5528  0.5721 -0.7562
14274TIP3    H164237   6.037   1.754   0.262  0.8714 -0.4456 -1.0239
14274TIP3    H264238   6.097   1.857   0.168  0.5919  0.5654 -0.1233
14275TIP3   OH264239   6.200   3.353  15.357  0.3659 -0.1869  0.6292
14275TIP3    H164240   6.111   3.319  15.350  0.2126  0.2646  0.3397
14275TIP3    H264241   6.213   3.366  15.451  0.7759 -1.9279  0.8598
14276TIP3   OH264242   0.820   0.161  14.021 -0.7264  0.2649  0.2031
14276TIP3    H164243   0.769   0.163  13.940  0.2547 -0.3869 -0.4526
14276TIP3    H264244   0.755   0.165  14.091 -1.8771 -2.5798 -0.5572
14277TIP3   OH264245   1.551   2.914  13.933 -0.1342  0.3560  0.0158
14277TIP3    H164246   1.555   3.009  13.933  1.4532  0.3217 -0.7681
14277TIP3    H264247   1.636   2.886  13.901 -1.3680 -1.3016 -2.1102
14278TIP3   OH264248   3.799   0.843   3.037  0.3879 -0.2168 -0.0287
14278TIP3    H164249   3.718   0.804   3.069 -0.4224  1.3508 -0.0596
14278TIP3    H264250   3.826   0.902   3.107  1.0224 -0.0765 -0.3912
14279TIP3   OH264251   4.726   0.439   5.980 -0.3694  0.3474 -0.1501
14279TIP3    H164252   4.804   0.446   6.036 -1.7137 -1.2234  2.0675
14279TIP3    H264253   4.680   0.522   5.994 -0.6835 -0.0151  1.1668
14280TIP3   OH264254   1.683   2.242  13.121 -0.4600  0.4287 -0.1327
14280TIP3    H164255   1.655   2.250  13.030 -0.3342 -0.3544 -0.2533
14280TIP3    H264256   1.604   2.256  13.172 -0.8588 -0.6031 -0.4269
14281TIP3   OH264257   2.591   5.838   3.614 -0.0787  0.0162 -0.1771
14281TIP3    H164258   2.636   5.810   3.534 -0.5539 -1.0307 -0.0932
14281TIP3    H264259   2.636   5.918   3.640 -0.1264  0.5545 -1.6656
14282TIP3   OH264260   4.387   3.933   4.848 -0.8226 -0.7909  0.4747
14282TIP3    H164261   4.453   3.864   4.855  1.7399  1.1719 -2.1176
14282TIP3    H264262   4.330   3.904   4.777 -0.9285 -1.0705  0.6677
14283TIP3   OH264263   5.378   1.780  15.467 -0.2529 -0.0683 -0.4651
14283TIP3    H164264   5.448   1.842  15.446 -0.1204 -0.2801 -0.6604
14283TIP3    H264265   5.319   1.828  15.525  0.3960 -0.1002  0.2292
14284TIP3   OH264266   4.995   3.907   4.448  0.3578  0.1514  0.0988
14284TIP3    H164267   4.989   3.988   4.398 -0.2336  0.1967  0.2279
14284TIP3    H264268   5.018   3.934   4.536  0.9310  0.1102 -0.0339
14285TIP3   OH264269   4.274   3.537   5.127 -0.8323  0.3646 -0.6115
14285TIP3    H164270   4.276   3.446   5.156 -0.5658  0.5964  0.1274
14285TIP3    H264271   4.336   3.540   5.054  0.5181  0.3094  0.4783
14286TIP3   OH264272   0.742   6.149   3.821 -0.2458  1.0227 -0.3134
14286TIP3    H164273   0.806   6.219   3.811  1.5258 -0.0996  2.1860
14286TIP3    H264274   0.743   6.128   3.914  0.2204 -3.0722 -1.0250
14287TIP3   OH264275   0.656   3.880   2.859 -0.2034  0.1403  0.0207
14287TIP3    H164276   0.653   3.889   2.954  0.0539 -0.4164  0.0809
14287TIP3    H264277   0.573   3.839   2.836  0.0924 -0.5001  0.0901
14288TIP3   OH264278   1.465   1.347  11.378 -0.4781 -0.4899 -0.8495
14288TIP3    H164279   1.488   1.266  11.423 -1.3651  0.1740  0.9149
14288TIP3    H264280   1.372   1.360  11.397 -0.1497  1.3870 -0.2833
14289TIP3   OH264281   2.445   2.888   4.657 -1.0718 -0.1172 -0.1990
14289TIP3    H164282   2.388   2.857   4.586 -2.7168  2.0654  0.0659
14289TIP3    H264283   2.465   2.978   4.633  1.1579 -0.3807  0.4768
14290TIP3   OH264284   6.140   1.620   4.298  0.7074  0.5187  0.3572
14290TIP3    H164285   6.167   1.711   4.307 -1.3976  1.1340  0.8014
14290TIP3    H264286   6.045   1.623   4.291  0.6063 -1.6341  0.1385
14291TIP3   OH264287   6.644   0.045  16.433  0.2501 -0.4986 -0.1943
14291TIP3    H164288   6.553   0.016  16.432 -0.0784  0.4844 -0.3595
14291TIP3    H264289   6.662   0.066  16.525 -0.2757  1.0010 -0.4058
14292TIP3   OH264290   0.931   3.209   1.333 -0.1392  0.6581 -0.5235
14292TIP3    H164291   0.956   3.117   1.318  2.1071  0.9977  0.6777
14292TIP3    H264292   0.944   3.251   1.249  0.8632  0.2551 -0.5907
14293TIP3   OH264293   3.016   2.427  15.105  0.0442 -0.3783 -0.2604
14293TIP3    H164294   2.988   2.344  15.144 -0.1254 -0.6343 -0.9116
14293TIP3    H264295   3.016   2.489  15.178 -0.5090 -0.7875  0.0966
14294TIP3   OH264296   4.805   3.512   0.899  0.0201 -0.0803  0.5114
14294TIP3    H164297   4.782   3.435   0.847 -0.5359  1.0561 -0.9692
14294TIP3    H264298   4.876   3.482   0.956  0.2889 -1.4937 -0.5294
14295TIP3   OH264299   3.395   4.926   4.546  0.3221 -0.2640  0.1885
14295TIP3    H164300   3.410   4.934   4.640 -0.5698  0.3492  0.2889
14295TIP3    H264301   3.350   5.007   4.522  1.4094  0.0410 -0.9588
14296TIP3   OH264302   2.936   5.322  11.457  0.4497  0.6579  0.0090
14296TIP3    H164303   2.973   5.235  11.441 -0.8839  0.0197  0.1965
14296TIP3    H264304   2.931   5.329  11.552 -0.7171  0.3370 -0.0083
14297TIP3   OH264305   5.694   5.816  12.791 -0.9097 -0.3631  0.5027
14297TIP3    H164306   5.786   5.822  12.767 -1.0507  0.6599  0.1557
14297TIP3    H264307   5.670   5.904  12.818 -2.0399 -0.3671 -0.3871
14298TIP3   OH264308   6.424   6.689   5.463  0.0813  0.9908 -0.6137
14298TIP3    H164309   6.393   6.770   5.504  0.0305  1.4257 -1.4910
14298TIP3    H264310   6.357   6.624   5.485  1.2878  0.5339  2.1536
14299TIP3   OH264311   2.635   0.166  16.582  0.2146 -0.0527  0.2134
14299TIP3    H164312   2.730   0.182  16.581  0.2310 -0.0088  1.2616
14299TIP3    H264313   2.627   0.071  16.587  0.1548 -0.2307 -2.1399
14300TIP3   OH264314   1.411   3.926   4.932  0.0363  0.2586  0.0372
14300TIP3    H164315   1.391   3.895   5.020  0.0821 -0.1574 -0.0989
14300TIP3    H264316   1.504   3.906   4.920 -0.4962 -1.8555 -0.9836
14301TIP3   OH264317   3.487   4.562   0.014 -0.3937 -0.0839 -0.1412
14301TIP3    H164318   3.532   4.547  -0.069  0.1086 -1.0846  0.3034
14301TIP3    H264319   3.531   4.638   0.053  1.5917 -1.6116  0.7346
14302TIP3   OH264320   1.436   4.865  15.354 -0.1353  0.0827  0.0752
14302TIP3    H164321   1.352   4.900  15.324  0.9929  1.9238 -1.1320
14302TIP3    H264322   1.416   4.825  15.438 -2.3418 -0.1378 -0.4781
14303TIP3   OH264323   0.929   4.265  14.828  0.0997 -0.3098 -0.1169
14303TIP3    H164324   0.838   4.284  14.849  0.1003  0.9111 -1.1057
14303TIP3    H264325   0.968   4.237  14.911 -0.7984  0.6548  0.6487
14304TIP3   OH264326   1.115   0.608   3.557  0.0511  0.5507 -0.2368
14304TIP3    H164327   1.203   0.616   3.595  0.6165  2.3711 -1.7675
14304TIP3    H264328   1.067   0.683   3.593 -0.5749  0.1212 -0.1754
14305TIP3   OH264329   5.696   2.616   5.360  0.3205 -0.4902  0.1711
14305TIP3    H164330   5.778   2.655   5.330  0.3911 -1.4840 -1.0249
14305TIP3    H264331   5.633   2.688   5.356  0.9775  0.1056  0.4146
14306TIP3   OH264332   6.664   3.472   3.930 -0.1666 -0.0891 -0.6285
14306TIP3    H164333   6.731   3.538   3.941 -1.2522  0.6980  2.5383
14306TIP3    H264334   6.587   3.520   3.901 -0.7627  0.0259  1.0024
14307TIP3   OH264335   0.666   6.407  16.250  0.5759 -0.1318  0.2059
14307TIP3    H164336   0.601   6.344  16.281  0.9561 -1.4873 -1.5614
14307TIP3    H264337   0.698   6.370  16.167 -0.0604  2.9728 -1.5997
14308TIP3   OH264338   5.401   2.013   0.420  0.0320 -0.0666 -0.9946
14308TIP3    H164339   5.431   1.923   0.407  0.1432 -0.3694  0.9665
14308TIP3    H264340   5.307   2.011   0.402  0.5019  0.1521 -3.9192
14309TIP3   OH264341   6.681   1.103  14.055  0.5630 -0.0022 -0.0295
14309TIP3    H164342   6.771   1.136  14.052  0.3380  0.5179 -1.7683
14309TIP3    H264343   6.629   1.177  14.086  0.0297  1.5736 -4.1130
14310TIP3   OH264344   0.026   5.195  11.901  0.7647  0.2388 -0.0262
14310TIP3    H164345   0.027   5.284  11.866  0.7856 -0.0769 -0.8443
14310TIP3    H264346   0.106   5.190  11.953  2.7852 -0.4318 -2.9418
14311TIP3   OH264347   4.213   6.185  16.644  0.2222  0.0031  0.2264
14311TIP3    H164348   4.229   6.253  16.710 -1.4055  0.7763 -0.1257
14311TIP3    H264349   4.121   6.162  16.655  0.1841 -0.5908 -1.1255
14312TIP3   OH264350   1.923   2.907   4.916 -0.4106  0.4992 -0.1753
14312TIP3    H164351   1.875   2.833   4.952 -0.9309 -0.0431 -1.8743
14312TIP3    H264352   1.884   2.921   4.829  1.3046  1.1939 -0.8745
14313TIP3   OH264353   3.916   6.247  12.573  0.0947  0.2385  0.3614
14313TIP3    H164354   3.920   6.151  12.576 -2.2096  0.1067  2.8712
14313TIP3    H264355   4.007   6.275  12.586  0.6860 -1.6150  0.5422
14314TIP3   OH264356   1.372   4.688   0.424 -0.4378  0.2676 -0.1578
14314TIP3    H164357   1.328   4.773   0.432 -0.4793  0.2976 -0.6757
14314TIP3    H264358   1.348   4.657   0.336  1.9629  1.0677 -1.1602
14315TIP3   OH264359   4.086   0.001   0.584 -0.5610 -0.0801  0.2006
14315TIP3    H164360   4.133   0.083   0.569 -3.1732  1.4341 -0.2497
14315TIP3    H264361   4.099  -0.017   0.678  3.6702 -1.6701 -0.4882
14316TIP3   OH264362   4.051   6.359  13.253 -0.2519 -0.1911  0.1040
14316TIP3    H164363   3.969   6.343  13.299 -0.8928 -1.5670 -1.3997
14316TIP3    H264364   4.031   6.433  13.195 -0.5417 -0.6579 -0.4148
14317TIP3   OH264365   3.557   2.424   4.658  0.1693 -0.0537  0.3087
14317TIP3    H164366   3.569   2.506   4.610  0.4392 -0.0948  0.3063
14317TIP3    H264367   3.632   2.370   4.632  1.1690  0.4879  1.9683
14318TIP3   OH264368   6.591   6.770   1.123 -0.1476 -0.3643  0.0337
14318TIP3    H164369   6.585   6.691   1.070  0.8144  0.4333 -1.3273
14318TIP3    H264370   6.595   6.738   1.213 -2.5200 -1.7255 -0.2642
14319TIP3   OH264371   2.205   5.566  12.068 -0.1258 -0.1682 -0.2342
14319TIP3    H164372   2.296   5.597  12.065  0.1762 -1.0496 -0.4064
14319TIP3    H264373   2.167   5.610  12.144 -0.1604  1.8266 -1.3402
14320TIP3   OH264374   0.721   4.522   1.375 -1.0436 -0.4600  0.3451
14320TIP3    H164375   0.656   4.452   1.382 -0.1664 -1.2228  1.1613
14320TIP3    H264376   0.725   4.560   1.463  1.3652 -2.0779  1.0273
14321TIP3   OH264377   3.007   5.047   1.481 -0.1047 -0.0513  0.1717
14321TIP3    H164378   2.936   4.986   1.501 -0.0810 -0.4532 -0.8951
14321TIP3    H264379   2.968   5.110   1.420  0.5323 -0.4582 -0.6627
14322TIP3   OH264380   6.068   0.469  12.965 -0.2019 -0.2697  0.1947
14322TIP3    H164381   6.133   0.514  13.019 -1.3881  1.4198  0.2974
14322TIP3    H264382   6.100   0.379  12.958  1.3223  0.1308  1.5299
14323TIP3   OH264383   6.628   5.363  15.824 -0.9206 -0.2244  0.2950
14323TIP3    H164384   6.553   5.367  15.883  0.3271 -0.4955  1.9797
14323TIP3    H264385   6.699   5.329  15.878  0.9669  1.9535 -0.6242
14324TIP3   OH264386   2.428   5.331   0.811 -0.3252  0.3504  0.4676
14324TIP3    H164387   2.466   5.257   0.764 -1.2470  0.8880 -1.1857
14324TIP3    H264388   2.451   5.315   0.903  0.2357 -1.5153  0.0460
14325TIP3   OH264389   0.398   4.063   2.605 -0.2029 -0.0749 -0.2428
14325TIP3    H164390   0.476   4.032   2.559 -0.7149  1.6769 -2.4210
14325TIP3    H264391   0.327   4.007   2.574 -0.2566 -0.0517 -0.1632
14326TIP3   OH264392   6.508   0.417  16.481 -0.1237 -0.4671 -0.7374
14326TIP3    H164393   6.529   0.360  16.555  0.3740 -0.0371 -0.5428
14326TIP3    H264394   6.592   0.450  16.451 -0.5322  2.0480  0.6581
14327TIP3   OH264395   3.566   5.460  16.605 -0.8874  0.5685 -0.9774
14327TIP3    H164396   3.544   5.505  16.524  1.2235 -0.3363 -2.1385
14327TIP3    H264397   3.613   5.382  16.577 -0.8623 -0.2264  1.1096
14328TIP3   OH264398   4.044   1.179   0.451  0.3018 -0.4619  0.0222
14328TIP3    H164399   4.120   1.226   0.417 -0.2979  1.7068  1.4588
14328TIP3    H264400   3.992   1.246   0.496 -2.4302 -1.8609 -0.7786
14329TIP3   OH264401   4.014   0.392   1.822 -0.3123  0.2987  0.4687
14329TIP3    H164402   3.968   0.476   1.829 -2.2199 -0.6359  0.0272
14329TIP3    H264403   3.950   0.334   1.781  1.2910 -1.1362 -0.1031
14330TIP3   OH264404   4.529   3.174   3.948  0.4118 -0.0236 -0.1393
14330TIP3    H164405   4.530   3.267   3.926  0.6940  0.1780  0.6761
14330TIP3    H264406   4.524   3.172   4.044  0.2607 -0.8480 -0.1565
14331TIP3   OH264407   3.247   3.643  15.717 -0.2391  0.1524 -0.0916
14331TIP3    H164408   3.220   3.613  15.630  1.6286 -0.8986 -0.3791
14331TIP3    H264409   3.323   3.588  15.737  1.8563  3.0706  0.4755
14332TIP3   OH264410   5.730   0.411   2.124  0.3868  0.1989  0.4636
14332TIP3    H164411   5.714   0.345   2.057  0.9271 -0.4976  0.9978
14332TIP3    H264412   5.788   0.474   2.083  0.8637 -0.3229  0.3213
14333TIP3   OH264413   6.577   4.466   4.101  0.3101  0.3632  0.1800
14333TIP3    H164414   6.606   4.557   4.099 -1.7100  1.0375 -0.9643
14333TIP3    H264415   6.588   4.436   4.011 -1.4706  0.3446 -0.0690
14334TIP3   OH264416   2.514   5.993  16.552 -0.1783  0.3459  0.0598
14334TIP3    H164417   2.423   5.961  16.554 -0.1325  0.2100 -0.0052
14334TIP3    H264418   2.567   5.913  16.548 -0.0439  0.4154  0.4207
14335TIP3   OH264419   2.850   0.484   5.307 -0.0398 -0.1231  0.1640
14335TIP3    H164420   2.933   0.499   5.351 -0.4802 -1.4941  1.5658
14335TIP3    H264421   2.873   0.453   5.219  0.9421 -0.8213  0.6584
14336TIP3   OH264422   4.330   2.156  14.578  0.9697 -0.0078  0.0890
14336TIP3    H164423   4.294   2.180  14.493  0.4197  0.3942  0.4333
14336TIP3    H264424   4.414   2.203  14.583  0.7859  0.3379 -0.0393
14337TIP3   OH264425   1.990   2.669   4.596  0.3275  0.1935 -0.1624
14337TIP3    H164426   1.937   2.616   4.536  0.4092 -1.7649  1.3695
14337TIP3    H264427   2.067   2.614   4.614  1.1314  1.4573  0.4375
14338TIP3   OH264428   1.872   2.130  10.914  0.8491 -0.3236 -0.1999
14338TIP3    H164429   1.955   2.177  10.911  1.5150 -1.3398  1.1806
14338TIP3    H264430   1.806   2.200  10.917  1.7580  0.5453  0.8268
14339TIP3   OH264431   1.196   6.683   5.539  0.4402  0.2316 -0.3667
14339TIP3    H164432   1.215   6.617   5.605  0.1892  1.0262  0.5090
14339TIP3    H264433   1.199   6.766   5.585 -2.5829  0.6404 -0.6569
14340TIP3   OH264434   2.237   3.789  16.253  0.0952  0.2934  0.2424
14340TIP3    H164435   2.193   3.715  16.210 -1.2823  1.3668 -0.2601
14340TIP3    H264436   2.215   3.779  16.345  0.9535 -0.6019  0.3640
14341TIP3   OH264437   2.574   1.302  14.002 -0.4200  0.2894  0.1053
14341TIP3    H164438   2.578   1.208  14.022 -1.4803 -0.2029 -1.7642
14341TIP3    H264439   2.582   1.345  14.087  0.4010 -1.4804  0.9639
14342TIP3   OH264440   6.717   2.354   0.305 -0.5465 -0.5247 -0.8019
14342TIP3    H164441   6.769   2.409   0.246  0.1340 -2.4116 -2.0942
14342TIP3    H264442   6.644   2.324   0.251 -2.8447  1.6812  0.8480
14343TIP3   OH264443   3.842   4.608   1.851 -0.4278  0.1091  0.5112
14343TIP3    H164444   3.780   4.535   1.853  2.4353 -2.5367  0.4939
14343TIP3    H264445   3.907   4.583   1.786  0.1956  3.2178 -0.2349
14344TIP3   OH264446   0.224   1.806   1.430  0.3475  0.0451 -0.4370
14344TIP3    H164447   0.317   1.813   1.452  0.3864  1.9715 -1.0821
14344TIP3    H264448   0.224   1.783   1.337  0.1806  0.1167 -0.4540
14345TIP3   OH264449   4.876   2.486  13.317  0.4292  0.4188 -0.1848
14345TIP3    H164450   4.943   2.536  13.364  0.1825 -1.5013  2.4302
14345TIP3    H264451   4.926   2.433  13.255  1.0815  0.7634  0.0338
14346TIP3   OH264452   0.350   4.541   1.034  0.2711 -0.4540  0.3707
14346TIP3    H164453   0.305   4.592   1.101 -0.7579  0.7713 -1.2073
14346TIP3    H264454   0.434   4.586   1.021 -0.4370  0.6192 -0.6795
14347TIP3   OH264455   4.619   5.619  10.879  0.6934 -0.0410 -0.7694
14347TIP3    H164456   4.687   5.553  10.863 -0.7398 -2.2744  1.5619
14347TIP3    H264457   4.617   5.629  10.974  0.4036  3.0212 -0.9903
14348TIP3   OH264458   2.519   1.402   4.119  0.7713 -0.0806  0.2045
14348TIP3    H164459   2.471   1.458   4.180 -2.5563 -1.1362 -1.1980
14348TIP3    H264460   2.592   1.456   4.089 -1.2189  2.8907  0.2806
14349TIP3   OH264461   0.295   6.407   4.209 -0.4514 -0.1651 -0.2414
14349TIP3    H164462   0.267   6.338   4.148 -0.8804  0.4657 -0.7695
14349TIP3    H264463   0.389   6.415   4.194 -0.4854 -0.2913 -0.5360
14350TIP3   OH264464   1.699   5.861   1.058  0.1542 -0.3038 -0.4821
14350TIP3    H164465   1.637   5.793   1.033 -1.2366  0.5851  0.4126
14350TIP3    H264466   1.646   5.928   1.100  1.8112  0.1933  0.9622
14351TIP3   OH264467   2.459   5.150   0.315 -0.8340  0.1724  0.3089
14351TIP3    H164468   2.430   5.191   0.396 -0.5586  0.3747  0.3057
14351TIP3    H264469   2.377   5.127   0.269 -1.0891  2.9652 -0.8461
14352TIP3   OH264470   4.314   5.155  16.270 -0.0972  0.1528  0.4159
14352TIP3    H164471   4.234   5.208  16.273 -0.3674 -0.2694  0.7612
14352TIP3    H264472   4.288   5.076  16.223  0.0730 -0.0488  0.6567
14353TIP3   OH264473   4.711   0.877  14.483  0.6693  0.2335 -0.7933
14353TIP3    H164474   4.768   0.809  14.520  0.5469  0.6973  0.2970
14353TIP3    H264475   4.693   0.935  14.557 -1.3492  0.0141 -1.0594
14354TIP3   OH264476   2.371   5.938  16.241 -0.2231 -0.5403 -0.3523
14354TIP3    H164477   2.401   5.848  16.250 -0.1078 -0.6776 -1.8269
14354TIP3    H264478   2.307   5.949  16.311  0.3724 -1.4935  0.3682
14355TIP3   OH264479   5.465   0.134  16.586  0.1325  0.0698 -0.2464
14355TIP3    H164480   5.499   0.059  16.633 -1.5466  0.8354  2.3880
14355TIP3    H264481   5.534   0.156  16.523  1.3058 -2.6822 -0.0693
14356TIP3   OH264482   3.863   2.333   2.304 -0.7876  0.0907  0.2662
14356TIP3    H164483   3.863   2.406   2.242  0.1467  0.3431  0.5426
14356TIP3    H264484   3.771   2.311   2.315 -1.1061  1.3260  0.2779
14357TIP3   OH264485   4.167   1.450  12.784 -0.2615 -0.1617 -0.3830
14357TIP3    H164486   4.095   1.475  12.727 -0.1998 -0.3565 -0.5491
14357TIP3    H264487   4.166   1.354  12.783  0.4356 -0.1752 -0.9504
14358TIP3   OH264488   4.402   0.082  13.670 -0.9223  0.2064  0.6360
14358TIP3    H164489   4.459   0.137  13.724 -0.5101  0.9158 -0.4837
14358TIP3    H264490   4.462   0.025  13.623 -1.2273  0.0664  0.4165
14359TIP3   OH264491   1.358   5.994  13.441 -0.2859  0.4473  0.2039
14359TIP3    H164492   1.373   5.899  13.438 -0.9504  0.2883  1.3305
14359TIP3    H264493   1.407   6.023  13.519 -0.4410  0.9609  0.1122
14360TIP3   OH264494   1.761   1.758   3.100  0.6233  0.0340  0.1550
14360TIP3    H164495   1.851   1.736   3.073  0.7969 -0.2436  0.9222
14360TIP3    H264496   1.713   1.765   3.018  1.4611  0.7009 -0.3014
14361TIP3   OH264497   2.607   0.982  16.766 -0.4316  0.7105 -0.5049
14361TIP3    H164498   2.595   0.962  16.673 -1.0211  0.0482 -0.3017
14361TIP3    H264499   2.537   0.933  16.809  0.6727 -0.1060  0.4174
14362TIP3   OH264500   2.777   3.472  13.652  0.4443 -0.2015  0.1046
14362TIP3    H164501   2.683   3.454  13.656 -0.1081  2.3709  1.1659
14362TIP3    H264502   2.814   3.400  13.601 -1.6657 -2.7645  1.9338
14363TIP3   OH264503   1.755   2.850  13.755 -0.2350 -0.3308  0.2280
14363TIP3    H164504   1.820   2.920  13.751  0.3399 -0.8162  0.7704
14363TIP3    H264505   1.711   2.853  13.670  2.4508 -1.8545 -1.3564
14364TIP3   OH264506   1.592   1.803   5.112  0.5947 -0.2249  0.3929
14364TIP3    H164507   1.659   1.734   5.109 -0.0934 -0.9353  1.0054
14364TIP3    H264508   1.597   1.836   5.202 -1.2718 -1.7290  1.1143
14365TIP3   OH264509   6.534   3.893  14.216  0.0716 -0.4365 -0.0570
14365TIP3    H164510   6.522   3.832  14.288 -2.0497  1.0371  0.9472
14365TIP3    H264511   6.453   3.887  14.165  0.7182 -0.0105 -1.1780
14366TIP3   OH264512   2.323   0.047  16.075 -0.4343  0.8986  0.2884
14366TIP3    H164513   2.337   0.139  16.054  0.5846  0.4056 -1.3588
14366TIP3    H264514   2.241   0.024  16.030 -0.0130  0.6913 -0.3868
14367TIP3   OH264515   6.394   1.526   6.273  0.2942  0.5505  0.2100
14367TIP3    H164516   6.477   1.505   6.316  0.7994 -0.2253 -1.0841
14367TIP3    H264517   6.338   1.451   6.291  0.1245  0.7404  0.4685
14368TIP3   OH264518   3.297   5.907  11.183 -0.3279 -0.4880 -0.3269
14368TIP3    H164519   3.365   5.892  11.117  0.4373  2.2861 -0.2797
14368TIP3    H264520   3.250   5.985  11.153 -1.1706 -0.2415  1.4714
14369TIP3   OH264521   2.493   5.292   2.689  0.6155  0.4359  0.4245
14369TIP3    H164522   2.398   5.301   2.682  0.4766 -1.3965 -1.0112
14369TIP3    H264523   2.510   5.293   2.783 -1.2387 -2.1262  0.9130
14370TIP3   OH264524   0.634   2.505  14.346  0.2177 -0.0130 -0.4211
14370TIP3    H164525   0.655   2.411  14.352 -0.4183 -0.0565  2.5995
14370TIP3    H264526   0.705   2.548  14.393 -0.5713  0.8188  0.0235
14371TIP3   OH264527   0.794   2.520   4.935  0.2749  0.5090  0.2461
14371TIP3    H164528   0.736   2.445   4.923  0.3237  0.4829  0.1716
14371TIP3    H264529   0.860   2.511   4.866  0.4359  0.4721  0.4017
14372TIP3   OH264530   2.612   0.923  13.289 -0.4357 -0.1630  0.5097
14372TIP3    H164531   2.645   1.012  13.300 -1.9666  0.7624 -1.5067
14372TIP3    H264532   2.689   0.871  13.267  0.1575  1.2814 -1.0526
14373TIP3   OH264533   5.098   2.327  11.560  0.5265 -0.4379 -0.2039
14373TIP3    H164534   5.182   2.358  11.594 -0.4814 -0.1233  2.2644
14373TIP3    H264535   5.083   2.378  11.481  1.9358  0.6690  0.2076
14374TIP3   OH264536   0.347   1.180  12.505 -0.0674 -0.1762 -0.3728
14374TIP3    H164537   0.276   1.118  12.488 -2.8263  2.4365  0.8278
14374TIP3    H264538   0.389   1.147  12.585 -0.1190 -1.5345 -0.8728
14375TIP3   OH264539   0.176   0.586   4.517  0.1252 -0.1727  0.2779
14375TIP3    H164540   0.237   0.590   4.442 -1.1700 -0.5211 -0.8331
14375TIP3    H264541   0.206   0.655   4.576  0.6900  0.6583 -0.9399
14376TIP3   OH264542   0.832   4.555  13.255 -0.1483 -0.1364 -0.3082
14376TIP3    H164543   0.801   4.645  13.266  0.3684 -0.0805  0.7811
14376TIP3    H264544   0.789   4.506  13.325  2.4179  0.0083  1.4982
14377TIP3   OH264545   5.814   0.527   3.751  0.1367 -0.0750  0.0556
14377TIP3    H164546   5.823   0.437   3.722  2.1885  0.2772 -0.5993
14377TIP3    H264547   5.735   0.559   3.707 -0.0002 -1.2209 -0.5629
14378TIP3   OH264548   5.668   3.796  15.917  0.4848 -0.2087 -0.4535
14378TIP3    H164549   5.683   3.704  15.895 -1.7485 -0.8735  0.5199
14378TIP3    H264550   5.585   3.818  15.875 -1.5827 -0.1877  3.2541
14379TIP3   OH264551   6.622   5.833   6.200  0.2725  0.0933  0.3333
14379TIP3    H164552   6.549   5.877   6.243  0.9909  0.3281  1.3609
14379TIP3    H264553   6.692   5.898   6.198  0.8968 -0.5518  0.6239
14380TIP3   OH264554   3.162   5.413   2.822 -0.4685 -0.1923  0.5122
14380TIP3    H164555   3.246   5.457   2.807 -0.4748 -0.6071 -0.7866
14380TIP3    H264556   3.170   5.377   2.911  0.8677 -0.5232  0.2761
14381TIP3   OH264557   1.317   1.095  13.407  0.7453 -0.9188 -0.5466
14381TIP3    H164558   1.357   1.149  13.475  2.4505 -0.2342 -2.0064
14381TIP3    H264559   1.240   1.144  13.379  0.7605 -0.5804  0.0008
14382TIP3   OH264560   3.926   0.648   5.865  0.6346  0.8791  0.0468
14382TIP3    H164561   3.934   0.707   5.789  0.1180 -0.4024 -1.0428
14382TIP3    H264562   3.992   0.581   5.850  0.8094  0.8347  0.9727
14383TIP3   OH264563   6.262   5.038   4.046  0.2645  0.0870 -0.2576
14383TIP3    H164564   6.260   4.978   4.121 -2.3541  0.3167 -0.0528
14383TIP3    H264565   6.290   4.984   3.973  1.4971 -0.4754  0.5873
14384TIP3   OH264566   3.196   5.819  15.590  0.0784 -0.2121 -0.3193
14384TIP3    H164567   3.134   5.753  15.619  0.3319 -1.2675 -2.0004
14384TIP3    H264568   3.154   5.902  15.610 -0.6849 -0.8745  0.9700
14385TIP3   OH264569   3.852   2.771   5.760 -0.4315 -0.0831  0.1169
14385TIP3    H164570   3.864   2.801   5.850  1.6203 -0.2546 -0.0559
14385TIP3    H264571   3.941   2.752   5.729 -1.2909 -3.0558 -0.9043
14386TIP3   OH264572   4.473   5.283  14.788 -0.8731 -0.2819  0.3017
14386TIP3    H164573   4.444   5.250  14.873 -2.5887 -0.2189 -0.2122
14386TIP3    H264574   4.566   5.302  14.800 -1.0024 -0.5603  2.0619
14387TIP3   OH264575   5.836   4.250  17.038  0.3079 -0.2476 -0.5263
14387TIP3    H164576   5.776   4.265  16.965  0.6487 -0.2591 -0.8111
14387TIP3    H264577   5.779   4.225  17.111 -0.0797  0.3493 -0.6234
14388TIP3   OH264578   1.824   3.331  16.350 -0.8521  0.8490 -0.4783
14388TIP3    H164579   1.864   3.257  16.395 -2.3268 -0.5126 -1.2904
14388TIP3    H264580   1.795   3.295  16.266 -0.9948  2.5327 -1.1847
14389TIP3   OH264581   5.801   6.478  15.853 -0.1087 -0.8691  0.0247
14389TIP3    H164582   5.888   6.516  15.850  0.2535 -1.5758  1.2436
14389TIP3    H264583   5.788   6.441  15.765  0.1189  0.7033 -0.6997
14390TIP3   OH264584   0.682   3.098  13.934 -0.0483 -0.2143 -0.4176
14390TIP3    H164585   0.654   3.158  13.865 -1.0619 -0.4428 -0.2193
14390TIP3    H264586   0.635   3.127  14.012 -0.7286 -1.3892 -0.3687
14391TIP3   OH264587   5.254   4.965   5.679 -0.3095 -0.6081  0.1214
14391TIP3    H164588   5.262   4.960   5.584  0.1336  1.4899 -0.0187
14391TIP3    H264589   5.260   4.875   5.709  0.5296 -1.2386 -1.7818
14392TIP3   OH264590   3.726   4.482  15.411  0.5030 -0.4314  0.4899
14392TIP3    H164591   3.656   4.546  15.420 -0.0431 -0.2558 -3.4290
14392TIP3    H264592   3.807   4.533  15.416  0.1193  0.3595 -0.9635
14393TIP3   OH264593   1.858   6.079   0.955  0.3212  0.0121 -0.1416
14393TIP3    H164594   1.784   6.139   0.958  0.7023  0.5507 -1.1068
14393TIP3    H264595   1.822   5.995   0.983 -0.7157  0.1992 -0.8717
14394TIP3   OH264596   5.813   0.706   5.003  0.3257  0.3107  0.3180
14394TIP3    H164597   5.834   0.799   5.015  0.6320  0.0488  2.1838
14394TIP3    H264598   5.729   0.695   5.048  0.7633 -0.4899  0.9756
14395TIP3   OH264599   6.570   3.850  10.861  0.1480 -0.4564 -0.2187
14395TIP3    H164600   6.499   3.805  10.815  0.0496 -1.3193  0.7528
14395TIP3    H264601   6.611   3.783  10.915  1.4738  0.1169 -0.4672
14396TIP3   OH264602   0.882   2.078   4.619 -0.1390 -0.2622  0.2241
14396TIP3    H164603   0.875   2.035   4.705  1.7565  0.6033  0.8668
14396TIP3    H264604   0.947   2.026   4.572 -0.3337 -0.0592 -0.2707
14397TIP3   OH264605   1.560   0.430  10.478  0.9574 -0.5392 -1.0229
14397TIP3    H164606   1.489   0.471  10.430  0.3779 -1.0555 -0.6184
14397TIP3    H264607   1.591   0.360  10.421 -0.1875 -1.5988 -0.3798
14398TIP3   OH264608   1.310   4.097  16.682 -0.4756  0.1556 -0.0713
14398TIP3    H164609   1.262   4.179  16.666  0.8504  0.9592 -0.0508
14398TIP3    H264610   1.337   4.068  16.595 -1.4904 -0.6343 -0.1470
14399TIP3   OH264611   4.625   5.376  11.637 -0.0537 -0.1855  0.3196
14399TIP3    H164612   4.572   5.328  11.573 -0.7261 -0.5030  1.1027
14399TIP3    H264613   4.715   5.355  11.614 -0.3282 -1.6210  0.4765
14400TIP3   OH264614   0.523   6.753  14.428 -0.4662 -0.5327  0.1086
14400TIP3    H164615   0.447   6.712  14.469 -0.2982 -0.6204  0.3334
14400TIP3    H264616   0.589   6.684  14.423 -0.7272 -0.7195 -0.9609
14401TIP3   OH264617   4.396   5.857  11.345  0.3095  0.0709 -0.3852
14401TIP3    H164618   4.309   5.894  11.359  0.0762 -0.1433 -1.2081
14401TIP3    H264619   4.447   5.928  11.305  0.0408 -0.2734 -1.3819
14402TIP3   OH264620   0.587   1.173   1.427 -0.0696 -0.6590  0.3093
14402TIP3    H164621   0.542   1.179   1.342 -0.1283  1.3323  0.4477
14402TIP3    H264622   0.672   1.135   1.405  0.3117  0.7553 -0.8368
14403TIP3   OH264623   2.956   2.449   5.372 -0.1999 -0.5678  0.2430
14403TIP3    H164624   2.956   2.526   5.428  0.5894  0.3411 -0.9431
14403TIP3    H264625   3.043   2.411   5.383 -0.8766 -1.8543  1.5049
14404TIP3   OH264626   4.302   5.824   2.058  0.0005  0.1546  0.0755
14404TIP3    H164627   4.395   5.811   2.078  0.0276  0.7324  0.3716
14404TIP3    H264628   4.280   5.755   1.996  0.5127 -0.2721  0.3619
14405TIP3   OH264629   5.733   0.679  13.534 -0.7966 -0.3295 -0.1151
14405TIP3    H164630   5.665   0.632  13.487 -1.8663  0.2192  0.8469
14405TIP3    H264631   5.703   0.682  13.625  1.8283 -2.4920  0.9672
14406TIP3   OH264632   2.413   3.499   6.042  0.3238 -0.3722 -0.0092
14406TIP3    H164633   2.337   3.444   6.058  0.9059 -0.8367  1.2314
14406TIP3    H264634   2.453   3.462   5.963 -0.6180 -0.2216 -0.5820
14407TIP3   OH264635   0.211   0.110  14.474 -0.0302 -0.4660  0.0847
14407TIP3    H164636   0.273   0.138  14.542 -1.1958  0.9792  0.6046
14407TIP3    H264637   0.182   0.191  14.433 -2.4636 -0.9534  0.6723
14408TIP3   OH264638   2.159   0.495  12.984 -0.4621 -0.2554  0.3047
14408TIP3    H164639   2.190   0.511  13.073  1.9403 -0.9613 -0.3402
14408TIP3    H264640   2.085   0.556  12.974  1.3263  2.3467  1.6479
14409TIP3   OH264641   2.538   1.053   2.682  0.0997 -0.3873  0.1903
14409TIP3    H164642   2.514   0.992   2.753  0.5431 -1.5390 -0.6233
14409TIP3    H264643   2.547   0.997   2.605  2.4777  0.4252 -0.1791
14410TIP3   OH264644   6.243   2.065   4.572 -0.2954 -0.6975 -0.2408
14410TIP3    H164645   6.207   2.037   4.656 -0.9184  2.2161  0.5867
14410TIP3    H264646   6.221   2.158   4.566  0.5452 -0.5780 -3.2360
14411TIP3   OH264647   5.931   2.873  16.632 -0.5647  0.4175 -0.4816
14411TIP3    H164648   5.890   2.788  16.649  1.8918 -0.5180  1.5112
14411TIP3    H264649   5.965   2.867  16.543 -0.4855 -0.6996 -0.3911
14412TIP3   OH264650   0.343   3.270   2.317  0.0938  0.2671  0.3467
14412TIP3    H164651   0.298   3.352   2.340  2.3226  1.5729  0.3847
14412TIP3    H264652   0.345   3.271   2.221 -2.6975 -1.4564  0.1628
14413TIP3   OH264653   6.647   5.072   4.174  0.3313  0.4900  0.4889
14413TIP3    H164654   6.721   5.133   4.166  1.6382 -1.1877 -1.1113
14413TIP3    H264655   6.680   5.000   4.227 -0.7078  0.4517  1.1143
14414TIP3   OH264656   3.058   0.821  17.187  0.0931 -0.7681 -0.1837
14414TIP3    H164657   3.075   0.871  17.267 -0.2386 -0.2097 -0.4563
14414TIP3    H264658   3.111   0.742  17.196  0.5036 -0.4384  0.3255
14415TIP3   OH264659   3.308   6.273   4.445 -0.2472 -0.2564 -0.6188
14415TIP3    H164660   3.342   6.246   4.531 -1.0092 -0.6279 -0.4241
14415TIP3    H264661   3.229   6.323   4.466  0.6253  1.3829 -1.0172
14416TIP3   OH264662   1.419   0.425   5.550 -0.3004 -0.1613 -0.3747
14416TIP3    H164663   1.416   0.363   5.622 -1.3501  2.2085  1.8032
14416TIP3    H264664   1.331   0.462   5.546  0.5615  2.0276 -0.7148
14417TIP3   OH264665   5.928   5.992  16.236 -0.4888 -0.4410  0.1336
14417TIP3    H164666   5.864   5.984  16.307  0.1433  1.6971  1.0200
14417TIP3    H264667   5.877   6.024  16.161 -0.6372  0.2977  0.5433
14418TIP3   OH264668   1.129   2.155   6.616 -0.0801 -0.0279 -0.0514
14418TIP3    H164669   1.139   2.072   6.664  0.3627  0.0924  0.0678
14418TIP3    H264670   1.039   2.153   6.583 -0.4153 -0.0751  0.8506
14419TIP3   OH264671   4.471   3.124  14.387 -0.0491  0.4740  0.6404
14419TIP3    H164672   4.517   3.106  14.305 -0.1650  0.3464  0.6038
14419TIP3    H264673   4.478   3.043  14.437 -1.4427 -0.0294  0.0595
14420TIP3   OH264674   3.014   3.546   3.043 -0.1759 -0.3230  0.1268
14420TIP3    H164675   3.104   3.512   3.044 -0.3432 -0.8832 -1.3839
14420TIP3    H264676   2.964   3.479   2.997 -0.8786  1.1179 -1.2902
14421TIP3   OH264677   4.748   0.069  14.434 -0.2158 -0.0066  0.3393
14421TIP3    H164678   4.703   0.111  14.361  0.0261 -0.0830  0.1433
14421TIP3    H264679   4.698  -0.011  14.451 -1.5824  1.0939  1.7173
14422TIP3   OH264680   4.798   3.191  16.980  0.3991 -0.2282 -0.1013
14422TIP3    H164681   4.880   3.204  17.027  0.2938 -0.9159  0.2867
14422TIP3    H264682   4.785   3.096  16.979  0.6130 -0.2788 -1.8936
14423TIP3   OH264683   1.678   1.881   5.378  0.7057 -0.2071 -0.6148
14423TIP3    H164684   1.725   1.951   5.334 -0.9539  1.1610 -0.3606
14423TIP3    H264685   1.746   1.825   5.414  2.1048 -0.1692 -2.9943
14424TIP3   OH264686   4.012   1.734   3.748 -0.2450  0.0281  0.7030
14424TIP3    H164687   4.080   1.692   3.697  0.2408 -0.7603  1.9590
14424TIP3    H264688   4.059   1.791   3.809 -0.7728  0.4339  0.7393
14425TIP3   OH264689   4.330   4.541  16.814  0.1439  0.1769  0.0985
14425TIP3    H164690   4.348   4.567  16.905 -0.4977  0.2351  0.2152
14425TIP3    H264691   4.344   4.622  16.764  0.4794  0.1502  0.1485
14426TIP3   OH264692   1.997   5.141  12.895 -0.0643 -0.1898  0.2210
14426TIP3    H164693   2.067   5.183  12.944  0.3872  1.0968 -1.4433
14426TIP3    H264694   1.950   5.213  12.853 -0.0284 -1.2292 -1.7300
14427TIP3   OH264695   6.551   4.310  15.849 -0.1154  0.2174  0.3666
14427TIP3    H164696   6.556   4.243  15.918 -0.0247  0.8104  0.9459
14427TIP3    H264697   6.617   4.283  15.785  1.9033  1.2217  1.9240
14428TIP3   OH264698   5.364   1.332   1.550  0.0673 -0.2076  0.4869
14428TIP3    H164699   5.399   1.294   1.631 -0.5010 -0.9891  0.3736
14428TIP3    H264700   5.394   1.273   1.481  0.3902  0.3528  0.1341
14429TIP3   OH264701   0.331   1.441  12.581 -0.0084  0.3262  0.5226
14429TIP3    H164702   0.330   1.346  12.568  0.7196 -0.0102  2.5395
14429TIP3    H264703   0.238   1.465  12.584 -0.1993 -0.1063 -1.1574
14430TIP3   OH264704   0.880   0.858   1.265 -0.2299  0.0112 -0.2044
14430TIP3    H164705   0.883   0.881   1.172  0.2154 -0.0498 -0.2093
14430TIP3    H264706   0.875   0.942   1.310 -1.5115  0.0129 -0.3079
14431TIP3   OH264707   6.652   0.380  14.741 -0.2075 -0.3955  0.0168
14431TIP3    H164708   6.673   0.396  14.833 -1.3020  0.4211  0.1428
14431TIP3    H264709   6.593   0.304  14.742 -0.6401 -0.0614  0.0407
14432TIP3   OH264710   3.377   3.739   0.082 -0.6135  0.0413  0.5247
14432TIP3    H164711   3.330   3.787   0.151  0.0082  0.7771  0.4532
14432TIP3    H264712   3.313   3.731   0.011 -1.0940 -0.2635  0.9790
14433TIP3   OH264713   3.940   3.705  15.820 -0.1871  0.3134  0.2676
14433TIP3    H164714   3.847   3.710  15.795 -0.5008 -1.1641  1.0417
14433TIP3    H264715   3.940   3.724  15.914  0.0753 -1.2201  0.6055
14434TIP3   OH264716   4.551   3.810  14.197 -0.0944  0.1363  0.0289
14434TIP3    H164717   4.609   3.741  14.162 -0.3189 -0.0622  0.0410
14434TIP3    H264718   4.593   3.892  14.172 -0.4813  0.0027 -1.1367
14435TIP3   OH264719   2.216   6.082   0.047  0.5415  0.3611  0.5091
14435TIP3    H164720   2.201   6.164   0.092 -0.1295 -0.9677  2.8749
14435TIP3    H264721   2.291   6.043   0.092  0.2754 -0.7302  0.0434
14436TIP3   OH264722   2.645   3.988  11.913  0.2792  0.0058 -0.1730
14436TIP3    H164723   2.603   3.928  11.974  0.8515  0.5105  0.7416
14436TIP3    H264724   2.712   3.935  11.869  1.6769  0.2380  1.5641
14437TIP3   OH264725   4.409   1.787  13.272  0.4248  0.3647  0.3715
14437TIP3    H164726   4.499   1.758  13.257  0.1206 -0.0868 -0.7236
14437TIP3    H264727   4.416   1.881  13.285  1.2194  0.1042  1.9555
14438TIP3   OH264728   1.801   5.135   4.694  0.2964  0.6090 -0.5675
14438TIP3    H164729   1.716   5.112   4.657  1.0416  0.4237 -2.2581
14438TIP3    H264730   1.786   5.219   4.737 -0.5445  1.0511 -1.6675
14439TIP3   OH264731   4.679   2.064  10.666  0.1773  0.0381  0.1723
14439TIP3    H164732   4.747   1.999  10.684  0.9381  0.8173  0.1709
14439TIP3    H264733   4.653   2.048  10.575 -0.2417 -0.7892  0.4251
14440TIP3   OH264734   3.127   3.755  13.647  0.0269 -0.6670  0.3134
14440TIP3    H164735   3.083   3.680  13.607 -0.8797  0.4053 -0.8138
14440TIP3    H264736   3.179   3.718  13.718  1.0313 -2.5778 -1.3197
14441TIP3   OH264737   0.578   0.644   0.246  0.0227 -0.1233 -0.0802
14441TIP3    H164738   0.642   0.656   0.316  1.0108  1.1733 -1.1435
14441TIP3    H264739   0.601   0.560   0.207  0.5738 -0.0410  0.0584
14442TIP3   OH264740   4.268   2.442  11.007 -0.1361  0.2388  0.3316
14442TIP3    H164741   4.359   2.419  10.988  0.1848 -0.2628  2.2900
14442TIP3    H264742   4.237   2.486  10.927  1.1341 -1.4768 -1.1934
14443TIP3   OH264743   3.350   5.415  15.492 -0.3828 -0.1942  0.0382
14443TIP3    H164744   3.306   5.500  15.497  1.6849  0.9464  0.1969
14443TIP3    H264745   3.410   5.423  15.417 -1.2318 -2.1023 -0.9209
14444TIP3   OH264746   2.808   5.035  12.323 -0.0550 -0.1037 -0.0765
14444TIP3    H164747   2.835   5.000  12.238  1.7814 -0.8098  0.7375
14444TIP3    H264748   2.767   5.119  12.302  1.7923  0.5082 -1.5569
14445TIP3   OH264749   4.194   3.513   0.931  0.0638  0.6647  0.5508
14445TIP3    H164750   4.272   3.482   0.977 -0.9922 -1.6951  0.8727
14445TIP3    H264751   4.127   3.448   0.951 -1.4982  1.6442 -1.2204
14446TIP3   OH264752   0.171   0.442  16.509  0.4050  0.2363 -0.6081
14446TIP3    H164753   0.256   0.486  16.515  0.9564 -0.7705 -0.7043
14446TIP3    H264754   0.108   0.506  16.542  1.4503  0.3264  1.3817
14447TIP3   OH264755   5.053   3.093   2.968 -0.1899  0.6069  0.0049
14447TIP3    H164756   5.110   3.090   3.045 -0.8927 -0.5409  0.5063
14447TIP3    H264757   4.982   3.152   2.993  1.4970  3.2904 -1.1814
14448TIP3   OH264758   0.761   6.531   6.092 -0.1785 -0.2635 -0.4335
14448TIP3    H164759   0.704   6.579   6.152  0.9592  2.1794 -1.2099
14448TIP3    H264760   0.849   6.556   6.118  0.3685 -0.0845 -2.3533
14449TIP3   OH264761   0.810   2.595   3.833 -0.9844  0.1462  0.4068
14449TIP3    H164762   0.800   2.686   3.861  0.6290  0.4762 -0.0029
14449TIP3    H264763   0.848   2.600   3.746 -0.0713 -0.9196  0.7171
14450TIP3   OH264764   5.760   1.991  14.239 -0.0319  0.2051 -0.4510
14450TIP3    H164765   5.763   2.057  14.170  2.4340 -0.1668 -0.8015
14450TIP3    H264766   5.811   2.029  14.311 -0.1020 -0.6029  0.0400
14451TIP3   OH264767   4.384   3.898   1.146  0.3156 -0.5017 -0.1642
14451TIP3    H164768   4.331   3.840   1.092  1.4488  0.2854 -2.2605
14451TIP3    H264769   4.452   3.931   1.086  1.6882  0.4006  1.7748
14452TIP3   OH264770   1.530   6.319  12.102  0.1192 -0.0616 -0.1629
14452TIP3    H164771   1.565   6.265  12.173 -0.8599 -1.2435 -0.5308
14452TIP3    H264772   1.593   6.390  12.091  0.7810 -0.4160  1.2179
14453TIP3   OH264773   5.734   0.623   1.326  0.6553  0.0744 -0.5537
14453TIP3    H164774   5.785   0.695   1.289  0.1349  1.1613  0.7487
14453TIP3    H264775   5.675   0.666   1.388  1.4195 -1.6242  1.4510
14454TIP3   OH264776   5.683   3.901  15.578  0.1254 -0.5521 -0.7181
14454TIP3    H164777   5.741   3.930  15.508 -0.3027 -0.0271 -0.8669
14454TIP3    H264778   5.735   3.908  15.657  0.3627 -0.3929 -0.8878
14455TIP3   OH264779   4.693   2.273  15.411 -0.0775  0.0570  0.2603
14455TIP3    H164780   4.642   2.338  15.459 -1.6289 -0.6101 -0.4250
14455TIP3    H264781   4.702   2.308  15.323  1.5640  0.6351  0.6308
14456TIP3   OH264782   4.180   4.212   2.326  0.1866  0.1463 -0.3766
14456TIP3    H164783   4.236   4.138   2.352 -1.2345 -0.9316 -0.2385
14456TIP3    H264784   4.146   4.247   2.408  0.8395  0.9601 -0.4444
14457TIP3   OH264785   6.595   5.346  10.994 -0.5393 -0.2638 -0.2970
14457TIP3    H164786   6.631   5.288  10.928 -0.0689  0.4318 -0.6693
14457TIP3    H264787   6.635   5.431  10.975 -1.3071  0.2101  0.1505
14458TIP3   OH264788   6.151   2.369   1.103 -0.3807 -0.4507  0.3339
14458TIP3    H164789   6.126   2.449   1.149  0.9375 -1.0149  2.1664
14458TIP3    H264790   6.154   2.302   1.172  1.4837 -1.3918 -0.5841
14459TIP3   OH264791   0.620   0.920   5.016  0.4850  0.3991 -0.7520
14459TIP3    H164792   0.554   0.908   5.084  0.4487 -1.4602 -1.0605
14459TIP3    H264793   0.663   0.835   5.009  1.7940  1.1032 -1.7185
14460TIP3   OH264794   1.628   2.997  14.237 -0.0696  0.2555 -0.1191
14460TIP3    H164795   1.672   2.914  14.220  1.6339  0.8576  1.0529
14460TIP3    H264796   1.581   3.016  14.156  2.1415 -0.2959 -1.6424
14461TIP3   OH264797   0.387   5.667   2.037  0.3900  0.1331  0.1588
14461TIP3    H164798   0.309   5.679   1.983  0.3952  0.8474  0.2966
14461TIP3    H264799   0.447   5.615   1.984  0.8428  1.7436 -0.9718
14462TIP3   OH264800   4.914   1.740   2.712  1.1174  0.0023  0.2247
14462TIP3    H164801   4.885   1.830   2.699  0.8034 -0.3527 -1.7786
14462TIP3    H264802   4.865   1.710   2.788 -0.5736  0.7805 -0.5204
14463TIP3   OH264803   5.126   1.041  14.204  0.3057  0.7577 -0.0001
14463TIP3    H164804   5.092   1.114  14.256 -0.4090  0.7293 -0.4254
14463TIP3    H264805   5.150   1.080  14.120 -0.7383  0.3835 -0.4807
14464TIP3   OH264806   5.804   4.298   6.407 -0.6061 -0.2307  0.3419
14464TIP3    H164807   5.780   4.296   6.499  0.6447  0.2019  0.6925
14464TIP3    H264808   5.857   4.220   6.393 -1.5485 -0.7900 -0.2506
14465TIP3   OH264809   2.807   5.582   2.843 -0.0430  0.1777 -0.1061
14465TIP3    H164810   2.821   5.513   2.907  1.4308 -0.0599 -0.6327
14465TIP3    H264811   2.797   5.536   2.759  0.2029  0.5484 -0.3466
14466TIP3   OH264812   0.158   0.174  12.605  0.5491  0.2829 -0.1768
14466TIP3    H164813   0.229   0.172  12.542  1.4653  1.2605  0.7781
14466TIP3    H264814   0.202   0.175  12.690 -0.6402 -0.6908  0.4906
14467TIP3   OH264815   2.244   2.994   4.847  0.0503 -0.3836  0.3166
14467TIP3    H164816   2.291   2.944   4.780  0.0488  1.2365 -0.9639
14467TIP3    H264817   2.154   3.000   4.815 -1.4919 -4.1566  3.1319
14468TIP3   OH264818   4.792   2.346   1.464 -1.0657 -0.3853  0.0869
14468TIP3    H164819   4.817   2.412   1.529  0.2434 -1.0744  0.3169
14468TIP3    H264820   4.709   2.312   1.494 -0.1165 -1.2409  1.8625
14469TIP3   OH264821   6.466   2.533   5.375 -0.7159  0.4843  0.0600
14469TIP3    H164822   6.388   2.558   5.326 -0.8803 -0.4640 -0.1870
14469TIP3    H264823   6.539   2.549   5.314 -0.7725  0.8417  0.0890
14470TIP3   OH264824   3.279   5.113  11.851  0.2492  0.3760 -0.0202
14470TIP3    H164825   3.275   5.204  11.819  1.5750  0.3933 -0.2227
14470TIP3    H264826   3.189   5.082  11.848 -0.2138  1.6714 -0.0089
14471TIP3   OH264827   0.108   2.012  15.750 -0.2575 -0.2011  0.2226
14471TIP3    H164828   0.094   1.937  15.807 -1.9431 -0.5368 -0.5515
14471TIP3    H264829   0.158   1.978  15.676 -0.2645 -0.3707  0.2962
14472TIP3   OH264830   4.420   5.828   6.386  0.0235  0.0175 -0.0221
14472TIP3    H164831   4.430   5.882   6.465 -0.0247  0.3326 -0.2312
14472TIP3    H264832   4.411   5.891   6.315  0.5753 -0.2650 -0.3507
14473TIP3   OH264833   2.344   4.810  11.631 -0.0127 -0.0700  0.3163
14473TIP3    H164834   2.264   4.836  11.677 -1.2218  0.6176 -2.0443
14473TIP3    H264835   2.329   4.836  11.540  3.0527  0.3818 -0.1502
14474TIP3   OH264836   2.851   1.973   1.808  0.1732 -0.1666 -0.3502
14474TIP3    H164837   2.913   2.005   1.743 -0.2168 -1.2835 -1.3197
14474TIP3    H264838   2.882   2.010   1.891  1.2313  0.5321 -1.0271
14475TIP3   OH264839   3.119   2.510   3.646  0.2925 -0.8367 -0.0888
14475TIP3    H164840   3.145   2.580   3.706  0.5740 -0.0668 -1.0805
14475TIP3    H264841   3.040   2.473   3.685 -0.3809  0.6316  0.0069
14476TIP3   OH264842   2.964   0.365   4.204 -0.6539  0.1515  0.0938
14476TIP3    H164843   2.968   0.381   4.298 -0.7498 -3.6019  0.9029
14476TIP3    H264844   3.041   0.409   4.169 -1.1769  2.5080  1.7086
14477TIP3   OH264845   5.977   4.723   0.370 -0.5284  0.5411 -0.3802
14477TIP3    H164846   5.992   4.752   0.280 -0.8873  1.4599 -0.1519
14477TIP3    H264847   6.063   4.732   0.413  0.1131 -1.5895 -1.0466
14478TIP3   OH264848   3.986   4.448  11.777 -0.1656  0.0743 -0.3398
14478TIP3    H164849   3.899   4.450  11.817 -0.2714 -0.7219 -0.5140
14478TIP3    H264850   4.045   4.426  11.849 -0.0184  1.2183 -0.0922
14479TIP3   OH264851   0.659   6.047  16.610  0.7522 -0.3095  0.2405
14479TIP3    H164852   0.599   6.050  16.684  0.5592 -2.3125  0.1964
14479TIP3    H264853   0.653   6.135  16.572 -1.6757 -0.2264  0.6203
14480TIP3   OH264854   5.623   4.424   2.862  0.5190 -0.2405  1.2592
14480TIP3    H164855   5.660   4.485   2.926  0.3660 -0.7060  1.7946
14480TIP3    H264856   5.602   4.345   2.913 -0.4400 -0.2888  0.8033
14481TIP3   OH264857   0.018   2.299  16.436  0.0171 -0.0357 -0.4831
14481TIP3    H164858  -0.042   2.227  16.456  0.5618 -0.4795 -0.4381
14481TIP3    H264859   0.050   2.327  16.522 -0.0338  0.1195 -0.5160
14482TIP3   OH264860   0.255   4.937  13.771  0.3712 -0.3984  0.4236
14482TIP3    H164861   0.237   4.932  13.865 -0.3383 -1.3396  0.2561
14482TIP3    H264862   0.212   4.860  13.735 -0.3622  0.5658 -0.8331
14483TIP3   OH264863   2.063   0.906  11.542 -0.2403 -0.0101  0.3257
14483TIP3    H164864   2.112   0.971  11.491 -0.3506  0.2583  0.5578
14483TIP3    H264865   1.978   0.902  11.499 -0.0166 -0.5023 -0.0998
14484TIP3   OH264866   1.514   1.527  14.066 -0.6680  0.5619  0.1312
14484TIP3    H164867   1.527   1.616  14.100  2.1510  1.1671 -2.2122
14484TIP3    H264868   1.419   1.520  14.054 -1.0882  2.7298  1.6063
14485TIP3   OH264869   2.207   5.611   5.785  0.4469 -0.3380 -0.6584
14485TIP3    H164870   2.300   5.587   5.784  0.3362 -0.8698  0.3763
14485TIP3    H264871   2.175   5.584   5.699  0.7984 -2.0713 -0.2930
14486TIP3   OH264872   6.525   0.943  17.055  0.2027 -0.4773  0.1968
14486TIP3    H164873   6.435   0.949  17.025  0.3101 -0.3372 -0.0947
14486TIP3    H264874   6.518   0.917  17.147 -0.1194 -1.1063  0.0005
14487TIP3   OH264875   6.680   6.412   2.872  0.1584 -0.2180  0.8407
14487TIP3    H164876   6.757   6.391   2.923  2.0058  0.4812 -1.4957
14487TIP3    H264877   6.697   6.376   2.785 -1.4963  1.1496 -0.1332
14488TIP3   OH264878   1.967   3.639  12.314 -0.5180  0.3077 -0.5720
14488TIP3    H164879   1.913   3.715  12.339 -0.2344 -0.3106  2.1811
14488TIP3    H264880   1.980   3.650  12.220 -2.9575  2.0698 -0.8173
14489TIP3   OH264881   2.167   4.708  14.484 -0.0633 -0.1911  0.1862
14489TIP3    H164882   2.123   4.630  14.450  0.0209  0.0199 -0.4219
14489TIP3    H264883   2.232   4.730  14.417 -2.3950  2.4521 -1.4142
14490TIP3   OH264884   1.666   6.082   3.550 -0.2393  0.0650  0.3211
14490TIP3    H164885   1.723   6.107   3.477 -1.4885 -0.1433 -0.7563
14490TIP3    H264886   1.724   6.034   3.610  1.2072  1.7780  0.3611
14491TIP3   OH264887   4.477   6.146  16.837 -0.6355  0.4498  0.5111
14491TIP3    H164888   4.429   6.207  16.895 -0.9731  2.1394 -1.4229
14491TIP3    H264889   4.419   6.071  16.829 -0.6165  0.1936  2.2568
14492TIP3   OH264890   6.646   4.695  11.806  0.1840  0.3677 -0.1336
14492TIP3    H164891   6.613   4.648  11.882 -0.1167 -0.6467 -0.8635
14492TIP3    H264892   6.669   4.782  11.839  1.0233 -0.3658  1.3276
14493TIP3   OH264893   1.139   5.854  15.699  0.3776  0.3535 -0.2460
14493TIP3    H164894   1.157   5.932  15.647 -1.6635  0.5187 -0.8208
14493TIP3    H264895   1.071   5.808  15.649 -1.9186  0.6775  2.3767
14494TIP3   OH264896   6.362   4.956  16.153 -0.7058 -0.3779 -0.4727
14494TIP3    H164897   6.280   4.915  16.126 -0.0639 -2.0214 -0.0612
14494TIP3    H264898   6.418   4.952  16.076  0.1579 -2.4834  0.2137
14495TIP3   OH264899   2.725   0.888   1.135 -0.2467 -0.0156 -0.6306
14495TIP3    H164900   2.644   0.936   1.151 -0.4214 -0.2025 -0.9488
14495TIP3    H264901   2.735   0.832   1.212 -0.0658  0.4866 -0.2766
14496TIP3   OH264902   0.299   6.661  15.760  0.2278  0.2435  0.1781
14496TIP3    H164903   0.379   6.610  15.774  1.0070  0.8970 -1.5511
14496TIP3    H264904   0.320   6.749  15.790  0.0962  0.3701 -0.0963
14497TIP3   OH264905   5.872   4.102   4.871 -0.2445  0.2681 -0.3099
14497TIP3    H164906   5.812   4.176   4.884  1.8673  1.8771  1.0748
14497TIP3    H264907   5.941   4.137   4.814  0.8953 -0.5085  0.5372
14498TIP3   OH264908   1.554   0.565   3.252  0.2447 -0.7265  0.3411
14498TIP3    H164909   1.553   0.517   3.169  1.8100  1.2202 -0.8812
14498TIP3    H264910   1.526   0.654   3.228  0.2511 -0.2537  2.0085
14499TIP3   OH264911   5.940   5.572  15.834 -0.3954 -0.1661  0.0632
14499TIP3    H164912   5.870   5.612  15.784 -0.4056 -0.1440  0.0952
14499TIP3    H264913   5.896   5.506  15.889 -0.1951 -1.4087 -1.2013
14500TIP3   OH264914   2.671   6.237  14.263  0.6784  0.2884  0.4480
14500TIP3    H164915   2.658   6.265  14.172  1.1815 -0.9748 -0.0300
14500TIP3    H264916   2.631   6.150  14.268  4.3650 -1.6277  0.2054
14501TIP3   OH264917   3.187   0.222   3.462 -0.3188 -0.0726 -0.2226
14501TIP3    H164918   3.161   0.191   3.376  0.4477  0.5386 -0.6888
14501TIP3    H264919   3.128   0.177   3.523 -1.1816 -0.1426 -1.0922
14502TIP3   OH264920   4.980   1.136  13.335 -0.2432 -0.4016 -0.5527
14502TIP3    H164921   5.046   1.128  13.265  1.3595  0.1404  0.8286
14502TIP3    H264922   5.028   1.116  13.415 -2.0747 -1.1385  0.4132
14503TIP3   OH264923   6.389   0.125   0.477  0.3361  0.2274 -0.0053
14503TIP3    H164924   6.439   0.082   0.547 -0.6438  0.2104  0.7184
14503TIP3    H264925   6.424   0.213   0.473  1.8034 -0.3746 -0.9265
14504TIP3   OH264926   4.243   5.392  11.784 -0.0383 -0.0879 -0.2868
14504TIP3    H164927   4.270   5.414  11.694  0.0693  0.2354 -0.1790
14504TIP3    H264928   4.314   5.339  11.818 -0.9918 -1.9380 -1.0618
14505TIP3   OH264929   4.894   6.075   0.775  0.3646 -0.6397 -0.1719
14505TIP3    H164930   4.845   6.028   0.707 -1.5931 -0.5336  1.0814
14505TIP3    H264931   4.927   6.005   0.832 -0.9382 -0.6149  0.6450
14506TIP3   OH264932   1.685   6.502  15.161  0.1905 -0.5395  0.0635
14506TIP3    H164933   1.688   6.413  15.125 -1.4596 -1.1768  1.3830
14506TIP3    H264934   1.750   6.501  15.231 -0.0389 -0.8095  0.2759
14507TIP3   OH264935   1.543   0.706   3.518  0.4230 -0.8255  0.5936
14507TIP3    H164936   1.458   0.691   3.477  0.0145  1.8019  0.3327
14507TIP3    H264937   1.585   0.773   3.464  2.9619 -2.4472  0.3713
14508TIP3   OH264938   3.039   1.728   2.525 -0.3764 -0.0135  0.1808
14508TIP3    H164939   3.119   1.773   2.549  0.3394 -0.9520 -0.3664
14508TIP3    H264940   3.023   1.754   2.434 -0.2753 -0.3895  0.0507
14509TIP3   OH264941   3.174   6.543  17.308 -0.2753  0.3161  0.3195
14509TIP3    H164942   3.209   6.613  17.251 -0.1023 -0.4427 -0.5390
14509TIP3    H264943   3.090   6.520  17.268  0.0282 -0.4931  0.1315
14510TIP3   OH264944   4.274   5.368   4.586  0.5987 -0.8729  1.0350
14510TIP3    H164945   4.224   5.355   4.506 -0.9112  1.4418  1.5147
14510TIP3    H264946   4.363   5.341   4.564  0.4313  0.5485 -1.7265
14511TIP3   OH264947   4.034   1.381  13.602  0.0805 -0.1128  0.1080
14511TIP3    H164948   4.126   1.387  13.576  0.1101  0.6168  0.3348
14511TIP3    H264949   3.985   1.389  13.521  0.2220 -1.0316 -0.0748
14512TIP3   OH264950   3.570   3.004   2.311 -0.1819  0.5284 -0.3244
14512TIP3    H164951   3.638   2.937   2.318  0.6677  1.0587 -2.5137
14512TIP3    H264952   3.605   3.078   2.361  0.7176  0.6652 -1.1188
14513TIP3   OH264953   4.164   3.671  11.456  0.3421 -0.1349  0.1017
14513TIP3    H164954   4.217   3.748  11.474  1.1584 -0.5054 -0.6547
14513TIP3    H264955   4.205   3.631  11.379 -0.4784 -0.9439  0.0700
14514TIP3   OH264956   6.275   1.619  16.122 -0.3344  0.2823 -0.1137
14514TIP3    H164957   6.181   1.599  16.130 -0.1728 -0.9253 -1.0125
14514TIP3    H264958   6.283   1.662  16.036  0.2080 -1.5184 -1.0017
14515TIP3   OH264959   3.111   2.861   0.304 -0.3152 -0.3869 -0.3451
14515TIP3    H164960   3.198   2.899   0.321 -1.8112  3.1962  0.3490
14515TIP3    H264961   3.100   2.869   0.210 -0.9742  2.1062 -0.1237
14516TIP3   OH264962   0.375   1.450   6.055  0.3481 -0.1334  0.1059
14516TIP3    H164963   0.403   1.471   6.144 -0.3384 -0.1571  0.3324
14516TIP3    H264964   0.429   1.374   6.030  1.1209  0.3739  0.1856
14517TIP3   OH264965   3.609   6.767  12.292  0.3230  0.1711  0.0517
14517TIP3    H164966   3.634   6.726  12.375 -2.3955 -2.6555 -0.3500
14517TIP3    H264967   3.673   6.734  12.228 -0.7932 -2.2439  0.0786
14518TIP3   OH264968   2.484   4.352  14.473  0.4574 -0.3117 -0.0520
14518TIP3    H164969   2.466   4.352  14.567  0.0519 -0.6954 -0.1277
14518TIP3    H264970   2.577   4.373  14.466  0.8478 -1.7469  0.5004
14519TIP3   OH264971   4.938   6.758  11.535 -0.3103  0.0633  0.1693
14519TIP3    H164972   5.015   6.770  11.479  0.4762  0.7489  1.3574
14519TIP3    H264973   4.925   6.664  11.537  0.0212 -0.0122 -0.6661
14520TIP3   OH264974   6.543   6.576  16.601 -0.3995 -0.4688  0.4349
14520TIP3    H164975   6.555   6.620  16.685  1.3019  0.0888 -0.0583
14520TIP3    H264976   6.450   6.551  16.600 -1.4583  2.9658  0.8334
14521TIP3   OH264977   4.237   2.429  11.298  0.0320  0.0968  0.1234
14521TIP3    H164978   4.328   2.455  11.289 -0.1767  0.9939  0.4730
14521TIP3    H264979   4.200   2.439  11.210  0.0956  0.4324  0.1345
14522TIP3   OH264980   2.507   5.242   5.769  0.6165  0.3714  0.1458
14522TIP3    H164981   2.421   5.202   5.757  0.3978  0.3591  1.5807
14522TIP3    H264982   2.557   5.217   5.691 -0.7849  0.6846 -0.8824
14523TIP3   OH264983   1.532   3.167   2.571  0.4587 -0.0139 -0.2784
14523TIP3    H164984   1.621   3.153   2.539  0.8866  2.1734 -0.1928
14523TIP3    H264985   1.475   3.138   2.499  1.2847 -0.0518 -0.9266
14524TIP3   OH264986   4.513   3.145   2.576 -0.6900  0.0504 -0.2921
14524TIP3    H164987   4.437   3.136   2.632 -0.1044  0.2345  0.5537
14524TIP3    H264988   4.509   3.069   2.517 -2.3499  0.8800 -1.3054
14525TIP3   OH264989   6.493   5.395  12.644  0.4745  0.1160 -0.1338
14525TIP3    H164990   6.479   5.489  12.658  0.0151  0.2308 -1.2477
14525TIP3    H264991   6.582   5.379  12.675 -0.4218  0.2990  2.8473
14526TIP3   OH264992   0.204   2.165   0.843 -0.3272 -0.1379  0.5157
14526TIP3    H164993   0.160   2.238   0.887 -1.2458 -0.3344 -0.0445
14526TIP3    H264994   0.138   2.096   0.839 -0.2901 -0.1272 -1.1344
14527TIP3   OH264995   5.172   4.999  13.852 -0.4224 -0.4868  0.1822
14527TIP3    H164996   5.174   4.992  13.947 -2.4346  0.6435  0.3614
14527TIP3    H264997   5.194   5.091  13.834 -1.8423 -0.2257 -0.3106
14528TIP3   OH264998   0.191   1.651   2.256 -0.1352  0.2080  0.6241
14528TIP3    H164999   0.131   1.582   2.284 -0.3370  0.2143  0.2135
14528TIP3    H265000   0.218   1.626   2.168  1.0213 -0.1573  1.0703
14529TIP3   OH265001   1.113   1.523   5.454 -0.2626 -0.0929  0.1519
14529TIP3    H165002   1.148   1.538   5.366  0.3347  0.3497  0.4571
14529TIP3    H265003   1.119   1.428   5.467  0.9083 -0.0229  0.2180
14530TIP3   OH265004   5.545   3.048   2.283  0.5734 -0.5308  0.0254
14530TIP3    H165005   5.563   3.052   2.189  1.7622 -1.1144  0.2160
14530TIP3    H265006   5.535   3.139   2.309 -0.8920 -0.4025 -0.8590
14531TIP3   OH265007   6.755   4.009  15.812  0.5136 -0.2346  0.2874
14531TIP3    H165008   6.734   4.063  15.735  0.8686  2.9172  2.2256
14531TIP3    H265009   6.680   3.951  15.822  0.3389 -0.5898 -2.2140
14532TIP3   OH265010   4.394   4.411   4.861 -0.0945 -0.0904 -0.6238
14532TIP3    H165011   4.408   4.318   4.844  1.2668  0.0799 -0.4861
14532TIP3    H265012   4.467   4.437   4.917 -1.5008  0.6352  0.9657
14533TIP3   OH265013   4.593   1.129   4.494 -0.3954 -0.0061 -0.0444
14533TIP3    H165014   4.570   1.038   4.475 -0.8490 -0.1979  1.2814
14533TIP3    H265015   4.586   1.135   4.590  3.8712  0.2808  0.4083
14534TIP3   OH265016   4.074   4.868   6.639 -0.2907 -0.4531  0.1317
14534TIP3    H165017   3.993   4.887   6.592 -1.2479 -3.3806  0.4066
14534TIP3    H265018   4.140   4.856   6.570 -0.0733  1.7707 -0.0983
14535TIP3   OH265019   2.582   1.135  14.443 -0.1287  0.1337  0.4854
14535TIP3    H165020   2.621   1.048  14.439 -0.2601  0.1141 -1.0409
14535TIP3    H265021   2.657   1.195  14.438 -0.0445  0.1156  1.4459
14536TIP3   OH265022   0.778   6.563  12.934  0.3779  0.0602  0.4683
14536TIP3    H165023   0.851   6.504  12.913 -0.5201 -1.4437  1.3721
14536TIP3    H265024   0.769   6.557  13.029 -1.8681 -1.0299  0.2604
14537TIP3   OH265025   5.295   1.161  16.807  0.2396  0.4044 -0.3818
14537TIP3    H165026   5.297   1.256  16.796 -0.6351  0.3877 -0.7668
14537TIP3    H265027   5.367   1.142  16.866  1.1433  1.1900 -1.1976
14538TIP3   OH265028   3.337   5.287   4.095 -0.0413  0.3252 -0.1910
14538TIP3    H165029   3.358   5.291   4.001  1.1981  0.5225  0.0780
14538TIP3    H265030   3.345   5.378   4.124 -1.7258  0.4859 -0.1392
14539TIP3   OH265031   2.013   6.716   1.380  0.2720  0.0414  0.3642
14539TIP3    H165032   1.936   6.721   1.323 -0.9646  0.0649  1.9824
14539TIP3    H265033   2.060   6.639   1.348 -0.2324  0.2078 -0.8539
14540TIP3   OH265034   1.837   1.577  11.229 -0.5584  0.9496 -0.0198
14540TIP3    H165035   1.779   1.544  11.297 -0.8150  0.6385 -0.3849
14540TIP3    H265036   1.783   1.639  11.180  0.3048  3.0120  1.4957
14541TIP3   OH265037   2.753   3.638  14.130  0.0181  0.1198 -0.3278
14541TIP3    H165038   2.835   3.651  14.083 -0.1834  0.1100 -0.6896
14541TIP3    H265039   2.688   3.684  14.077 -0.1972  0.1873 -0.0061
14542TIP3   OH265040   1.910   1.409   1.030  0.1171 -0.0633 -0.2267
14542TIP3    H165041   1.856   1.469   0.978  2.0964  0.9006 -1.2845
14542TIP3    H265042   1.941   1.344   0.966  2.2677  0.9089 -0.2610
14543TIP3   OH265043   6.678   1.976  10.573 -0.2568  0.4890  0.1551
14543TIP3    H165044   6.588   1.999  10.599 -0.2908  1.0354 -0.4114
14543TIP3    H265045   6.695   1.894  10.618 -1.2160  0.1324 -0.0921
14544TIP3   OH265046   2.887   2.872   0.046 -0.1552  0.3348  0.0874
14544TIP3    H165047   2.880   2.838  -0.043 -0.4210 -0.4759  0.4113
14544TIP3    H265048   2.973   2.914   0.048  0.2924 -0.5304 -0.2623
14545TIP3   OH265049   6.379   0.447   1.941 -0.4629  0.2546  0.0154
14545TIP3    H165050   6.330   0.529   1.951 -1.0726 -0.0506 -0.4223
14545TIP3    H265051   6.386   0.412   2.030  0.0444  0.9130  0.2426
14546TIP3   OH265052   3.237   1.264  16.279  0.3260 -0.4331 -0.0829
14546TIP3    H165053   3.262   1.337  16.223 -1.4105  1.8040  1.8577
14546TIP3    H265054   3.300   1.267  16.352 -1.0004  0.5383  1.0724
14547TIP3   OH265055   3.861   1.737  16.693  0.2024  0.2084  0.4147
14547TIP3    H165056   3.771   1.738  16.725  0.4354  0.7143  1.0911
14547TIP3    H265057   3.889   1.829  16.700  0.9688 -0.0472  0.8086
14548TIP3   OH265058   0.327   1.945   5.944 -0.3939  0.1167 -0.3040
14548TIP3    H165059   0.310   1.850   5.947  1.1863 -0.2041 -0.8559
14548TIP3    H265060   0.316   1.969   5.852 -1.8530  0.7248 -0.0137
14549TIP3   OH265061   1.086   5.640  13.453 -0.7320  0.2944 -0.0904
14549TIP3    H165062   1.103   5.727  13.490 -0.7033  0.5990 -0.8057
14549TIP3    H265063   0.992   5.625  13.469 -0.8460  0.6697 -0.4070
14550TIP3   OH265064   4.632   2.924   3.861 -0.0166  0.5183 -0.1878
14550TIP3    H165065   4.588   3.007   3.881  2.1158  1.9289 -0.9665
14550TIP3    H265066   4.671   2.937   3.775  2.8118 -0.1251  0.8549
14551TIP3   OH265067   1.370   0.917   6.091  0.0184  0.2473  0.1764
14551TIP3    H165068   1.356   0.894   5.999  1.9815  0.1910 -0.1583
14551TIP3    H265069   1.287   0.899   6.133 -0.5348 -1.0079 -1.3529
14552TIP3   OH265070   5.241   2.477  16.381  0.6726  0.5968 -0.7664
14552TIP3    H165071   5.220   2.424  16.304 -0.0465 -0.7815  0.3419
14552TIP3    H265072   5.292   2.419  16.437 -0.2577  1.0008  0.5374
14553TIP3   OH265073   2.151   4.714   2.389  0.4744  0.1404 -0.2130
14553TIP3    H165074   2.213   4.643   2.372 -0.5578 -0.7859 -0.3001
14553TIP3    H265075   2.065   4.671   2.383 -0.1171  0.8976  2.0333
14554TIP3   OH265076   5.245   4.916   3.403  0.8421 -0.2646 -0.3561
14554TIP3    H165077   5.282   4.999   3.373  1.0034 -0.4450 -0.6729
14554TIP3    H265078   5.166   4.904   3.350  0.6337 -0.1463 -0.0700
14555TIP3   OH265079   5.329   4.423  12.426 -0.1691  0.8101 -0.0211
14555TIP3    H165080   5.288   4.377  12.353 -0.8126  0.5253  0.4970
14555TIP3    H265081   5.367   4.354  12.480 -0.2231  0.9673  0.2220
14556TIP3   OH265082   1.684   6.439  17.233  0.3511 -0.4063 -0.0464
14556TIP3    H165083   1.732   6.356  17.227  0.6503 -0.4193  1.8333
14556TIP3    H265084   1.743   6.497  17.282 -0.1720  0.6744 -0.6625
14557TIP3   OH265085   3.152   3.270  15.228  0.7176  0.2996 -0.4012
14557TIP3    H165086   3.149   3.355  15.271  0.5229 -0.2160  0.6384
14557TIP3    H265087   3.121   3.287  15.139  1.0589  1.3776 -0.3284
14558TIP3   OH265088   4.448   0.875  12.010  0.1049  0.1817  0.2346
14558TIP3    H165089   4.528   0.917  11.977  0.4596 -0.3652  0.3689
14558TIP3    H265090   4.480   0.796  12.054 -0.5350 -0.1653  0.0804
14559TIP3   OH265091   0.432   5.925  12.395  0.1421 -0.1099 -0.1986
14559TIP3    H165092   0.488   5.848  12.393  0.5876  0.1799  0.5472
14559TIP3    H265093   0.488   5.997  12.366  0.2155  0.2095  0.6962
14560TIP3   OH265094   0.183   4.490  16.867 -0.1195 -0.2402 -0.0308
14560TIP3    H165095   0.142   4.445  16.941  0.8789 -2.6763 -0.8433
14560TIP3    H265096   0.112   4.543  16.829 -0.7454  0.7643  2.3668
14561TIP3   OH265097   1.515   0.134  13.410 -0.1055  0.3041  0.1445
14561TIP3    H165098   1.584   0.152  13.346  0.6661  1.2669  1.2198
14561TIP3    H265099   1.521   0.206  13.473  0.1659 -1.4056  2.1695
14562TIP3   OH265100   4.290   2.100   6.121  0.4575  0.1940  0.2207
14562TIP3    H165101   4.372   2.082   6.167  0.3037  0.1997  0.4970
14562TIP3    H265102   4.317   2.152   6.045  1.0895 -2.2049 -1.3388
14563TIP3   OH265103   2.040   2.556   2.166 -0.2616 -0.6474  0.1230
14563TIP3    H165104   1.970   2.525   2.223 -1.0119  0.3094 -0.2576
14563TIP3    H265105   2.052   2.487   2.102 -2.5958  0.1850 -1.3287
14564TIP3   OH265106   0.928   0.089  15.070  0.0619  0.1905  0.0171
14564TIP3    H165107   0.840   0.068  15.099  0.7332 -2.4709  0.3970
14564TIP3    H265108   0.920   0.103  14.976 -1.2148  3.2655  0.4766
14565TIP3   OH265109   4.958   2.946   5.950  0.7929 -0.1562 -0.6699
14565TIP3    H165110   4.990   3.036   5.957  1.4574 -0.4542  0.5368
14565TIP3    H265111   5.030   2.893   5.984  0.0995 -1.0719 -0.5917
14566TIP3   OH265112   5.401   5.956  14.328 -0.1482 -0.2109 -0.1704
14566TIP3    H165113   5.317   5.909  14.330 -0.5263  0.4377 -0.4322
14566TIP3    H265114   5.418   5.980  14.419  0.8256 -2.1671  0.2257
14567TIP3   OH265115   1.165   3.790  10.488  0.8140  0.4862  0.3604
14567TIP3    H165116   1.186   3.701  10.515 -1.3087 -0.0935  0.2405
14567TIP3    H265117   1.070   3.798  10.500  0.6372  2.0691 -1.5100
14568TIP3   OH265118   0.058   6.694   1.770 -0.4375 -0.2521  0.6635
14568TIP3    H165119   0.021   6.635   1.705 -0.7683 -0.4320  1.0099
14568TIP3    H265120   0.014   6.778   1.755 -0.0397 -0.1218  0.2354
14569TIP3   OH265121   6.412   4.729   2.366  0.1881  0.1890  0.1642
14569TIP3    H165122   6.411   4.714   2.272 -0.5756  2.3192 -0.2210
14569TIP3    H265123   6.502   4.758   2.384  0.3621 -0.3153  0.1086
14570TIP3   OH265124   5.922   3.211   1.804  0.5536 -0.0799 -0.2317
14570TIP3    H165125   5.899   3.147   1.871 -0.1078 -1.2030 -1.4688
14570TIP3    H265126   5.982   3.165   1.746  1.2529  0.9229 -0.3324
14571TIP3   OH265127   2.992   2.551   4.512 -0.9895 -0.7496  0.2213
14571TIP3    H165128   2.960   2.511   4.592 -0.8079  1.0791  1.2706
14571TIP3    H265129   2.921   2.609   4.484  0.1998  1.1829  0.9924
14572TIP3   OH265130   1.580   4.007   4.437 -0.2617 -0.0356  0.2743
14572TIP3    H165131   1.615   3.993   4.349  0.2829  2.9749 -0.0994
14572TIP3    H265132   1.630   3.947   4.493 -0.0453 -1.4068 -1.3173
14573TIP3   OH265133   3.984   6.536   5.223 -0.0071 -0.2041  0.4262
14573TIP3    H165134   3.933   6.475   5.275 -1.6164  1.6331  1.1364
14573TIP3    H265135   4.051   6.569   5.283 -0.6828  0.5196  0.7976
14574TIP3   OH265136   2.756   0.037   3.665  0.7015 -0.0418  0.3611
14574TIP3    H165137   2.684   0.095   3.641  0.7928  0.4628  1.2254
14574TIP3    H265138   2.723  -0.011   3.741  1.5200  0.7446  1.2432
14575TIP3   OH265139   5.184   4.908  15.848  0.5070  0.1982 -0.0350
14575TIP3    H165140   5.114   4.973  15.844 -0.9934 -1.3501 -0.6928
14575TIP3    H265141   5.262   4.956  15.875 -0.5984  2.1760 -0.2407
14576TIP3   OH265142   1.721   5.945   4.426  0.4712  0.2786 -0.6656
14576TIP3    H165143   1.697   5.889   4.353  0.6944 -0.4277 -0.2119
14576TIP3    H265144   1.644   5.945   4.483  1.2523 -1.5231  0.5051
14577TIP3   OH265145   1.881   2.717  15.139 -0.1690 -0.2316  0.1680
14577TIP3    H165146   1.838   2.655  15.080 -1.4247 -1.1791  2.0129
14577TIP3    H265147   1.844   2.699  15.225  1.7454  0.9822  1.3258
14578TIP3   OH265148   1.362   1.268   0.887  0.3016  0.1701  0.4605
14578TIP3    H165149   1.326   1.246   0.973 -0.2546 -1.9317 -0.2549
14578TIP3    H265150   1.290   1.313   0.842  0.0763 -0.0429  0.6030
14579TIP3   OH265151   5.363   6.256   2.128  0.1104 -0.1879 -0.0797
14579TIP3    H165152   5.379   6.190   2.195  0.6956 -0.0278 -0.0595
14579TIP3    H265153   5.329   6.207   2.054  0.1134 -0.4541  0.0932
14580TIP3   OH265154   2.710   0.756   4.826  0.1120  0.1585 -0.5064
14580TIP3    H165155   2.637   0.697   4.807  1.2071 -0.9942 -1.2583
14580TIP3    H265156   2.717   0.756   4.922  0.1669 -1.0136 -0.5076
14581TIP3   OH265157   4.050   6.097  15.038 -0.0593  0.0962 -0.1878
14581TIP3    H165158   4.025   6.113  14.947  3.2915  0.1684 -1.2358
14581TIP3    H265159   4.052   6.184  15.078  1.3087  0.4513 -0.9530
14582TIP3   OH265160   5.413   0.099   0.761  0.3574 -0.1182  0.9892
14582TIP3    H165161   5.328   0.054   0.764 -1.0736  2.1343 -1.6500
14582TIP3    H265162   5.468   0.044   0.706 -0.3505 -0.1692  0.3275
14583TIP3   OH265163   1.902   1.985  13.962 -0.0904  0.4016 -0.4134
14583TIP3    H165164   1.955   2.025  14.032  1.3218  1.4347 -2.0072
14583TIP3    H265165   1.839   2.053  13.939 -0.4854  0.0987 -0.2413
14584TIP3   OH265166   2.867   6.324  13.756  0.5142  0.0535 -0.7191
14584TIP3    H165167   2.857   6.318  13.661 -1.0381  1.1619 -0.6495
14584TIP3    H265168   2.851   6.235  13.787 -0.6693  0.0209 -1.3767
14585TIP3   OH265169   3.009   0.486   1.651  0.3334  0.6739  0.1465
14585TIP3    H165170   2.961   0.456   1.728  1.3749  0.2265  0.6444
14585TIP3    H265171   2.952   0.464   1.577 -1.4406  2.5992  0.8377
14586TIP3   OH265172   0.503   5.521   3.176  1.0337 -0.0754 -0.4208
14586TIP3    H165173   0.508   5.469   3.097  0.7795  0.6444 -0.9247
14586TIP3    H265174   0.421   5.569   3.168  0.2949 -1.0462  0.9559
14587TIP3   OH265175   0.677   4.331  14.876 -0.1042  0.4555 -0.5378
14587TIP3    H165176   0.725   4.413  14.888 -1.4842  1.0314  1.8748
14587TIP3    H265177   0.589   4.351  14.906 -0.8414 -1.5777 -1.2021
14588TIP3   OH265178   0.768   3.242   2.996 -0.3604 -0.0517 -0.1638
14588TIP3    H165179   0.852   3.198   3.006  0.1765  0.9377 -0.1494
14588TIP3    H265180   0.776   3.322   3.048 -1.1278  0.2938 -0.5530
14589TIP3   OH265181   1.592   0.301  16.347 -0.1798 -0.6054 -0.8587
14589TIP3    H165182   1.537   0.290  16.269 -1.2211  0.7548 -0.3482
14589TIP3    H265183   1.667   0.242  16.332 -1.2393 -1.7116 -2.0519
14590TIP3   OH265184   5.361   2.320  14.458  0.4799  0.3489 -0.2135
14590TIP3    H165185   5.350   2.374  14.380  1.2421 -1.2804 -1.5102
14590TIP3    H265186   5.332   2.233  14.431  2.7683 -0.7636  0.5986
14591TIP3   OH265187   4.107   4.492  14.490 -0.1159  0.4409  0.1829
14591TIP3    H165188   4.197   4.505  14.519  0.5402 -1.2113 -0.9812
14591TIP3    H265189   4.105   4.403  14.454 -2.2566  0.3716  0.3248
14592TIP3   OH265190   0.171   5.768   3.604  0.6114  0.1480  0.7133
14592TIP3    H165191   0.243   5.778   3.542  0.6813 -1.8648  0.4036
14592TIP3    H265192   0.203   5.703   3.667 -1.0245 -0.9632  0.4257
14593TIP3   OH265193   6.210   2.329   4.503 -0.2583 -0.1239 -0.3347
14593TIP3    H165194   6.200   2.418   4.535 -1.0474 -1.1810  2.7291
14593TIP3    H265195   6.226   2.338   4.409 -1.8311  3.1390 -0.4113
14594TIP3   OH265196   3.881   2.546  11.224 -0.0138  0.1721 -0.2943
14594TIP3    H165197   3.799   2.543  11.175  0.5975  0.1076 -1.3624
14594TIP3    H265198   3.916   2.457  11.218  0.9550  0.5892 -1.3580
14595TIP3   OH265199   1.845   4.232  13.772  0.1435 -0.5853  0.0277
14595TIP3    H165200   1.752   4.209  13.774  0.3245 -1.3626 -0.0806
14595TIP3    H265201   1.848   4.318  13.731 -0.6349  0.0195  1.1688
14596TIP3   OH265202   3.651   0.592   4.994  0.5995 -0.8859 -0.4130
14596TIP3    H165203   3.579   0.563   4.938 -1.4275  1.4457  0.7906
14596TIP3    H265204   3.717   0.626   4.933  0.1389 -1.8636 -1.4910
14597TIP3   OH265205   4.439   3.931  16.005  0.5052  0.2716  0.0424
14597TIP3    H165206   4.470   3.900  16.090  0.3913  1.1843  0.4305
14597TIP3    H265207   4.386   3.859  15.970  0.4387 -0.0520  0.8034
14598TIP3   OH265208   0.609   4.353  14.615 -0.0025 -0.2154 -1.1921
14598TIP3    H165209   0.661   4.371  14.693 -0.1855 -2.0892 -0.6055
14598TIP3    H265210   0.674   4.339  14.546  0.2418 -1.0654 -0.7976
14599TIP3   OH265211   4.968   3.464  10.864 -0.5833  0.1275  0.3723
14599TIP3    H165212   5.019   3.384  10.847  1.0273  1.2390 -0.2840
14599TIP3    H265213   4.970   3.474  10.959  0.4070  0.1283  0.3599
14600TIP3   OH265214   4.763   4.603   4.666 -0.2230 -0.2683 -0.2993
14600TIP3    H165215   4.816   4.643   4.734 -0.4283 -0.6233  0.0726
14600TIP3    H265216   4.778   4.509   4.677 -0.9710 -0.3754 -0.1556
14601TIP3   OH265217   5.343   6.058   1.434 -0.1348  0.1162 -0.0214
14601TIP3    H165218   5.275   6.126   1.427 -0.2173 -0.0604 -1.0921
14601TIP3    H265219   5.396   6.085   1.509 -0.3384  1.2143 -0.2486
14602TIP3   OH265220   1.159   0.521   5.596 -0.2383  0.5870  0.3932
14602TIP3    H165221   1.110   0.603   5.585 -1.4113 -0.1696 -0.1757
14602TIP3    H265222   1.092   0.456   5.615  0.4313 -0.6430 -1.2208
14603TIP3   OH265223   4.100   3.434  13.749  0.1905 -0.1448 -0.2569
14603TIP3    H165224   4.097   3.474  13.836  0.4794  1.2390 -0.8440
14603TIP3    H265225   4.024   3.376  13.746 -0.0362  0.0796  0.7798
14604TIP3   OH265226   6.264   6.346   1.252 -0.6299  0.0195 -0.4071
14604TIP3    H165227   6.271   6.397   1.332 -0.5296 -0.4179 -0.1302
14604TIP3    H265228   6.272   6.410   1.182 -0.0586  0.3262 -0.0700
14605TIP3   OH265229   5.764   2.802  12.102 -0.4598  0.2777  0.0917
14605TIP3    H165230   5.790   2.895  12.101  1.7868 -0.2863  0.6058
14605TIP3    H265231   5.777   2.775  12.192 -2.1391 -0.3078  0.1840
14606TIP3   OH265232   1.093   1.251   5.520  0.2947  0.0273 -0.1405
14606TIP3    H165233   1.126   1.296   5.597  2.7276 -0.0339 -1.0331
14606TIP3    H265234   1.116   1.159   5.534  1.5085  0.1316 -1.2361
14607TIP3   OH265235   2.050   5.763   6.363 -0.0113  0.4700  0.0391
14607TIP3    H165236   2.146   5.755   6.368 -0.0518  0.6624  1.9351
14607TIP3    H265237   2.018   5.689   6.415 -0.9656 -0.3342 -1.6055
14608TIP3   OH265238   4.362   6.209   2.194  0.1522  0.0665 -0.0661
14608TIP3    H165239   4.407   6.186   2.113 -1.4585  1.5528 -1.4638
14608TIP3    H265240   4.408   6.286   2.227  3.2002 -2.6108  2.6163
14609TIP3   OH265241   0.568   6.714  12.839  0.2706 -0.7466 -0.0143
14609TIP3    H165242   0.503   6.652  12.806 -0.0360 -0.9262  0.8824
14609TIP3    H265243   0.642   6.659  12.866  0.5940 -0.5875 -0.5769
14610TIP3   OH265244   5.682   5.866  12.476 -0.3078  0.1285  0.1674
14610TIP3    H165245   5.718   5.875  12.387  0.4104 -1.1991  0.2980
14610TIP3    H265246   5.718   5.941  12.523  0.3110  0.1704 -0.3479
14611TIP3   OH265247   5.492   0.238   1.461  0.0389 -0.1691 -0.1199
14611TIP3    H165248   5.478   0.332   1.456 -0.1656 -0.1306  1.0119
14611TIP3    H265249   5.447   0.203   1.384 -0.0673  0.6342 -0.4304
14612TIP3   OH265250   5.187   2.799   1.581  0.2702  0.2836 -0.1913
14612TIP3    H165251   5.093   2.813   1.595 -0.0581 -0.3218 -1.5993
14612TIP3    H265252   5.228   2.823   1.664 -0.8838  2.8571 -0.2848
14613TIP3   OH265253   4.506   0.695  14.723  0.5902 -0.3346  0.0453
14613TIP3    H165254   4.492   0.681  14.629 -0.3784  0.4206  0.0575
14613TIP3    H265255   4.441   0.639  14.765  1.1398 -0.8059  0.2805
14614TIP3   OH265256   5.098   5.404  15.161 -0.4904  0.6645 -0.3703
14614TIP3    H165257   5.035   5.422  15.091 -1.8661 -0.5927  0.4944
14614TIP3    H265258   5.044   5.372  15.234  1.0998  0.1447  0.6185
14615TIP3   OH265259   5.015   0.676  11.151  0.0899  0.2541  0.1245
14615TIP3    H165260   5.052   0.738  11.087 -3.0895  1.4799 -0.7111
14615TIP3    H265261   4.989   0.600  11.099  0.2143 -0.0360  0.4807
14616TIP3   OH265262   4.588   3.749   3.921 -0.2930 -0.4813  0.3134
14616TIP3    H165263   4.658   3.718   3.979  0.4052 -1.2277 -0.8768
14616TIP3    H265264   4.634   3.803   3.856 -0.6173 -1.8838 -1.1400
14617TIP3   OH265265   1.682   2.486   3.094  0.3117 -0.0646  0.0320
14617TIP3    H165266   1.610   2.450   3.146  0.7061  1.3811  1.6749
14617TIP3    H265267   1.686   2.430   3.016 -2.3870 -0.3543  0.0146
14618TIP3   OH265268   6.237   6.372   4.830  0.5351  0.0274  0.1299
14618TIP3    H165269   6.327   6.340   4.831  0.5684  0.0935 -0.5113
14618TIP3    H265270   6.236   6.441   4.764  0.6203  1.8810  1.9476
14619TIP3   OH265271   5.358   3.660  10.703  0.0539  0.1768  0.1181
14619TIP3    H165272   5.275   3.652  10.656 -2.6369  3.4773  3.6865
14619TIP3    H265273   5.379   3.570  10.730 -4.0493 -0.5913  1.4998
14620TIP3   OH265274   5.992   0.659   0.581 -0.1268 -0.2631 -0.0166
14620TIP3    H165275   6.050   0.584   0.583  1.5541  0.9662 -0.4103
14620TIP3    H265276   5.904   0.622   0.586  0.6630 -2.2062  0.1698
14621TIP3   OH265277   4.465   0.345   3.400 -0.6162 -0.1102  0.5435
14621TIP3    H165278   4.522   0.408   3.357 -0.7324  0.9534  1.8970
14621TIP3    H265279   4.387   0.342   3.344  0.0897 -0.3758 -0.4541
14622TIP3   OH265280   1.941   5.411  12.787 -0.1047 -0.0494  0.0351
14622TIP3    H165281   2.014   5.384  12.731  1.4176  0.7404  1.5582
14622TIP3    H265282   1.966   5.498  12.818 -1.9119  0.4162  0.2673
14623TIP3   OH265283   0.811   2.586   3.243  0.1064  0.0144  0.0220
14623TIP3    H165284   0.741   2.524   3.261  1.5675 -1.7893 -0.1369
14623TIP3    H265285   0.783   2.632   3.164 -0.5511 -1.2650 -0.5131
14624TIP3   OH265286   3.096   4.038  12.180 -0.4685  0.0535  0.2889
14624TIP3    H165287   3.052   3.981  12.117 -0.7523 -0.4583  0.9413
14624TIP3    H265288   3.031   4.052  12.250  0.2305 -0.3270  1.0341
14625TIP3   OH265289   1.317   6.302  11.418 -0.2122  0.3929  0.2692
14625TIP3    H165290   1.283   6.217  11.392  1.2248 -0.0215 -0.3864
14625TIP3    H265291   1.344   6.291  11.509  0.2967  0.0128  0.0817
14626TIP3   OH265292   1.692   4.006   3.107 -0.0823 -0.2497  0.0613
14626TIP3    H165293   1.732   3.972   3.027 -0.7195  0.0421 -0.3938
14626TIP3    H265294   1.598   4.010   3.086 -0.8334 -3.6347  2.0353
14627TIP3   OH265295   0.010   6.157  12.274  0.0492  0.0822 -0.1721
14627TIP3    H165296  -0.060   6.221  12.281  0.4966  0.4950  0.6679
14627TIP3    H265297  -0.033   6.077  12.244 -0.8264  0.2477  0.6019
14628TIP3   OH265298   6.417   1.517   2.857 -0.2851 -0.1964  0.3261
14628TIP3    H165299   6.344   1.513   2.919 -0.6459 -1.1194 -0.1488
14628TIP3    H265300   6.493   1.492   2.910 -0.7357 -1.9416  0.2022
14629TIP3   OH265301   3.771   0.668  15.653 -0.3948  0.2326  0.1022
14629TIP3    H165302   3.811   0.611  15.719  1.9920  2.0511  0.3887
14629TIP3    H265303   3.818   0.648  15.572  0.1455  1.3912  0.1026
14630TIP3   OH265304   3.871   5.008   1.569 -0.0883  0.3065  0.8510
14630TIP3    H165305   3.909   5.092   1.595  0.5453  0.4351 -0.4264
14630TIP3    H265306   3.946   4.954   1.546 -0.6042  0.4202 -1.2960
14631TIP3   OH265307   0.628   5.391  17.259  0.3343 -0.4008  0.7040
14631TIP3    H165308   0.697   5.355  17.315  0.3255  0.1085  1.0566
14631TIP3    H265309   0.560   5.420  17.320  0.1093 -0.2735  0.3980
14632TIP3   OH265310   1.918   1.370  12.803  0.6447  0.5048  0.1005
14632TIP3    H165311   1.927   1.323  12.720 -0.5126  0.4770 -0.0336
14632TIP3    H265312   1.868   1.449  12.780 -0.0568  0.2869  0.8376
14633TIP3   OH265313   6.277   6.558   1.094  0.2659  0.1442 -0.1117
14633TIP3    H165314   6.351   6.567   1.033 -0.2060  1.7850 -0.4840
14633TIP3    H265315   6.300   6.613   1.168 -1.6812  2.8841 -1.3857
14634TIP3   OH265316   4.871   3.985   0.657 -0.7391 -0.3100  0.0938
14634TIP3    H165317   4.871   4.038   0.736  1.0872 -1.4545  0.9108
14634TIP3    H265318   4.923   4.034   0.594  0.3948 -0.7958  0.6347
14635TIP3   OH265319   6.444   3.293  12.068 -0.5817 -0.3243  0.4915
14635TIP3    H165320   6.451   3.292  12.164  0.7372 -0.1171  0.4116
14635TIP3    H265321   6.378   3.361  12.050 -0.1231  0.3327  1.2173
14636TIP3   OH265322   3.704   2.149  16.756  0.0528  0.2488 -0.2697
14636TIP3    H165323   3.762   2.081  16.790 -1.1916 -0.2172  1.0165
14636TIP3    H265324   3.757   2.228  16.756  1.3141 -0.5465 -1.1415
14637TIP3   OH265325   1.597   3.269   2.136 -0.1568  0.1039 -0.6894
14637TIP3    H165326   1.504   3.285   2.151  0.6075  2.8061  2.3201
14637TIP3    H265327   1.622   3.333   2.070 -0.1635  0.4229 -0.3860
14638TIP3   OH265328   5.241   6.089   1.027  0.1860 -0.3735 -0.6445
14638TIP3    H165329   5.187   6.129   1.096 -1.5306 -0.3935 -1.8990
14638TIP3    H265330   5.331   6.100   1.057 -0.3622  1.9291  0.4068
14639TIP3   OH265331   2.207   0.962   1.262  0.1700 -0.0187  0.2573
14639TIP3    H165332   2.168   0.878   1.284  0.7106 -0.3810 -0.1339
14639TIP3    H265333   2.155   1.027   1.310  0.8370 -0.7035  1.9561
14640TIP3   OH265334   6.497   0.692  13.426 -0.9181  0.2071 -0.0507
14640TIP3    H165335   6.505   0.763  13.490 -1.4581 -0.7427  1.1217
14640TIP3    H265336   6.420   0.714  13.374 -0.5102  0.9641 -0.3453
14641TIP3   OH265337   3.436   6.045   3.139  0.5377  0.3260 -0.1995
14641TIP3    H165338   3.416   6.017   3.050 -0.0338  0.9323 -0.2690
14641TIP3    H265339   3.472   5.967   3.182 -0.1946 -0.2565 -0.6364
14642TIP3   OH265340   5.225   4.416   4.994  0.1871  0.0590  0.6469
14642TIP3    H165341   5.213   4.502   4.954 -1.5487 -0.1671  0.5894
14642TIP3    H265342   5.198   4.428   5.085  0.1462 -0.3706  0.6930
14643TIP3   OH265343   6.658   6.231  13.322  0.3604  0.0363 -0.1195
14643TIP3    H165344   6.730   6.284  13.356 -0.3814  0.3042  1.1152
14643TIP3    H265345   6.597   6.295  13.286  0.3013 -0.1138 -0.2830
14644TIP3   OH265346   5.613   2.053   4.115  0.3974 -0.6620 -0.3382
14644TIP3    H165347   5.620   2.142   4.149  0.2389 -0.6645 -0.2954
14644TIP3    H265348   5.703   2.027   4.097  0.3947 -0.2470 -0.9817
14645TIP3   OH265349   6.467   3.814  13.359  0.5929  0.0861  0.0094
14645TIP3    H165350   6.531   3.750  13.389  0.6699 -0.7314 -1.7543
14645TIP3    H265351   6.489   3.828  13.267 -0.2291  1.6992  0.0216
14646TIP3   OH265352   1.051   1.101   4.849  0.2079 -0.7956 -0.2012
14646TIP3    H165353   0.957   1.089   4.863  0.1864 -0.5435 -0.1213
14646TIP3    H265354   1.081   1.018   4.812 -0.0995 -0.7717 -0.5020
14647TIP3   OH265355   6.600   2.415   4.311  0.6465  0.3667  0.1720
14647TIP3    H165356   6.585   2.343   4.373  0.9468  0.5983  0.5196
14647TIP3    H265357   6.649   2.375   4.239  0.1879  0.0687  0.0252
14648TIP3   OH265358   4.012   6.705  16.575 -0.6027  0.4925  0.1285
14648TIP3    H165359   4.064   6.775  16.536 -0.0856  0.5946  0.9853
14648TIP3    H265360   4.076   6.640  16.605 -0.7805  1.3660  2.6875
14649TIP3   OH265361   2.146   4.595   1.603 -0.5263 -0.1874 -0.0046
14649TIP3    H165362   2.075   4.546   1.643 -0.0983  1.7967  3.6676
14649TIP3    H265363   2.226   4.548   1.630 -0.2785  0.3761  0.2642
14650TIP3   OH265364   0.545   0.787   0.003  0.3890  0.1777 -0.1391
14650TIP3    H165365   0.627   0.835   0.001  0.0616  0.8098  0.7758
14650TIP3    H265366   0.539   0.754   0.093 -0.3552  0.1453 -0.1953
14651TIP3   OH265367   1.509   2.754  11.791  0.8581  0.0642 -0.2481
14651TIP3    H165368   1.527   2.735  11.699 -2.1079 -0.6358 -0.8099
14651TIP3    H265369   1.473   2.843  11.791  1.6004  0.3735  0.3685
14652TIP3   OH265370   6.384   1.149  12.329  0.0256 -0.2157 -0.3224
14652TIP3    H165371   6.432   1.067  12.313 -0.0700 -0.1612 -0.9030
14652TIP3    H265372   6.362   1.146  12.422  1.0815 -0.2837 -0.0632
14653TIP3   OH265373   1.858   2.239  12.822  0.1098 -0.0289  0.0791
14653TIP3    H165374   1.883   2.179  12.892 -0.3255  0.8566  1.0198
14653TIP3    H265375   1.940   2.285  12.800  0.0745  0.3261  0.6518
14654TIP3   OH265376   3.471   3.970  11.455  0.5191 -0.1086 -0.3050
14654TIP3    H165377   3.404   4.034  11.476  0.5436 -0.1981  0.0565
14654TIP3    H265378   3.548   3.999  11.504  0.0230 -1.4033  1.3403
14655TIP3   OH265379   1.998   4.924  14.759  0.3262 -0.2771 -0.2002
14655TIP3    H165380   1.956   5.010  14.759 -1.3008 -0.9783 -2.6527
14655TIP3    H265381   1.983   4.889  14.671  3.7136 -1.8013 -0.3262
14656TIP3   OH265382   6.305   1.771  15.611  0.1136  0.2569 -0.5918
14656TIP3    H165383   6.329   1.843  15.552  1.5713  0.1448 -0.1939
14656TIP3    H265384   6.309   1.693  15.556  0.2755  0.2883 -0.6270
14657TIP3   OH265385   0.743   4.060   2.686  0.4873 -0.3612  0.0206
14657TIP3    H165386   0.726   4.033   2.595  1.5577 -1.0827  0.0137
14657TIP3    H265387   0.703   3.991   2.739  1.4655 -0.9332  0.0425
14658TIP3   OH265388   3.843   5.900  15.023  0.3873  0.6497  0.0555
14658TIP3    H165389   3.885   5.821  14.988  1.8342  0.2336  2.4791
14658TIP3    H265390   3.912   5.967  15.021  1.0063  0.2401  3.1569
14659TIP3   OH265391   2.572   3.521  17.012 -0.2133 -0.1713  0.1076
14659TIP3    H165392   2.562   3.569  16.929 -0.9797  0.9641  0.8295
14659TIP3    H265393   2.520   3.441  17.000  0.1010 -0.2715 -0.6764
14660TIP3   OH265394   4.196   3.020   4.521  0.3417  0.0004 -0.3451
14660TIP3    H165395   4.166   3.094   4.574 -0.4250 -0.0202 -0.7374
14660TIP3    H265396   4.201   3.054   4.432  0.1442 -0.3752 -0.5016
14661TIP3   OH265397   5.802   6.288   4.320 -0.0341 -0.5339  0.1839
14661TIP3    H165398   5.826   6.346   4.392 -0.5287 -1.2356  0.9256
14661TIP3    H265399   5.735   6.231   4.357 -1.7255  0.3394 -1.3770
14662TIP3   OH265400   0.991   3.860  11.343  0.7986 -0.1786  0.2643
14662TIP3    H165401   1.071   3.911  11.347 -1.0308  2.9020  0.6648
14662TIP3    H265402   0.940   3.888  11.420 -1.4571 -0.5424 -0.9971
14663TIP3   OH265403   1.600   4.961  14.838 -0.2989  0.6565 -0.0914
14663TIP3    H165404   1.610   4.924  14.926 -0.1552  0.2854 -0.2622
14663TIP3    H265405   1.539   5.034  14.850 -1.3481 -0.2170  0.1008
14664TIP3   OH265406   1.108   2.280   0.273  0.0199 -0.7187 -0.4672
14664TIP3    H165407   1.057   2.355   0.242  0.3852 -0.4213 -0.3598
14664TIP3    H265408   1.063   2.204   0.238 -0.1261 -0.4271 -0.9167
14665TIP3   OH265409   4.434   0.312   0.256  0.2751 -0.4316 -0.2466
14665TIP3    H165410   4.411   0.221   0.274  0.0474 -0.7290 -1.8688
14665TIP3    H265411   4.392   0.331   0.172 -1.3540  1.7974  0.9369
14666TIP3   OH265412   4.957   4.631  15.329 -0.7358 -0.3351 -0.2318
14666TIP3    H165413   4.971   4.573  15.255 -1.0933 -0.5605 -0.1248
14666TIP3    H265414   4.930   4.573  15.400  0.8027 -0.2838  0.4406
14667TIP3   OH265415   2.820   3.422  13.926 -0.5486  0.1051  0.5681
14667TIP3    H165416   2.854   3.478  13.856 -0.0194 -1.7100 -0.7034
14667TIP3    H265417   2.729   3.404  13.900 -0.2250 -0.9139  0.0793
14668TIP3   OH265418   4.449   5.695  13.714  0.1480 -0.5048 -0.1213
14668TIP3    H165419   4.467   5.660  13.801  0.8115  1.1136  0.4289
14668TIP3    H265420   4.430   5.787  13.729  0.9679 -0.0284 -1.7586
14669TIP3   OH265421   4.105   4.153  12.663 -0.4161  0.0469 -0.1453
14669TIP3    H165422   4.054   4.156  12.744 -0.2287 -0.1888 -0.0181
14669TIP3    H265423   4.042   4.175  12.594 -1.2204 -2.2272 -0.2204
14670TIP3   OH265424   2.769   3.300  13.244  0.0647 -0.1120 -0.0931
14670TIP3    H165425   2.863   3.293  13.229  0.2820 -0.1151  1.1683
14670TIP3    H265426   2.730   3.233  13.187  0.9247 -1.0072  0.3581
14671TIP3   OH265427   4.406   1.437  15.881 -0.3773  0.3651  0.2050
14671TIP3    H165428   4.326   1.478  15.846 -0.0739 -0.4357 -1.5199
14671TIP3    H265429   4.460   1.421  15.804  3.0679  4.0003  1.5499
14672TIP3   OH265430   3.223   0.395   5.585  0.1327 -0.2232 -0.0535
14672TIP3    H165431   3.143   0.436   5.554 -1.0288 -1.7475  0.8136
14672TIP3    H265432   3.225   0.414   5.679  0.2876 -0.9680  0.1010
14673TIP3   OH265433   4.729   3.321   2.821 -0.1373 -0.0390 -0.4419
14673TIP3    H165434   4.742   3.251   2.757 -2.1396  0.2288 -1.2041
14673TIP3    H265435   4.708   3.398   2.769 -1.9455  0.1496  0.4867
14674TIP3   OH265436   0.809   5.245   1.150  0.7758 -0.2463 -0.3421
14674TIP3    H165437   0.732   5.219   1.099 -1.5400  0.5057  2.5251
14674TIP3    H265438   0.861   5.165   1.155 -0.9577 -1.4552 -0.4897
14675TIP3   OH265439   1.662   6.197  15.291  0.2761 -0.2049 -0.0915
14675TIP3    H165440   1.589   6.202  15.352 -0.5652 -1.1835 -0.9697
14675TIP3    H265441   1.739   6.180  15.346 -0.2023  0.5324  0.8190
14676TIP3   OH265442   6.111   2.921  13.879 -0.6884 -0.1831  0.2781
14676TIP3    H165443   6.034   2.941  13.931 -1.6650  0.2059 -1.2582
14676TIP3    H265444   6.077   2.894  13.794  0.8633  0.8632 -0.7496
14677TIP3   OH265445   4.086   2.138  15.115 -0.2510 -0.1293  0.1885
14677TIP3    H165446   4.025   2.066  15.101  1.5974 -1.5232 -1.1760
14677TIP3    H265447   4.060   2.204  15.051 -0.6993 -0.4568  0.0315
14678TIP3   OH265448   1.360   1.881  14.816 -0.3072  0.0829 -0.0265
14678TIP3    H165449   1.432   1.861  14.756 -1.9906 -0.3011 -2.0572
14678TIP3    H265450   1.283   1.887  14.759 -2.0365 -0.3862  2.1349
14679TIP3   OH265451   3.090   2.146  12.638  0.0909 -0.4069  0.8140
14679TIP3    H165452   3.088   2.239  12.619 -0.0703 -0.4476  0.6314
14679TIP3    H265453   3.034   2.136  12.715  0.6197 -0.2650  1.2231
14680TIP3   OH265454   3.524   4.777  12.862  0.3290 -0.1480  0.4769
14680TIP3    H165455   3.513   4.682  12.869  0.5392 -0.4086 -1.8717
14680TIP3    H265456   3.438   4.810  12.835  0.3149  0.3174  1.0652
14681TIP3   OH265457   5.370   4.224  13.717  0.1838  0.4902 -0.0590
14681TIP3    H165458   5.463   4.239  13.735  0.3784  0.2147 -0.8007
14681TIP3    H265459   5.356   4.132  13.740 -0.2870  0.9217  1.5400
14682TIP3   OH265460   5.027   2.713   2.449  0.1759  0.1381  0.1418
14682TIP3    H165461   5.079   2.787   2.479  0.6620 -0.3831  0.5965
14682TIP3    H265462   5.087   2.661   2.396  0.3390 -0.8413  1.2511
14683TIP3   OH265463   5.306   2.747   0.959  0.1223 -0.2135 -0.2483
14683TIP3    H165464   5.262   2.666   0.984 -0.0023  0.2328  1.0102
14683TIP3    H265465   5.388   2.746   1.008 -0.2443  0.8016  0.4128
14684TIP3   OH265466   4.067   4.254  10.557 -0.1924  0.2358  0.1795
14684TIP3    H165467   4.049   4.282  10.467 -0.6325 -0.9772 -0.1349
14684TIP3    H265468   3.983   4.262  10.602 -0.0174  0.6582  0.4329
14685TIP3   OH265469   1.639   5.793  16.677 -0.3836  0.4011  0.2449
14685TIP3    H165470   1.560   5.767  16.724 -0.6661 -0.5041 -0.7093
14685TIP3    H265471   1.616   5.785  16.585  0.5370  1.0341 -0.0508
14686TIP3   OH265472   4.949   1.394   0.548  0.1948  0.2010 -0.0086
14686TIP3    H165473   4.919   1.368   0.635 -1.1162 -0.8817 -0.7371
14686TIP3    H265474   4.884   1.458   0.519  1.8644  2.2955  0.6565
14687TIP3   OH265475   2.745   2.187  12.720  0.1018  0.3934 -0.1597
14687TIP3    H165476   2.822   2.165  12.773  0.0635 -0.6461 -0.5029
14687TIP3    H265477   2.766   2.154  12.633 -0.7945 -0.0475 -0.2173
14688TIP3   OH265478   3.901   2.335  15.402 -0.5583 -0.4218  0.2456
14688TIP3    H165479   3.898   2.274  15.476 -0.2695 -0.0686  0.5600
14688TIP3    H265480   3.879   2.420  15.441  0.1497 -0.1342  0.0428
14689TIP3   OH265481   5.070   5.082   2.742 -0.0865 -0.2027  0.1932
14689TIP3    H165482   5.133   5.019   2.706  0.5121 -0.9483  2.3759
14689TIP3    H265483   4.985   5.039   2.733  0.1528 -0.7355  0.4294
14690TIP3   OH265484   1.909   3.728   4.552  0.1985  0.4877 -0.3280
14690TIP3    H165485   1.825   3.731   4.507 -1.3411 -0.9571  2.2290
14690TIP3    H265486   1.974   3.733   4.482 -2.0192 -0.7888 -2.6131
14691TIP3   OH265487   3.390   5.532   4.231 -0.1925  0.0902 -0.0548
14691TIP3    H165488   3.349   5.619   4.232 -1.7614 -0.6225  1.3477
14691TIP3    H265489   3.483   5.550   4.217 -0.7349  1.8486 -2.0005
14692TIP3   OH265490   5.063   2.751   4.139  0.1842  0.0544 -0.1568
14692TIP3    H165491   5.008   2.674   4.127 -1.3307  1.3804 -2.3566
14692TIP3    H265492   5.143   2.731   4.090 -0.1807 -0.1308 -0.6778
14693TIP3   OH265493   0.166   2.277   3.631  0.3794  0.1638 -0.6021
14693TIP3    H165494   0.257   2.248   3.628  0.8820  1.6036 -0.2346
14693TIP3    H265495   0.171   2.371   3.651 -1.1512  0.4946 -1.5690
14694TIP3   OH265496   2.424   4.190   4.383  0.0289 -0.1013 -0.6598
14694TIP3    H165497   2.379   4.246   4.446 -1.1040 -0.0171 -1.5066
14694TIP3    H265498   2.514   4.223   4.381 -0.1813  0.5340  0.1644
14695TIP3   OH265499   0.687   4.873   3.066 -0.4690 -0.0803 -0.5046
14695TIP3    H165500   0.770   4.827   3.065 -0.6042 -0.4327  1.1749
14695TIP3    H265501   0.625   4.810   3.102 -1.0928  0.7191 -0.1224
14696TIP3   OH265502   2.972   6.309  12.879 -0.1587 -0.7649 -0.1072
14696TIP3    H165503   2.888   6.340  12.913 -1.2764 -2.9222 -0.6878
14696TIP3    H265504   3.035   6.330  12.949 -1.1607  0.8261  0.3700
14697TIP3   OH265505   3.511   1.219   2.522  0.5579  0.0393 -0.6787
14697TIP3    H165506   3.531   1.220   2.616  2.2351 -2.7973 -0.8874
14697TIP3    H265507   3.591   1.252   2.481 -0.4299  1.9646 -1.1486
14698TIP3   OH265508   0.778   4.018  11.915  0.1867  0.2160  0.2170
14698TIP3    H165509   0.818   3.967  11.986 -0.1155 -2.0671 -1.1602
14698TIP3    H265510   0.707   3.963  11.883 -0.1493  1.5095 -1.3893
14699TIP3   OH265511   0.764   4.646  13.792  0.2411 -0.0540 -0.0389
14699TIP3    H165512   0.734   4.633  13.881 -0.3759  1.6132  0.0365
14699TIP3    H265513   0.698   4.703  13.752  1.0897  0.1656 -1.1982
14700TIP3   OH265514   5.867   2.136   4.647 -0.6323 -0.6109 -0.1648
14700TIP3    H165515   5.944   2.185   4.679  0.9241 -1.9603 -1.6723
14700TIP3    H265516   5.898   2.091   4.569 -2.7223 -2.0014 -0.2640
14701TIP3   OH265517   5.711   3.872  11.668  0.4418 -0.2668 -0.2168
14701TIP3    H165518   5.759   3.927  11.605 -0.8335  1.2116  0.0152
14701TIP3    H265519   5.629   3.919  11.681 -1.2836 -2.8829 -0.9107
14702TIP3   OH265520   4.314   0.166  11.576  0.5963 -0.5710 -0.2903
14702TIP3    H165521   4.333   0.073  11.570  2.0283 -0.3046 -0.1471
14702TIP3    H265522   4.235   0.178  11.523 -0.0592 -1.9746  0.3164
14703TIP3   OH265523   1.049   3.666  10.859  0.4027  0.1896  0.5678
14703TIP3    H165524   0.974   3.641  10.805  0.3400  0.5431  0.4905
14703TIP3    H265525   1.080   3.584  10.897 -0.7475  0.1875  1.5361
14704TIP3   OH265526   3.795   4.635  13.080 -0.2771  0.5636  0.0096
14704TIP3    H165527   3.758   4.675  13.159 -1.5783 -1.1108  0.3119
14704TIP3    H265528   3.739   4.559  13.063  0.0292  0.8105 -2.4873
14705TIP3   OH265529   6.405   6.265   5.129  0.5460  0.0720 -1.2736
14705TIP3    H165530   6.331   6.215   5.095  0.5622 -2.0088  1.4264
14705TIP3    H265531   6.482   6.216   5.101  0.6971  0.0943 -0.9032
14706TIP3   OH265532   4.421   5.378  13.695  0.2293 -0.0577  0.0500
14706TIP3    H165533   4.375   5.372  13.779 -1.1208 -0.6960 -0.6875
14706TIP3    H265534   4.402   5.294  13.652  0.0825  0.6252 -1.2776
14707TIP3   OH265535   1.072   6.403  13.168  0.0359 -0.4905  0.1702
14707TIP3    H165536   1.158   6.362  13.163 -0.0289 -0.6739  0.4974
14707TIP3    H265537   1.057   6.440  13.081  0.0595 -1.2524 -0.1684
14708TIP3   OH265538   2.363   1.329  10.438 -0.3786  0.2645  0.5768
14708TIP3    H165539   2.318   1.286  10.366 -0.4246 -0.2916  0.9257
14708TIP3    H265540   2.456   1.310  10.424 -0.3842  0.1910  0.6331
14709TIP3   OH265541   3.152   5.364  11.733 -0.0016 -0.1906  0.3563
14709TIP3    H165542   3.160   5.428  11.662  0.1838 -2.7136 -2.0934
14709TIP3    H265543   3.065   5.325  11.720 -0.0659 -0.5228  1.7035
14710TIP3   OH265544   5.288   1.453  11.629 -0.1584  0.1973  0.7745
14710TIP3    H165545   5.339   1.454  11.548  0.9564  1.7104  1.4368
14710TIP3    H265546   5.318   1.530  11.677 -1.9402  0.2336  1.9298
14711TIP3   OH265547   4.282   3.103   3.105 -0.4022 -0.5219 -0.6612
14711TIP3    H165548   4.279   3.169   3.036 -2.1212  1.3356  1.0841
14711TIP3    H265549   4.343   3.037   3.071 -0.2800  0.8456 -3.4216
14712TIP3   OH265550   0.963   3.784   5.193 -0.4785  0.2363  0.1190
14712TIP3    H165551   0.909   3.763   5.269 -0.2180 -0.6266  0.0710
14712TIP3    H265552   0.921   3.738   5.120 -0.7396  1.0757 -0.2831
14713TIP3   OH265553   2.142   2.396   3.886 -0.0983 -0.2377  0.2196
14713TIP3    H165554   2.161   2.489   3.879  0.8878 -0.3070  1.5214
14713TIP3    H265555   2.050   2.388   3.861 -0.1878  1.0821  0.0802
14714TIP3   OH265556   1.701   1.132  13.207 -0.2583  0.4600 -0.0014
14714TIP3    H165557   1.731   1.213  13.166  0.7456 -0.2492 -0.7104
14714TIP3    H265558   1.613   1.119  13.171 -0.8782  1.7926  0.9719
14715TIP3   OH265559   2.926   6.406  14.047  0.3607  0.4407 -0.2269
14715TIP3    H165560   2.946   6.375  14.135 -2.9948 -0.6022  0.2993
14715TIP3    H265561   2.957   6.336  13.990 -1.8499 -1.2716  0.5548
14716TIP3   OH265562   4.677   5.587  17.269 -0.4386  0.1752  0.0295
14716TIP3    H165563   4.705   5.644  17.340  2.1180 -0.6471 -0.2262
14716TIP3    H265564   4.737   5.606  17.197 -2.9213  0.9449 -1.9740
14717TIP3   OH265565   1.793   6.291   5.736 -0.2802 -0.3652 -0.0243
14717TIP3    H165566   1.757   6.380   5.731 -0.8268 -0.6579 -2.2819
14717TIP3    H265567   1.821   6.282   5.827 -1.3401  1.6720  0.5668
14718TIP3   OH265568   3.607   6.331  15.437  0.1436  0.7236  0.0990
14718TIP3    H165569   3.564   6.251  15.466  1.1441  0.9299  2.3556
14718TIP3    H265570   3.678   6.300  15.380  0.9585 -0.1073  1.4945
14719TIP3   OH265571   3.787   2.488  12.763 -0.0860  0.5128  0.1984
14719TIP3    H165572   3.763   2.405  12.722  2.8826 -0.8446  0.9260
14719TIP3    H265573   3.777   2.473  12.857 -1.0190  1.5639  0.2996
14720TIP3   OH265574   6.268   3.938   4.148 -0.6533 -0.2542 -0.5375
14720TIP3    H165575   6.299   3.914   4.061 -2.6940 -0.1217 -1.3790
14720TIP3    H265576   6.188   3.989   4.131 -0.5244  0.6889  1.3937
14721TIP3   OH265577   0.053   5.959   5.302  0.2340  0.6516  0.3704
14721TIP3    H165578   0.078   5.928   5.215 -0.7964 -0.7165  0.5386
14721TIP3    H265579   0.132   5.945   5.355 -0.2909 -2.2702  0.5524
14722TIP3   OH265580   4.714   0.488   2.856  0.5740 -0.5686 -0.4591
14722TIP3    H165581   4.767   0.459   2.781  0.6501 -1.3554 -0.1207
14722TIP3    H265582   4.771   0.472   2.932  0.6102  0.4984 -0.2552
14723TIP3   OH265583   5.997   5.693   5.095 -0.2801 -0.2419  0.7066
14723TIP3    H165584   5.998   5.600   5.071  1.4548 -0.2534  0.6425
14723TIP3    H265585   6.041   5.737   5.022  2.5616  0.0769  2.4536
14724TIP3   OH265586   3.751   0.161  16.891  0.0822 -0.5052 -0.5867
14724TIP3    H165587   3.661   0.185  16.915  0.7877  0.6193  1.1277
14724TIP3    H265588   3.783   0.111  16.966  1.3512  0.3744 -0.5236
14725TIP3   OH265589   5.342   6.570   3.815  0.4976 -0.1577 -0.7725
14725TIP3    H165590   5.358   6.490   3.864  1.1103  1.1533  1.3228
14725TIP3    H265591   5.345   6.640   3.881  1.1848  1.7256 -2.6530
14726TIP3   OH265592   3.592   5.160  11.680 -0.4581 -0.1164 -0.0909
14726TIP3    H165593   3.681   5.163  11.714 -0.7316  1.3038  0.5889
14726TIP3    H265594   3.537   5.186  11.754 -1.4423 -0.8913 -0.5222
14727TIP3   OH265595   2.597   2.715   3.299 -0.5822 -0.5060 -0.2891
14727TIP3    H165596   2.556   2.636   3.335 -1.2484 -0.5930 -1.1924
14727TIP3    H265597   2.542   2.738   3.224  0.4241 -0.0036 -0.8956
14728TIP3   OH265598   6.247   1.577  14.956  0.0111  0.1523 -0.0984
14728TIP3    H165599   6.308   1.633  14.910  1.2009 -0.8810  0.1669
14728TIP3    H265600   6.289   1.491  14.957 -0.3650 -0.0684  2.1209
14729TIP3   OH265601   6.176   5.110   3.200 -0.0967  0.0594 -0.2852
14729TIP3    H165602   6.272   5.105   3.207 -0.2608 -1.6322  1.2638
14729TIP3    H265603   6.155   5.200   3.228  0.9666  0.1099  0.4132
14730TIP3   OH265604   5.740   5.738   3.677  0.5036 -0.0700 -0.3840
14730TIP3    H165605   5.766   5.647   3.663  0.0948 -0.2982  0.3126
14730TIP3    H265606   5.687   5.760   3.601 -0.6664 -0.9010  0.1596
14731TIP3   OH265607   0.614   2.751  16.947  0.3374 -0.1239  0.0136
14731TIP3    H165608   0.700   2.722  16.976  1.2809  2.6038  0.2476
14731TIP3    H265609   0.555   2.725  17.018  1.8735  2.3150  2.3879
14732TIP3   OH265610   1.468   3.278   3.851 -0.1227  0.6001  0.7699
14732TIP3    H165611   1.523   3.316   3.783 -1.4488  1.2179 -0.0036
14732TIP3    H265612   1.388   3.252   3.805 -0.3172 -0.6795  1.7762
14733TIP3   OH265613   6.752   5.948   3.193  0.1981 -0.6668 -0.3611
14733TIP3    H165614   6.761   5.862   3.233 -1.2482 -1.1331 -0.9447
14733TIP3    H265615   6.659   5.970   3.206  1.0912  2.1425  2.3964
14734TIP3   OH265616   5.200   4.949  10.633 -0.5573  0.2925 -0.6124
14734TIP3    H165617   5.251   4.963  10.553  0.4078  0.2827 -0.0156
14734TIP3    H265618   5.119   4.909  10.603 -0.0338 -0.0922 -1.5512
14735TIP3   OH265619   2.014   6.709  10.812 -0.0045 -0.1755 -0.5249
14735TIP3    H165620   1.960   6.702  10.733  0.2198 -0.1448 -0.6818
14735TIP3    H265621   1.955   6.687  10.884 -0.2523 -0.0431 -0.6869
14736TIP3   OH265622   0.778   4.342  14.404  0.2639  0.0872  0.3359
14736TIP3    H165623   0.796   4.257  14.362 -2.4179  1.0742 -3.3408
14736TIP3    H265624   0.842   4.402  14.364 -1.4042  0.7570 -1.5000
14737TIP3   OH265625   1.206   6.717  10.849 -0.5014  0.3856 -0.3273
14737TIP3    H165626   1.238   6.784  10.789 -1.9503  1.6420  0.2541
14737TIP3    H265627   1.190   6.640  10.794  1.1490  0.5032 -1.0015
14738TIP3   OH265628   4.481   2.969   2.958 -0.4529 -0.7468 -0.1037
14738TIP3    H165629   4.552   3.029   2.980 -0.3414 -0.8817 -0.0943
14738TIP3    H265630   4.490   2.953   2.864  0.3289 -1.7831  0.1250
14739TIP3   OH265631   2.188   1.533   3.877 -0.5337  0.2055  0.0077
14739TIP3    H165632   2.121   1.586   3.921 -0.6646  0.2648 -0.2628
14739TIP3    H265633   2.271   1.568   3.910 -0.6035  0.9675 -0.6054
14740TIP3   OH265634   3.458   6.730   6.562  0.2045  0.2201 -0.0952
14740TIP3    H165635   3.455   6.660   6.496 -0.1497  0.2676 -0.1308
14740TIP3    H265636   3.551   6.753   6.568  0.2679  0.0565 -0.4112
14741TIP3   OH265637   0.916   3.107   0.975  0.4495  0.0123 -0.1962
14741TIP3    H165638   0.842   3.057   1.009  0.0866  1.5977  1.5599
14741TIP3    H265639   0.884   3.144   0.892 -0.4948  0.0823  0.1822
14742TIP3   OH265640   2.409   5.454   0.302  0.2437  0.0118  0.4026
14742TIP3    H165641   2.344   5.521   0.281 -1.5624 -1.6136  0.4428
14742TIP3    H265642   2.382   5.421   0.388  0.8671 -0.9956  0.2321
14743TIP3   OH265643   6.579   5.013  14.605  0.1659 -0.0556 -0.2705
14743TIP3    H165644   6.518   5.071  14.560  0.3280  0.9144  0.7176
14743TIP3    H265645   6.665   5.052  14.589  0.2907 -0.0949  0.2625
14744TIP3   OH265646   5.101   1.960  14.969  0.6296  0.2505 -0.2375
14744TIP3    H165647   5.152   1.881  14.952 -0.5573 -0.4506 -0.6902
14744TIP3    H265648   5.019   1.928  15.005  0.6807  1.3903  0.9538
14745TIP3   OH265649   2.173   3.316  10.877  0.1605  0.0033 -0.0684
14745TIP3    H165650   2.099   3.377  10.883  0.5342  0.2967  2.9752
14745TIP3    H265651   2.133   3.232  10.854 -1.0382  0.3093  0.8131
14746TIP3   OH265652   3.958   4.514  13.614 -0.1440  0.2484 -0.3686
14746TIP3    H165653   3.885   4.453  13.621 -0.2760  0.4365 -0.1230
14746TIP3    H265654   3.926   4.583  13.556  0.1810 -0.1677 -1.0707
14747TIP3   OH265655   5.068   0.762  13.409  0.3448 -0.7420 -0.2400
14747TIP3    H165656   5.097   0.751  13.499 -0.8958  1.3916  0.4933
14747TIP3    H265657   5.107   0.845  13.381 -0.2516 -0.7761 -1.2472
14748TIP3   OH265658   4.610   0.499  11.267  0.5158  0.2349  0.4120
14748TIP3    H165659   4.642   0.533  11.183 -0.2582 -1.3969 -0.5808
14748TIP3    H265660   4.616   0.404  11.259 -2.1148 -0.0645  1.1685
14749TIP3   OH265661   4.845   2.144  14.611  0.4712  0.1779 -0.1188
14749TIP3    H165662   4.910   2.146  14.682  0.5003  2.2714 -0.1452
14749TIP3    H265663   4.895   2.168  14.533 -0.2401  1.4681 -0.1957
14750TIP3   OH265664   6.771   4.461   4.870 -0.1757 -0.1259  0.0059
14750TIP3    H165665   6.715   4.513   4.928  1.0614  1.0144  0.2468
14750TIP3    H265666   6.799   4.387   4.923 -3.5110 -2.2828 -0.9206
14751TIP3   OH265667   6.207   5.855  12.555 -0.4129  0.2670 -0.4403
14751TIP3    H165668   6.122   5.898  12.562  0.3986  1.6704  1.6931
14751TIP3    H265669   6.270   5.927  12.543  0.5700 -0.6713 -1.1682
14752TIP3   OH265670   3.115   5.941  14.511 -0.6413  0.3938  0.5806
14752TIP3    H165671   3.073   6.024  14.531 -1.9235 -0.8673  3.7671
14752TIP3    H265672   3.064   5.905  14.439 -1.6646  1.2357  0.8582
14753TIP3   OH265673   2.189   1.579   3.008 -0.6987 -0.2724  0.3010
14753TIP3    H165674   2.276   1.570   3.048 -0.3885 -0.6451 -0.4459
14753TIP3    H265675   2.206   1.577   2.914 -1.4375  0.4512  0.1429
14754TIP3   OH265676   5.002   6.386   2.304  0.3106 -0.0116  0.8937
14754TIP3    H165677   5.080   6.384   2.248  0.1852  1.4827  0.6152
14754TIP3    H265678   5.027   6.441   2.378 -0.0553 -0.6363  1.4900
14755TIP3   OH265679   5.921   4.463  11.340 -0.2911  0.4704 -0.0389
14755TIP3    H165680   5.894   4.537  11.285  1.4409  1.3867  0.2717
14755TIP3    H265681   5.931   4.501  11.427 -0.9362 -0.5055  0.4726
14756TIP3   OH265682   5.057   1.262   1.275  0.6232 -0.7851 -0.4065
14756TIP3    H165683   4.982   1.249   1.218 -0.2603  2.7160 -0.2752
14756TIP3    H265684   5.022   1.248   1.363  0.0542  0.7482 -0.3510
14757TIP3   OH265685   5.827   3.715   6.325 -0.0698  0.1644 -0.2170
14757TIP3    H165686   5.915   3.731   6.357  0.3181 -1.2819 -0.4874
14757TIP3    H265687   5.836   3.640   6.266 -1.3701  0.4177 -0.7719
14758TIP3   OH265688   6.056   6.735  15.079 -0.5273 -1.0354  0.1929
14758TIP3    H165689   6.063   6.702  15.169  2.4684  0.1689  0.5290
14758TIP3    H265690   6.092   6.823  15.082 -1.8149 -0.3518 -1.9484
14759TIP3   OH265691   4.612   6.468  12.299  0.7336 -0.2656 -0.3413
14759TIP3    H165692   4.685   6.530  12.311  1.0066 -0.6846  0.1828
14759TIP3    H265693   4.654   6.386  12.274  0.4617 -0.5764  0.2131
14760TIP3   OH265694   4.134   4.852   4.920  0.1628 -0.3270  0.2227
14760TIP3    H165695   4.115   4.944   4.939  0.6113  0.1444 -1.4704
14760TIP3    H265696   4.052   4.806   4.938 -0.7675  0.7613 -1.0717
14761TIP3   OH265697   2.182   0.660  13.563  0.0024  0.3721 -0.4925
14761TIP3    H165698   2.138   0.741  13.537 -0.4105  1.1124  2.2476
14761TIP3    H265699   2.265   0.688  13.600 -0.2090 -0.3961  0.6306
14762TIP3   OH265700   3.488   1.121   5.266  0.2362 -0.2253  0.3080
14762TIP3    H165701   3.552   1.133   5.336  1.3377 -1.4786 -0.4309
14762TIP3    H265702   3.448   1.036   5.285  0.5682 -0.5935 -0.5625
14763TIP3   OH265703   6.622   1.308   6.544 -0.0130 -0.2166 -0.2817
14763TIP3    H165704   6.538   1.277   6.510  1.2298 -1.3505 -2.5431
14763TIP3    H265705   6.613   1.302   6.639 -1.5308 -3.0824 -0.4932
14764TIP3   OH265706   0.118   4.718   0.898  0.9418 -0.0693  0.4169
14764TIP3    H165707   0.174   4.695   0.973  0.6517  0.1764  0.7153
14764TIP3    H265708   0.157   4.672   0.824  0.9882 -0.6613  0.8010
14765TIP3   OH265709   4.688   0.930  15.168 -0.1201  0.8555 -0.1894
14765TIP3    H165710   4.612   0.986  15.152 -3.0628 -2.3308  1.3039
14765TIP3    H265711   4.697   0.879  15.087 -0.7894  0.0487  0.2171
14766TIP3   OH265712   4.733   1.991  15.389  0.5436 -0.5142 -0.1318
14766TIP3    H165713   4.767   2.073  15.425 -1.5660  0.6903 -0.6695
14766TIP3    H265714   4.643   2.012  15.364 -0.2225 -3.1391  0.1169
14767TIP3   OH265715   5.455   0.333   0.586  0.2351 -0.1038 -0.2407
14767TIP3    H165716   5.489   0.384   0.659  2.3119  0.3802 -1.4689
14767TIP3    H265717   5.425   0.251   0.625  2.8872 -0.5701  0.9872
14768TIP3   OH265718   1.852   5.442   3.426  0.2967 -0.4168  0.1382
14768TIP3    H165719   1.834   5.430   3.333  1.6668 -2.8871  0.0923
14768TIP3    H265720   1.773   5.482   3.461 -0.0894  0.9612 -2.1352
14769TIP3   OH265721   0.102   6.028   0.801 -0.4614  0.1256  0.3761
14769TIP3    H165722   0.065   6.088   0.735 -0.6650 -0.5700 -0.1487
14769TIP3    H265723   0.057   6.051   0.882 -1.5950 -0.2808 -0.1233
14770TIP3   OH265724   3.415   5.478  13.965  0.0150  0.3285 -0.4198
14770TIP3    H165725   3.369   5.394  13.965  0.4983  0.0573  0.3093
14770TIP3    H265726   3.508   5.455  13.958  0.1829  0.7763  0.2408
14771TIP3   OH265727   5.135   5.796  13.047  0.7422  0.1652 -0.5224
14771TIP3    H165728   5.127   5.794  13.142 -0.5471  2.6218 -0.4875
14771TIP3    H265729   5.046   5.817  13.016  1.2665  0.0198 -2.2244
14772TIP3   OH265730   6.119   3.557   2.253  0.0964 -0.0902  0.4761
14772TIP3    H165731   6.185   3.594   2.312  0.9262  0.7647 -0.9295
14772TIP3    H265732   6.169   3.525   2.177 -1.0495  0.0728 -0.3809
14773TIP3   OH265733   2.328   5.968  15.073 -0.5565  0.4365  0.0246
14773TIP3    H165734   2.248   5.999  15.030 -0.4794  3.0575  1.5477
14773TIP3    H265735   2.355   6.041  15.128  3.1550 -0.1889 -0.7108
14774TIP3   OH265736   2.919   5.969  11.708  0.5984 -0.5719 -0.3153
14774TIP3    H165737   2.912   5.888  11.759  0.7783  1.1394  2.6457
14774TIP3    H265738   2.848   5.963  11.645 -1.4409 -1.7188  1.9025
14775TIP3   OH265739   6.100   4.388  13.068 -0.2329 -0.6548 -0.0331
14775TIP3    H165740   6.194   4.403  13.075 -0.5233  1.5855 -0.2656
14775TIP3    H265741   6.077   4.419  12.981 -1.3807  0.0920  0.5142
14776TIP3   OH265742   5.797   5.249   1.740  0.4865 -0.1756 -0.3770
14776TIP3    H165743   5.786   5.343   1.725  0.8636  0.0094  0.4046
14776TIP3    H265744   5.822   5.243   1.833 -2.2940 -1.2361  0.4175
14777TIP3   OH265745   2.216   4.313  15.539  0.0235 -0.1653  0.3936
14777TIP3    H165746   2.128   4.323  15.575 -0.6839 -0.0460 -1.2760
14777TIP3    H265747   2.273   4.308  15.615 -1.6102 -2.1494  1.5961
14778TIP3   OH265748   2.086   1.250   3.171  0.7909  0.0973 -0.3519
14778TIP3    H165749   2.111   1.205   3.090 -0.3369  0.3763 -0.8768
14778TIP3    H265750   2.050   1.334   3.141 -0.7251 -0.2761  0.3509
14779TIP3   OH265751   3.658   6.444  14.628 -0.6588  0.1699  0.0823
14779TIP3    H165752   3.746   6.435  14.592 -0.5612  1.0122  0.0689
14779TIP3    H265753   3.663   6.523  14.682 -1.2621 -0.0923  0.5288
14780TIP3   OH265754   1.248   6.254  12.599  0.2361 -0.2207  0.1585
14780TIP3    H165755   1.291   6.169  12.603 -0.1508 -0.7533 -3.4682
14780TIP3    H265756   1.313   6.312  12.558 -0.3563  0.5919  0.3354
14781TIP3   OH265757   4.842   5.913  14.755 -0.2716  0.1754 -0.0473
14781TIP3    H165758   4.918   5.968  14.737  0.2447 -0.4704  0.1336
14781TIP3    H265759   4.803   5.950  14.834  0.0290  0.3296  0.0289
14782TIP3   OH265760   5.049   4.703   4.569 -0.0340 -0.1409  0.1045
14782TIP3    H165761   5.013   4.785   4.535 -0.7607  0.0469  1.2689
14782TIP3    H265762   5.008   4.692   4.655  1.2771 -0.9020  0.6677
14783TIP3   OH265763   3.754   3.536  16.998 -0.3840 -0.0895 -0.4546
14783TIP3    H165764   3.789   3.557  16.912 -1.0794  0.1094 -0.6928
14783TIP3    H265765   3.804   3.591  17.058  0.8136 -0.9665 -0.6023
14784TIP3   OH265766   1.257   0.476   0.329 -0.0905  0.1406 -0.4274
14784TIP3    H165767   1.271   0.398   0.383 -1.5617  1.4824  2.0760
14784TIP3    H265768   1.326   0.536   0.356  1.0906 -0.2314 -2.4080
14785TIP3   OH265769   1.157   1.159   4.115  0.1149 -0.4610  0.9343
14785TIP3    H165770   1.243   1.130   4.144  0.3595 -2.9681 -1.7942
14785TIP3    H265771   1.175   1.215   4.040 -0.6221  1.6455  2.2453
14786TIP3   OH265772   2.662   1.208   5.793  0.0371 -0.2649 -0.1504
14786TIP3    H165773   2.653   1.261   5.714  0.3538  0.7004  0.4426
14786TIP3    H265774   2.754   1.220   5.818 -0.1673 -0.2388  0.5887
14787TIP3   OH265775   2.274   6.023  14.394 -0.2365  0.2495 -0.1324
14787TIP3    H165776   2.367   6.006  14.376 -0.4618 -0.1219 -0.9550
14787TIP3    H265777   2.275   6.101  14.450  0.7141 -1.1966  2.0125
14788TIP3   OH265778   4.979   6.374  13.214  0.1102 -0.1163 -0.2246
14788TIP3    H165779   4.953   6.465  13.199  1.7836  0.6967  1.4085
14788TIP3    H265780   4.903   6.323  13.186 -2.1122  1.9324  1.6113
14789TIP3   OH265781   0.492   1.230  15.939 -0.0127 -0.0225  0.1215
14789TIP3    H165782   0.586   1.212  15.937  0.2856  0.8907 -3.9277
14789TIP3    H265783   0.483   1.309  15.992  2.2448  2.3351 -2.6337
14790TIP3   OH265784   4.548   1.943  12.974  0.1563 -0.1762 -1.0027
14790TIP3    H165785   4.558   1.865  12.919  2.0309  1.1306 -2.6739
14790TIP3    H265786   4.571   1.914  13.062 -0.9369 -1.8789 -1.2306
14791TIP3   OH265787   4.251   5.661   3.456  0.5792  0.3222 -0.1900
14791TIP3    H165788   4.299   5.605   3.518 -0.1149 -1.2144 -0.9924
14791TIP3    H265789   4.314   5.679   3.387  0.6466  0.0881 -0.1915
14792TIP3   OH265790   1.566   4.560   0.115 -0.2717 -0.1020 -0.1107
14792TIP3    H165791   1.478   4.535   0.144  0.4959 -3.3650 -0.2442
14792TIP3    H265792   1.551   4.620   0.043 -2.4276 -0.8067 -0.3148
14793TIP3   OH265793   4.903   0.830  13.160 -0.6101 -0.4845 -0.7082
14793TIP3    H165794   4.826   0.864  13.205  0.0479 -0.4420  0.4334
14793TIP3    H265795   4.948   0.778  13.227  2.8493  3.2468  0.2232
14794TIP3   OH265796   0.935   2.652   3.599 -0.8752  0.4191  0.1832
14794TIP3    H165797   1.014   2.702   3.618  0.0653 -0.0658 -2.1011
14794TIP3    H265798   0.881   2.712   3.547 -1.6520  0.4696  1.0354
14795TIP3   OH265799   2.008   3.337  16.100 -0.0307  0.0708  0.3162
14795TIP3    H165800   1.972   3.345  16.011 -0.5905  2.7969  0.6938
14795TIP3    H265801   1.954   3.271  16.142 -0.3717 -0.5798 -1.0908
14796TIP3   OH265802   6.189   4.337  13.585  0.0217  0.5654 -0.3110
14796TIP3    H165803   6.176   4.429  13.565 -0.8148  0.4049 -0.5470
14796TIP3    H265804   6.119   4.292  13.537  1.6438 -0.3962 -1.9274
14797TIP3   OH265805   5.591   0.294   6.064  0.3601 -0.3945 -0.6794
14797TIP3    H165806   5.644   0.223   6.029  1.0810 -0.5574  0.6717
14797TIP3    H265807   5.610   0.294   6.158 -4.1189 -2.3490  0.4998
14798TIP3   OH265808   1.720   2.006  15.634 -0.3900  0.0588  0.0151
14798TIP3    H165809   1.688   2.094  15.615  0.6679  0.3802 -0.3502
14798TIP3    H265810   1.708   1.958  15.552  0.0012  0.1629 -0.1040
14799TIP3   OH265811   2.174   2.541  13.312  0.3492  0.0184 -0.0981
14799TIP3    H165812   2.151   2.581  13.396  0.2989  0.2866 -0.2376
14799TIP3    H265813   2.188   2.616  13.253  0.3626 -0.1687 -0.3335
14800TIP3   OH265814   2.164   1.759  13.130  0.0408  0.1382 -0.6382
14800TIP3    H165815   2.103   1.826  13.160 -1.3665  0.1403 -3.1686
14800TIP3    H265816   2.250   1.802  13.134 -0.4071  0.9790  0.7156
14801TIP3   OH265817   3.188   2.112  13.962 -0.0902  0.5715  0.7071
14801TIP3    H165818   3.275   2.154  13.959  0.2828 -0.2243 -0.1300
14801TIP3    H265819   3.165   2.113  14.055  1.1320  0.1831  1.0430
14802TIP3   OH265820   3.465   2.210  15.282  0.3023  0.0682 -0.1286
14802TIP3    H165821   3.544   2.175  15.323 -0.2792  1.4179  2.3496
14802TIP3    H265822   3.394   2.156  15.316 -0.0477  0.1139 -0.7724
14803TIP3   OH265823   3.998   0.735  12.623 -0.6188  1.1252 -0.3215
14803TIP3    H165824   3.907   0.758  12.602 -1.2550 -0.2779  0.6655
14803TIP3    H265825   4.027   0.681  12.550 -0.6997  1.3083 -0.4872
14804TIP3   OH265826   0.177   1.418   4.838 -0.0222 -0.4741  0.4786
14804TIP3    H165827   0.164   1.454   4.751 -0.3250 -1.3223  0.1732
14804TIP3    H265828   0.175   1.323   4.827  0.3868 -0.5977  1.3366
14805TIP3   OH265829   4.139   1.562  15.097  0.8597  0.1071  0.2714
14805TIP3    H165830   4.226   1.551  15.135  0.3429 -2.4165  0.9070
14805TIP3    H265831   4.150   1.534  15.006  0.2905 -2.8029  0.9862
14806TIP3   OH265832   6.477   3.515   4.960 -0.2725  0.6701  0.1742
14806TIP3    H165833   6.532   3.510   4.881  1.7410 -0.1323  1.5422
14806TIP3    H265834   6.508   3.443   5.015 -2.3815  0.5225  1.2770
14807TIP3   OH265835   2.970   2.129  16.023  0.3326  0.5183 -0.2695
14807TIP3    H165836   3.003   2.184  16.095 -1.9486  1.1146  0.4204
14807TIP3    H265837   2.942   2.192  15.957  2.9579 -0.0316 -2.0804
14808TIP3   OH265838   4.723   2.630  17.243 -0.3889  0.6067  0.6527
14808TIP3    H165839   4.653   2.566  17.228 -0.3852  0.6410  0.4887
14808TIP3    H265840   4.707   2.663  17.331 -0.9297  1.0532  0.3910
14809TIP3   OH265841   1.505   1.927  14.301  0.1914 -0.1708  0.1659
14809TIP3    H165842   1.535   2.015  14.280 -0.5090  0.0770  0.1670
14809TIP3    H265843   1.570   1.869  14.262  0.1292  0.3269 -0.7040
14810TIP3   OH265844   0.623   2.348  15.155 -0.6852 -0.3921 -0.5733
14810TIP3    H165845   0.599   2.309  15.240 -0.8463 -2.0864 -1.3453
14810TIP3    H265846   0.671   2.279  15.110  2.0638  1.4850 -0.7585
14811TIP3   OH265847   0.065   3.608   6.250  0.3012  0.1445  0.5501
14811TIP3    H165848  -0.015   3.584   6.298  0.3816 -1.6863 -0.1665
14811TIP3    H265849   0.113   3.526   6.242  1.3417  0.8563 -0.7264
14812TIP3   OH265850   5.098   1.259  10.443  0.5318 -0.3045  0.4001
14812TIP3    H165851   5.117   1.187  10.383  0.1058  0.3337 -0.5385
14812TIP3    H265852   5.174   1.316  10.436  0.2986 -0.0175  0.1183
14813TIP3   OH265853   0.520   0.647  15.505 -0.5352 -0.0491  0.6099
14813TIP3    H165854   0.590   0.628  15.442  1.3466 -1.1329  2.8821
14813TIP3    H265855   0.542   0.732  15.542 -1.0333  0.0924  0.5934
14814TIP3   OH265856   4.565   6.321  15.358  0.2405 -0.1484  0.5213
14814TIP3    H165857   4.486   6.296  15.406  0.1951  0.2855  0.6724
14814TIP3    H265858   4.601   6.394  15.408  0.8620 -0.4858  0.5833
14815TIP3   OH265859   6.074   4.211   0.466 -0.0157 -0.4848  0.0167
14815TIP3    H165860   6.052   4.155   0.541  0.0871 -1.0490 -0.3663
14815TIP3    H265861   5.993   4.216   0.416  0.1660 -0.8902 -0.3269
14816TIP3   OH265862   5.036   4.180   4.327  0.6254  0.1747 -0.3081
14816TIP3    H165863   5.112   4.127   4.301  1.0661 -0.1058  1.3967
14816TIP3    H265864   5.071   4.269   4.337  1.3526 -0.3262  2.6296
14817TIP3   OH265865   4.620   4.521  12.687  0.2723  0.0495  0.4033
14817TIP3    H165866   4.711   4.494  12.677 -0.1658 -0.8496 -1.9914
14817TIP3    H265867   4.575   4.441  12.715 -0.0804 -0.0954 -0.5438
14818TIP3   OH265868   4.850   3.031  16.435  0.0449  0.1075 -0.0003
14818TIP3    H165869   4.866   3.070  16.521 -0.3831 -2.5461  1.4044
14818TIP3    H265870   4.756   3.013  16.435  0.0221  0.1501 -1.0957
14819TIP3   OH265871   4.246   1.089   4.235 -0.3676 -0.2300 -0.1639
14819TIP3    H165872   4.157   1.056   4.250  0.7725 -2.3605  2.8773
14819TIP3    H265873   4.247   1.175   4.275 -0.6733 -0.9071  1.3840
14820TIP3   OH265874   1.372   3.954  14.493  0.1044  0.2314  0.3246
14820TIP3    H165875   1.360   3.887  14.426  1.4854 -1.2539  1.4702
14820TIP3    H265876   1.339   4.035  14.453 -1.0171 -0.9832 -1.3418
14821TIP3   OH265877   5.679   3.208  11.607 -0.4348  0.4630  0.5756
14821TIP3    H165878   5.694   3.232  11.516 -2.6228 -1.1153 -0.2811
14821TIP3    H265879   5.755   3.156  11.631  1.0147  2.3303  0.2839
14822TIP3   OH265880   1.125   2.463  14.487 -0.6828  0.0635 -0.1632
14822TIP3    H165881   1.175   2.392  14.527 -2.3981 -0.0819  1.9780
14822TIP3    H265882   1.149   2.540  14.539 -2.2084  0.0770  0.5938
14823TIP3   OH265883   3.991   1.918  14.758 -0.3212  0.1952  0.0011
14823TIP3    H165884   4.085   1.935  14.758 -0.0377 -1.2701 -0.4100
14823TIP3    H265885   3.962   1.938  14.669 -0.0116 -1.2372 -0.4444
14824TIP3   OH265886   3.585   5.522   5.879 -0.3697 -0.4098 -0.2477
14824TIP3    H165887   3.652   5.504   5.945  0.0113 -0.1002 -0.5439
14824TIP3    H265888   3.633   5.522   5.796  0.1797  4.1546 -0.1691
14825TIP3   OH265889   2.525   5.757  15.365  0.0643  0.5654  0.7440
14825TIP3    H165890   2.557   5.671  15.340  0.1944  1.1870 -1.4316
14825TIP3    H265891   2.448   5.739  15.418 -0.0354 -0.9009  0.1572
14826TIP3   OH265892   0.044   2.722  10.978 -0.4500 -0.8885 -0.0856
14826TIP3    H165893   0.099   2.720  10.900  1.0783 -1.8898  0.9589
14826TIP3    H265894   0.002   2.808  10.976  1.7247  0.2172 -0.5628
14827TIP3   OH265895   5.464   4.270  11.543 -0.8660  0.6195  0.1263
14827TIP3    H165896   5.496   4.296  11.457 -1.1076  0.3649 -0.0437
14827TIP3    H265897   5.478   4.347  11.598 -2.2329  1.3905 -0.5473
14828TIP3   OH265898   0.081   4.430  15.156 -0.0573  0.2329 -0.1117
14828TIP3    H165899  -0.012   4.450  15.147 -0.0731  0.1527 -0.1228
14828TIP3    H265900   0.105   4.467  15.241 -0.5185 -1.3311  0.7271
14829TIP3   OH265901   5.557   1.719   2.851  0.1920 -0.7287 -0.6029
14829TIP3    H165902   5.591   1.697   2.938 -0.3601 -0.9726 -0.4391
14829TIP3    H265903   5.623   1.686   2.790  0.4451 -0.8149 -0.2823
14830TIP3   OH265904   4.692   0.242  16.911 -0.0682  0.0098 -0.1562
14830TIP3    H165905   4.730   0.251  16.824 -2.2751  1.1684 -1.0636
14830TIP3    H265906   4.711   0.325  16.955 -1.1032  0.4083 -0.4460
14831TIP3   OH265907   1.732   4.701   5.272 -0.4256 -0.6824  0.2507
14831TIP3    H165908   1.651   4.734   5.234  0.2743  1.3770  0.3946
14831TIP3    H265909   1.716   4.700   5.366 -0.2954 -0.2657  0.2799
14832TIP3   OH265910   4.444   4.117  16.326 -0.0391 -0.1249  0.4341
14832TIP3    H165911   4.441   4.134  16.232  3.3214  0.6003  0.3210
14832TIP3    H265912   4.487   4.032  16.333  1.3097  0.5958  1.3009
14833TIP3   OH265913   2.748   1.374   2.334 -0.1654  0.7279  0.0242
14833TIP3    H165914   2.705   1.311   2.392 -2.1206  0.6426 -1.4167
14833TIP3    H265915   2.720   1.349   2.246  0.4045  2.5619 -0.7346
14834TIP3   OH265916   3.528   5.204   0.060 -0.3474 -0.7177  0.0049
14834TIP3    H165917   3.519   5.193   0.155  0.0506  2.5534  0.5428
14834TIP3    H265918   3.609   5.253   0.049 -0.9092 -0.1403 -1.9610
14835TIP3   OH265919   6.555   4.232   1.135  0.4618  0.8247 -0.2344
14835TIP3    H165920   6.496   4.160   1.155  1.9083 -0.2174  0.5422
14835TIP3    H265921   6.540   4.253   1.043 -0.6370  0.1609 -0.2116
14836TIP3   OH265922   6.218   6.522   4.094 -1.3933 -1.3164 -0.5469
14836TIP3    H165923   6.226   6.605   4.047 -1.6644 -0.6616  0.5091
14836TIP3    H265924   6.307   6.489   4.101 -1.2586 -1.0142 -0.7977
14837TIP3   OH265925   5.651   2.647   0.375 -0.2402  0.3872  0.1028
14837TIP3    H165926   5.631   2.620   0.285  1.4475  1.7137 -0.7340
14837TIP3    H265927   5.720   2.587   0.404 -2.4255 -1.6394  1.5210
14838TIP3   OH265928   1.965   3.445  14.907 -0.3876  0.3143  0.1492
14838TIP3    H165929   1.904   3.411  14.841  0.6242 -2.8045  0.6525
14838TIP3    H265930   1.911   3.462  14.984 -0.8126 -1.3909  0.2508
14839TIP3   OH265931   6.555   2.640  11.222  0.6875 -0.5767 -0.3152
14839TIP3    H165932   6.512   2.694  11.289  1.7710  0.8274 -0.6907
14839TIP3    H265933   6.485   2.615  11.163 -0.0779 -0.7760  0.6480
14840TIP3   OH265934   2.172   1.782  10.911  0.0026  0.1870 -0.0849
14840TIP3    H165935   2.156   1.770  11.005 -0.4352 -2.6458 -0.4575
14840TIP3    H265936   2.267   1.782  10.903  0.0364 -0.4224  0.2810
14841TIP3   OH265937   4.936   3.411   3.880  0.0302  0.3606 -0.6026
14841TIP3    H165938   4.938   3.317   3.895  1.3478  0.5906  1.0543
14841TIP3    H265939   4.968   3.422   3.791 -0.3477 -0.7677 -0.8907
14842TIP3   OH265940   3.008   0.912  15.423 -0.3388 -0.0574  0.4380
14842TIP3    H165941   2.960   0.843  15.469 -1.3264  1.5352  1.9005
14842TIP3    H265942   2.968   0.994  15.454  0.7587  1.1824 -1.2752
14843TIP3   OH265943   0.111   2.622  16.456 -0.4662  0.1796  0.6813
14843TIP3    H165944   0.126   2.533  16.489  1.6993 -1.3957 -3.6621
14843TIP3    H265945   0.140   2.679  16.527  1.9899 -2.7078  2.2711
14844TIP3   OH265946   0.002   3.539   0.753 -0.5135 -0.5154  0.5242
14844TIP3    H165947   0.042   3.465   0.709  0.1392 -0.3156  0.7677
14844TIP3    H265948   0.009   3.519   0.847 -2.8877 -1.4610  0.5734
14845TIP3   OH265949   0.724   2.818   2.304  0.3421 -0.0040  0.8322
14845TIP3    H165950   0.645   2.798   2.355 -0.5890 -0.2193 -0.6614
14845TIP3    H265951   0.708   2.781   2.218  2.0891 -0.0370  0.4886
14846TIP3   OH265952   6.507   3.048  16.892  0.0133 -0.1917 -0.0184
14846TIP3    H165953   6.507   3.133  16.848  1.9102 -0.7107 -1.1533
14846TIP3    H265954   6.473   3.066  16.980  1.3189  1.9701  0.1253
14847TIP3   OH265955   1.818   2.114   3.897 -0.5936 -0.7637 -0.5313
14847TIP3    H165956   1.726   2.100   3.919 -0.9389  0.4493 -1.1290
14847TIP3    H265957   1.823   2.097   3.803 -0.4068  0.0925 -0.6796
14848TIP3   OH265958   1.751   1.171   4.286 -0.8192 -0.5203  0.4180
14848TIP3    H165959   1.840   1.162   4.251 -0.3612 -0.7727  1.5843
14848TIP3    H265960   1.694   1.155   4.211  0.1146  0.0979 -0.4582
14849TIP3   OH265961   0.180   1.470   1.946  0.3783 -0.0632 -0.4998
14849TIP3    H165962   0.195   1.406   2.016 -1.7052  0.3858  0.4350
14849TIP3    H265963   0.153   1.417   1.871  1.6311 -0.4669 -0.7013
14850TIP3   OH265964   5.306   5.219  15.150  0.3335 -0.1642 -0.7939
14850TIP3    H165965   5.241   5.289  15.161 -0.2256 -0.5460 -1.5423
14850TIP3    H265966   5.341   5.206  15.238  0.9737  1.5372 -0.7578
14851TIP3   OH265967   1.541   3.201   3.557 -0.3557 -0.9718 -0.4493
14851TIP3    H165968   1.597   3.128   3.585  0.9744  0.4002  0.6291
14851TIP3    H265969   1.465   3.159   3.518  1.4169 -2.9314 -1.9959
14852TIP3   OH265970   0.059   5.994   4.931  0.2374  0.1084  0.1205
14852TIP3    H165971   0.052   5.926   4.864  0.6802  1.0245 -0.8838
14852TIP3    H265972   0.136   5.969   4.982  2.2190  1.3619 -2.0770
14853TIP3   OH265973   0.952   3.842   1.474  0.0339 -0.1773 -0.2042
14853TIP3    H165974   0.967   3.918   1.530 -0.3584 -0.5313  0.3998
14853TIP3    H265975   1.014   3.776   1.506 -0.3918 -0.4775  0.0006
14854TIP3   OH265976   3.160   1.524   2.123 -0.0339 -0.2655 -0.1177
14854TIP3    H165977   3.232   1.462   2.112  0.0707 -0.1196 -0.2567
14854TIP3    H265978   3.097   1.478   2.179  0.5136 -0.1063  0.6474
14855TIP3   OH265979   2.195   5.531  12.335 -0.1878  0.4431  0.0770
14855TIP3    H165980   2.206   5.622  12.361  1.0580 -0.1567  1.8255
14855TIP3    H265981   2.283   5.502  12.310 -0.7908  0.0460 -1.7247
14856TIP3   OH265982   2.874   2.391   2.216 -0.0461  0.1225  0.2692
14856TIP3    H165983   2.810   2.450   2.255  1.1516  0.6831  1.4789
14856TIP3    H265984   2.849   2.304   2.248  0.2545  0.4399  1.4128
14857TIP3   OH265985   0.259   1.700  10.616  0.0135 -1.0747 -0.2760
14857TIP3    H165986   0.303   1.719  10.533 -1.6293  1.8518 -0.6242
14857TIP3    H265987   0.287   1.611  10.639  1.4448 -1.5330 -3.3445
14858TIP3   OH265988   3.381   1.185  15.859 -0.5153  0.8566  0.4192
14858TIP3    H165989   3.352   1.129  15.931 -1.4852 -0.5605 -1.0142
14858TIP3    H265990   3.474   1.166  15.850 -0.8259 -0.6095 -0.0486
14859TIP3   OH265991   3.814   6.046   4.680 -0.1634 -0.1611 -0.2577
14859TIP3    H165992   3.898   6.090   4.668  0.1572 -0.3144  1.2655
14859TIP3    H265993   3.835   5.968   4.731 -1.3486  0.3259  1.0359
14860TIP3   OH265994   2.155   5.268  14.732 -0.4855  0.0565 -0.9330
14860TIP3    H165995   2.132   5.359  14.751  2.0391  0.5027  0.5377
14860TIP3    H265996   2.151   5.224  14.817 -0.8629 -1.0083 -1.4842
14861TIP3   OH265997   3.453   5.451  11.731 -0.1465 -0.1558  0.3952
14861TIP3    H165998   3.420   5.538  11.709  1.5783  0.4824  0.2055
14861TIP3    H265999   3.492   5.460  11.817  0.7054 -0.5491  0.0609
14862TIP3   OH266000   1.327   6.742   4.793  0.2305  0.5495  0.1625
14862TIP3    H166001   1.273   6.810   4.832 -0.3626  0.0843  0.1722
14862TIP3    H266002   1.399   6.789   4.751 -0.1077  1.1674  0.2654
14863TIP3   OH266003   1.496   1.323   5.647 -1.1472  0.1431 -0.3419
14863TIP3    H166004   1.479   1.352   5.737 -1.3103 -2.1155  0.4114
14863TIP3    H266005   1.473   1.230   5.646  0.3613 -0.2941 -2.2979
14864TIP3   OH266006   1.593   1.603   1.028  0.5942  0.6293  0.1034
14864TIP3    H166007   1.645   1.682   1.014 -0.9889  1.4775 -1.4781
14864TIP3    H266008   1.523   1.609   0.962  0.6792 -2.3293 -0.3624
14865TIP3   OH266009   5.515   6.450  17.051 -0.0698  0.0308  0.8090
14865TIP3    H166010   5.472   6.365  17.061  0.9444 -0.6856 -0.5903
14865TIP3    H266011   5.443   6.512  17.042 -0.8952 -1.1610 -1.7093
14866TIP3   OH266012   6.313   1.074   1.735 -0.5553  0.7931 -0.1014
14866TIP3    H166013   6.361   0.995   1.710  0.3899  1.2769  0.1231
14866TIP3    H266014   6.272   1.104   1.654 -1.2196 -0.1167 -0.1119
14867TIP3   OH266015   3.952   2.968   1.058 -0.5674  0.4921  0.4804
14867TIP3    H166016   3.931   2.876   1.046  0.6304  0.0491  1.5913
14867TIP3    H266017   3.958   3.003   0.969 -2.1576 -0.2120  0.0689
14868TIP3   OH266018   2.749   0.721  14.757 -0.4590  0.0364 -0.6114
14868TIP3    H166019   2.704   0.789  14.708  0.3669  0.0692 -1.3449
14868TIP3    H266020   2.840   0.751  14.762 -0.6840  0.5436  1.8318
14869TIP3   OH266021   5.837   1.890  14.933  0.3878  0.7003  0.8492
14869TIP3    H166022   5.784   1.823  14.889  1.3466 -0.2714  1.1355
14869TIP3    H266023   5.859   1.952  14.864  0.5993  0.0081  0.2791
14870TIP3   OH266024   2.850   5.987   1.710  0.4533 -0.0729  0.1157
14870TIP3    H166025   2.795   6.052   1.666 -0.3651 -1.0807 -0.4018
14870TIP3    H266026   2.807   5.971   1.794 -0.9952 -1.9874 -0.9059
14871TIP3   OH266027   4.732   3.111  12.105  0.0322 -0.2031  0.5027
14871TIP3    H166028   4.647   3.135  12.144  0.0752 -0.8652  1.0349
14871TIP3    H266029   4.718   3.022  12.072  0.4521 -0.2260  0.3849
14872TIP3   OH266030   0.627   3.450   1.620 -0.1996  0.2660 -0.0787
14872TIP3    H166031   0.718   3.460   1.593 -0.4666 -0.7979 -1.5052
14872TIP3    H266032   0.595   3.540   1.629  0.3994  0.6904 -1.7763
14873TIP3   OH266033   1.738   3.972   5.827  0.1779  0.6348  0.4732
14873TIP3    H166034   1.696   3.949   5.910 -0.7981  1.0868  0.1219
14873TIP3    H266035   1.801   3.901   5.811 -1.1102 -0.5730  0.5617
14874TIP3   OH266036   1.397   3.418   4.076 -0.3610  0.0003 -0.3112
14874TIP3    H166037   1.463   3.380   4.017 -0.4577  1.6399 -1.5582
14874TIP3    H266038   1.447   3.475   4.134 -0.6818  1.8721 -1.7765
14875TIP3   OH266039   2.417   3.913  13.179 -0.2037  0.1156  0.2118
14875TIP3    H166040   2.395   3.922  13.086  1.1060  1.5390 -0.0033
14875TIP3    H266041   2.373   3.987  13.221  1.2292  0.9588  0.2988
14876TIP3   OH266042   1.431   0.051  12.611 -0.4055 -0.4149  0.2822
14876TIP3    H166043   1.342   0.021  12.591 -0.7964  2.1165 -2.2844
14876TIP3    H266044   1.484   0.023  12.536  0.2412  0.8938  0.2180
14877TIP3   OH266045   5.744   4.921   0.430 -0.2414 -0.2637 -0.2134
14877TIP3    H166046   5.763   4.868   0.353 -0.0680 -0.4063 -0.0732
14877TIP3    H266047   5.827   4.926   0.477 -0.9812 -2.9312  1.6808
14878TIP3   OH266048   3.372   4.033  12.159 -0.5486  0.2900  0.4071
14878TIP3    H166049   3.428   4.034  12.236 -1.4394 -0.5670  1.0877
14878TIP3    H266050   3.284   4.014  12.193 -1.3530  2.0313 -0.5754
14879TIP3   OH266051   6.189   3.087  13.419  0.0471 -0.3300 -0.0827
14879TIP3    H166052   6.191   3.007  13.471 -2.0244 -0.0023  0.5941
14879TIP3    H266053   6.141   3.150  13.473  0.6210  1.0261 -1.0779
14880TIP3   OH266054   3.853   6.650   1.967 -0.0706 -0.0469 -0.7313
14880TIP3    H166055   3.894   6.641   2.053 -0.0963 -0.2381 -0.7384
14880TIP3    H266056   3.866   6.564   1.926  0.1533  0.1206 -1.0093
14881TIP3   OH266057   1.870   0.254   4.493  0.6709 -0.1132  0.3525
14881TIP3    H166058   1.958   0.225   4.468  0.4973 -0.0077 -0.4052
14881TIP3    H266059   1.834   0.180   4.542  0.5818 -0.8316 -0.7519
14882TIP3   OH266060   4.288   4.253   2.045 -0.2769  0.1444  0.5539
14882TIP3    H166061   4.356   4.318   2.066 -1.1223  1.5190 -0.7408
14882TIP3    H266062   4.231   4.252   2.122  0.3732  0.0825  1.0422
14883TIP3   OH266063   4.926   2.826   1.320 -0.1026  0.8710  0.2004
14883TIP3    H166064   4.942   2.919   1.331  1.2204  0.7247 -0.3517
14883TIP3    H266065   4.954   2.807   1.231 -0.9380  0.0513  0.0898
14884TIP3   OH266066   2.075   3.241  16.780 -0.4565  0.2400 -0.0035
14884TIP3    H166067   2.104   3.170  16.837  0.6356  0.4162 -0.3311
14884TIP3    H266068   2.108   3.321  16.822  1.2907  0.3025 -1.4005
14885TIP3   OH266069   3.137   6.258   0.513  0.0321  0.2138 -0.1562
14885TIP3    H166070   3.207   6.222   0.459 -0.1129 -1.6006  0.7779
14885TIP3    H266071   3.166   6.244   0.603 -2.2068 -2.2962  0.3200
14886TIP3   OH266072   3.734   5.278  16.461 -0.5458 -0.4481  0.4444
14886TIP3    H166073   3.738   5.274  16.366  0.3815  0.9470  0.4000
14886TIP3    H266074   3.740   5.186  16.489  1.4440 -0.7570 -0.7848
14887TIP3   OH266075   4.945   4.007   6.381 -0.1346  0.0649 -0.3129
14887TIP3    H166076   4.920   3.949   6.453 -0.0335  0.4697  0.0593
14887TIP3    H266077   5.038   3.987   6.366 -0.3600 -0.5673 -0.8572
14888TIP3   OH266078   6.183   4.533   2.370  0.0035 -1.0624  0.5134
14888TIP3    H166079   6.137   4.617   2.361 -2.4743 -2.3494  0.5031
14888TIP3    H266080   6.265   4.547   2.322  1.4874  2.5222  3.5715
14889TIP3   OH266081   4.772   1.320  15.246  0.4189 -0.2504  0.1343
14889TIP3    H166082   4.792   1.381  15.317  1.6584 -1.7187  1.1068
14889TIP3    H266083   4.839   1.253  15.252  0.2714 -0.6978 -2.1525
14890TIP3   OH266084   2.891   3.376  16.639  0.7959 -0.1373  0.2397
14890TIP3    H166085   2.966   3.414  16.685  0.5639  1.0608 -0.3475
14890TIP3    H266086   2.861   3.445  16.580  0.1024 -1.0979 -0.5616
14891TIP3   OH266087   3.885   4.194   5.967  0.6366 -0.3754 -0.6368
14891TIP3    H166088   3.922   4.214   5.881 -0.4560 -2.2653 -1.6090
14891TIP3    H266089   3.884   4.099   5.972 -1.2039 -0.3532  0.6128
14892TIP3   OH266090   4.315   4.463  13.952 -0.0718 -0.0361 -0.1950
14892TIP3    H166091   4.308   4.369  13.969  2.1053  0.0638  1.6421
14892TIP3    H266092   4.289   4.504  14.034 -2.2167  1.1083 -1.3426
14893TIP3   OH266093   4.985   1.258   0.274 -0.3422  0.0599  0.3255
14893TIP3    H166094   4.977   1.283   0.366  1.9460 -0.2581  0.6731
14893TIP3    H266095   5.054   1.191   0.273 -1.0658 -0.7297 -1.5025
14894TIP3   OH266096   3.322   5.756   3.046 -0.4205  0.5063 -0.0087
14894TIP3    H166097   3.239   5.803   3.058  0.1350  1.9231 -1.3818
14894TIP3    H266098   3.315   5.718   2.958 -0.2549 -0.8105  0.5170
14895TIP3   OH266099   2.029   5.907  14.392  0.1361 -0.1278  0.3728
14895TIP3    H166100   1.948   5.953  14.415  0.1109  0.4073 -0.7284
14895TIP3    H266101   2.098   5.970  14.411  0.0827  0.5549 -1.4391
14896TIP3   OH266102   0.242   6.418  11.548 -0.4762  0.0990  0.2037
14896TIP3    H166103   0.248   6.323  11.549  0.5876  0.1482 -0.5701
14896TIP3    H266104   0.202   6.440  11.633  2.9661 -0.8200  2.2533
14897TIP3   OH266105   2.966   0.425  13.025 -0.0751 -0.2177  0.4506
14897TIP3    H166106   2.941   0.436  13.116 -1.5672  1.9991 -0.1501
14897TIP3    H266107   2.883   0.413  12.978  0.4639  0.8440 -0.8452
14898TIP3   OH266108   5.575   3.277  15.576  0.2957 -0.0277 -0.3946
14898TIP3    H166109   5.480   3.265  15.585  0.0908  1.9967  0.5657
14898TIP3    H266110   5.599   3.218  15.505 -1.4859 -1.4173  0.0624
14899TIP3   OH266111   3.119   0.344   0.961 -0.0130  0.6159  0.5622
14899TIP3    H166112   3.208   0.310   0.965  0.8061  2.6641  1.0750
14899TIP3    H266113   3.111   0.380   0.872 -0.9174 -0.9075 -0.0248
14900TIP3   OH266114   5.780   2.355   0.297 -0.6880 -0.4123 -0.0894
14900TIP3    H166115   5.689   2.331   0.278 -0.8496 -1.6021  1.9668
14900TIP3    H266116   5.806   2.297   0.368  1.3766  0.5865  0.0368
14901TIP3   OH266117   0.781   4.284  12.662  0.6276 -0.5904  0.1957
14901TIP3    H166118   0.713   4.334  12.618  0.1252 -1.0904  0.3862
14901TIP3    H266119   0.820   4.345  12.725  1.6626  0.2772 -1.2169
14902TIP3   OH266120   5.451   4.194  12.463 -0.1942  0.2207  0.0201
14902TIP3    H166121   5.448   4.177  12.557  0.4413 -0.6702 -0.1165
14902TIP3    H266122   5.380   4.142  12.427  0.3021 -0.3700 -0.1239
14903TIP3   OH266123   5.115   1.664   2.491  0.6538  0.1549  0.3098
14903TIP3    H166124   5.074   1.591   2.443  1.4110  0.2372 -0.4912
14903TIP3    H266125   5.043   1.704   2.540 -0.0267 -0.3310 -0.2734
14904TIP3   OH266126   1.883   0.646   0.462  0.0966  0.5586 -0.3850
14904TIP3    H166127   1.950   0.679   0.523 -0.1903  1.1120 -0.3607
14904TIP3    H266128   1.848   0.568   0.505 -0.7769  1.4789  0.6456
14905TIP3   OH266129   2.758   0.129   5.828 -0.2400  0.0456 -0.3415
14905TIP3    H166130   2.724   0.116   5.739 -0.6908 -0.8679 -0.0522
14905TIP3    H266131   2.728   0.217   5.852 -3.1354 -0.9523  0.1667
14906TIP3   OH266132   0.764   5.674  11.859 -0.0645  0.2526  0.1386
14906TIP3    H166133   0.780   5.754  11.910 -2.2438 -0.0110  1.3992
14906TIP3    H266134   0.719   5.705  11.780 -0.7001  0.3198  0.5179
14907TIP3   OH266135   2.466   5.626  14.771  0.4509  0.0608  0.0995
14907TIP3    H166136   2.493   5.671  14.850  1.5001  0.2242 -0.3322
14907TIP3    H266137   2.500   5.681  14.700  1.6016 -1.2826 -0.4375
14908TIP3   OH266138   0.795   2.274  14.716  0.1845  0.4177  0.0560
14908TIP3    H166139   0.800   2.206  14.650  0.1858  1.8968 -1.5274
14908TIP3    H266140   0.886   2.293  14.739  0.2556  0.8891 -0.5925
14909TIP3   OH266141   4.422   5.020  15.672  0.6688 -0.1882  0.4520
14909TIP3    H166142   4.353   4.967  15.712 -0.0348  0.2284 -0.1706
14909TIP3    H266143   4.504   4.981  15.702  0.2211  0.7009  3.1148
14910TIP3   OH266144   1.507   0.297  16.646 -0.3075  0.1344  0.0088
14910TIP3    H166145   1.537   0.302  16.555 -0.4409 -0.9302 -0.1030
14910TIP3    H266146   1.564   0.358  16.693  1.4528 -1.1540 -0.3522
14911TIP3   OH266147   4.940   2.080   0.886 -0.2664  0.4650  0.0301
14911TIP3    H166148   5.008   2.013   0.890  0.2622  0.9947 -0.0291
14911TIP3    H266149   4.973   2.151   0.940  0.5351  1.8987 -2.2381
14912TIP3   OH266150   6.584   3.275   4.821  0.5858 -0.2963 -0.0713
14912TIP3    H166151   6.628   3.216   4.761 -1.3279 -0.0985 -1.7609
14912TIP3    H266152   6.624   3.361   4.804  2.2150 -0.7244  1.2357
14913TIP3   OH266153   3.211   2.401   5.660 -0.7682 -0.3420 -0.1376
14913TIP3    H166154   3.221   2.341   5.586 -0.3100 -0.2114 -0.1821
14913TIP3    H266155   3.295   2.398   5.705 -1.3504 -1.1466  0.9414
14914TIP3   OH266156   2.195   4.463  15.883  0.6086 -0.7214 -0.8186
14914TIP3    H166157   2.287   4.487  15.875  0.6857 -0.3316  0.8521
14914TIP3    H266158   2.188   4.379  15.837  1.7184 -0.6172 -1.2147
14915TIP3   OH266159   1.106   3.477   5.664  0.3139  0.3578  0.4519
14915TIP3    H166160   1.124   3.385   5.680 -0.4035  0.3645  1.4067
14915TIP3    H266161   1.186   3.522   5.693  0.0568  0.1454  1.5476
14916TIP3   OH266162   1.784   6.609  12.303 -0.1265 -0.0480  0.7559
14916TIP3    H166163   1.822   6.521  12.297 -0.8607 -0.5035  2.3486
14916TIP3    H266164   1.860   6.668  12.299  0.3841 -0.7439 -0.2138
14917TIP3   OH266165   6.182   5.928   0.535  0.0394  0.0785 -0.0900
14917TIP3    H166166   6.110   5.989   0.520  0.7990  1.4238  1.4441
14917TIP3    H266167   6.146   5.863   0.595  0.1724  0.8936  0.8785
14918TIP3   OH266168   5.589   0.591   5.193  0.2409  0.2732  0.4745
14918TIP3    H166169   5.513   0.642   5.165  0.1041 -0.3076 -0.2573
14918TIP3    H266170   5.628   0.642   5.263  0.1848  1.4328 -0.3244
14919TIP3   OH266171   2.178   1.125  16.415  0.2427 -0.1996 -0.2026
14919TIP3    H166172   2.202   1.038  16.448  0.3476 -0.3556 -0.6778
14919TIP3    H266173   2.262   1.167  16.396  0.2048  0.1696  0.4315
14920TIP3   OH266174   5.684   4.246   5.178  0.0125 -0.2648 -0.3259
14920TIP3    H166175   5.637   4.177   5.130  0.1364 -1.0690  0.6906
14920TIP3    H266176   5.776   4.223   5.169  0.0961  0.1378 -0.5274
14921TIP3   OH266177   3.757   2.665   1.522 -0.0544 -0.2893  0.3965
14921TIP3    H166178   3.764   2.586   1.468  1.9335 -1.6997  2.4751
14921TIP3    H266179   3.830   2.720   1.494 -0.2440 -0.1044  0.2694
14922TIP3   OH266180   1.325   1.695   5.016 -0.2898  0.1879 -0.4416
14922TIP3    H166181   1.284   1.769   4.969 -0.4065  0.9605  0.8219
14922TIP3    H266182   1.413   1.726   5.036 -0.0054 -0.4100 -0.7658
14923TIP3   OH266183   4.395   2.158   0.808 -0.3052  0.1490 -0.0595
14923TIP3    H166184   4.390   2.065   0.831 -1.5136  0.2441  0.1018
14923TIP3    H266185   4.414   2.158   0.714 -2.1685 -0.3059 -0.4844
14924TIP3   OH266186   0.398   5.944   3.436  0.1141  0.1605 -0.0829
14924TIP3    H166187   0.426   5.941   3.344  0.0335 -0.3616 -0.0953
14924TIP3    H266188   0.479   5.934   3.486  0.0126 -0.9145 -0.1150
14925TIP3   OH266189   0.509   0.522  11.959  0.2454 -0.0882 -0.4663
14925TIP3    H166190   0.565   0.535  11.882  1.5261  0.5797  0.5482
14925TIP3    H266191   0.498   0.427  11.965  0.4771 -0.1699 -1.2112
14926TIP3   OH266192   3.043   5.311   6.781 -0.7221 -0.4057  0.7436
14926TIP3    H166193   3.123   5.289   6.733 -0.3546  0.3472  1.0022
14926TIP3    H266194   2.985   5.236   6.766 -0.0296 -0.8891  0.4300
14927TIP3   OH266195   0.570   4.314   0.015  0.3190  0.1827 -0.4207
14927TIP3    H166196   0.599   4.398   0.049  1.2578  0.5287 -1.9832
14927TIP3    H266197   0.586   4.319  -0.079  1.6257 -2.1876 -0.4127
14928TIP3   OH266198   4.329   3.272   2.080 -0.1654 -0.4407  0.3549
14928TIP3    H166199   4.386   3.199   2.059  3.3436  2.7563 -2.8259
14928TIP3    H266200   4.277   3.286   2.001 -1.8160 -0.2512  1.4212
14929TIP3   OH266201   0.808   3.934  12.593 -0.0366 -0.1560 -0.0453
14929TIP3    H166202   0.874   3.894  12.537  1.1493  1.3672  0.1991
14929TIP3    H266203   0.751   3.982  12.533 -0.6949 -1.1147 -0.2124
14930TIP3   OH266204   6.173   1.324   4.254  0.5396  0.0479 -0.4377
14930TIP3    H166205   6.189   1.316   4.160 -1.1178  1.2095 -0.8580
14930TIP3    H266206   6.136   1.412   4.265  2.1764  0.5715  1.5468
14931TIP3   OH266207   0.282   0.202  12.319  0.8042  0.2180  0.1555
14931TIP3    H166208   0.367   0.238  12.341  0.9879 -0.6266  0.8976
14931TIP3    H266209   0.238   0.271  12.269  0.3944  2.2645  3.1042
14932TIP3   OH266210   5.712   4.244  14.496 -0.0985 -0.6069  0.2470
14932TIP3    H166211   5.628   4.290  14.497  0.5075  0.5222  1.0020
14932TIP3    H266212   5.749   4.258  14.583  1.7289  0.5557 -0.6479
14933TIP3   OH266213   0.682   5.362  10.755  0.1062  0.4569  0.2401
14933TIP3    H166214   0.588   5.344  10.759  0.3422 -0.6512  1.3759
14933TIP3    H266215   0.702   5.402  10.840  0.6300  0.8830 -0.0783
14934TIP3   OH266216   3.968   0.751   5.409  0.1271 -0.1700  0.4907
14934TIP3    H166217   4.015   0.780   5.487  0.7569 -0.1339  0.1064
14934TIP3    H266218   4.037   0.738   5.344 -0.3351 -0.7596  0.1158
14935TIP3   OH266219   1.208   4.405   4.641 -0.1231  0.3436 -0.4805
14935TIP3    H166220   1.237   4.481   4.590 -1.9466  1.3401 -0.0904
14935TIP3    H266221   1.168   4.347   4.576  1.1037 -0.2348 -0.7495
14936TIP3   OH266222   2.701   0.233   5.170  0.4597  0.2924  0.1212
14936TIP3    H166223   2.774   0.280   5.130 -0.0248  1.9237  1.0857
14936TIP3    H266224   2.626   0.254   5.115  0.6001 -1.1023 -0.6644
14937TIP3   OH266225   2.282   3.580   2.514 -0.7410 -0.3524 -0.4408
14937TIP3    H166226   2.227   3.550   2.442 -0.9922  1.3942 -1.0249
14937TIP3    H266227   2.348   3.636   2.473 -1.3541  1.3064  0.7026
14938TIP3   OH266228   2.636   0.661   5.736  0.0977  0.0727  0.7247
14938TIP3    H166229   2.644   0.588   5.675  0.1868  0.6326  0.0532
14938TIP3    H266230   2.672   0.736   5.689 -1.5918  0.9322  0.7203
14939TIP3   OH266231   6.541   3.896  11.637  0.1378  0.3277  0.1613
14939TIP3    H166232   6.625   3.896  11.592 -0.3345 -1.4429 -0.8049
14939TIP3    H266233   6.477   3.914  11.569 -0.5004 -1.3859  0.2640
14940TIP3   OH266234   4.784   3.250   1.619  0.2445  0.3463 -0.1118
14940TIP3    H166235   4.793   3.329   1.567 -0.5703  0.0800 -0.6948
14940TIP3    H266236   4.864   3.200   1.603  0.6227  0.9043  0.0186
14941TIP3   OH266237   0.764   6.579  15.412  0.4832  0.2385  0.0654
14941TIP3    H166238   0.772   6.511  15.478  1.0541 -1.0924 -1.3394
14941TIP3    H266239   0.669   6.586  15.396  0.4628 -0.8817 -0.4100
14942TIP3   OH266240   6.402   5.957   6.378 -0.5998  0.4224 -0.2833
14942TIP3    H166241   6.311   5.987   6.376 -0.9310 -0.4877  0.4349
14942TIP3    H266242   6.397   5.863   6.364  0.3664  0.5458 -1.7904
14943TIP3   OH266243   0.008   3.125   4.664 -0.0135 -0.4212  0.0186
14943TIP3    H166244   0.037   3.182   4.593 -1.6212 -1.7033 -1.7586
14943TIP3    H266245   0.088   3.103   4.712  1.1058  0.5226 -1.3393
14944TIP3   OH266246   6.394   4.059  12.394  0.2764 -0.0662  0.5524
14944TIP3    H166247   6.463   4.081  12.457  2.3347  1.4502 -2.0091
14944TIP3    H266248   6.441   4.027  12.317 -1.8469  1.3116 -1.4508
14945TIP3   OH266249   1.591   5.537  15.191 -0.7165 -0.0886 -0.0714
14945TIP3    H166250   1.642   5.470  15.145 -0.4295 -0.2971  0.5395
14945TIP3    H266251   1.654   5.581  15.247 -0.1582  2.8556 -2.7013
14946TIP3   OH266252   4.426   4.049  13.236 -0.3006  0.0449 -0.4835
14946TIP3    H166253   4.358   4.045  13.170 -0.2244 -0.2429 -0.5456
14946TIP3    H266254   4.483   4.121  13.208  0.3613 -0.7879 -1.3496
14947TIP3   OH266255   6.042   2.319   4.742  0.0964 -0.0303  0.3971
14947TIP3    H166256   6.129   2.307   4.704 -0.7539  0.2779 -1.8117
14947TIP3    H266257   6.050   2.398   4.795  1.1404  0.0422  0.1617
14948TIP3   OH266258   2.530   2.545   4.756 -0.2516 -0.0866  0.0858
14948TIP3    H166259   2.616   2.503   4.750 -0.8189 -1.4412  1.0005
14948TIP3    H266260   2.488   2.524   4.673  0.5073  1.1518 -0.6524
14949TIP3   OH266261   3.044   6.578   4.719 -0.0131 -0.2468  0.8440
14949TIP3    H166262   3.122   6.630   4.735 -0.2634  1.4014 -2.4638
14949TIP3    H266263   3.067   6.522   4.645 -1.2722 -1.3933  1.2737
14950TIP3   OH266264   0.204   6.349   1.673  0.0087 -0.1327  0.3330
14950TIP3    H166265   0.120   6.395   1.674  0.1850  0.2435 -0.6150
14950TIP3    H266266   0.250   6.380   1.751 -1.1736 -1.2152  1.4907
14951TIP3   OH266267   1.014   3.995   4.047 -0.1283 -0.4164 -0.3529
14951TIP3    H166268   0.975   4.027   3.966  1.0625  0.6906 -0.5237
14951TIP3    H266269   1.109   4.002   4.032  0.1083  0.4313  1.3722
14952TIP3   OH266270   1.861   4.020  11.504 -0.0495 -0.3064  0.1311
14952TIP3    H166271   1.922   4.062  11.565 -2.3416 -0.3457  2.6263
14952TIP3    H266272   1.886   3.928  11.505  0.5409 -0.1488  0.2809
14953TIP3   OH266273   5.152   3.184   0.412 -0.3938  0.2222 -0.2386
14953TIP3    H166274   5.162   3.146   0.499 -2.0944 -0.2987 -0.2396
14953TIP3    H266275   5.214   3.135   0.357 -0.1842 -0.2696  0.4230
14954TIP3   OH266276   4.098   2.013   2.034 -0.1296 -0.0639 -0.1283
14954TIP3    H166277   4.170   1.950   2.035  1.4201  1.6235  0.0152
14954TIP3    H266278   4.052   1.995   1.952 -0.3760 -2.0104  0.3772
14955TIP3   OH266279   3.907   0.109  13.716  0.0729 -0.2299 -0.2619
14955TIP3    H166280   3.829   0.135  13.765  0.5528 -0.5229  0.6880
14955TIP3    H266281   3.954   0.191  13.700 -1.1102  0.1419 -2.1115
14956TIP3   OH266282   5.612   4.351  16.060  0.5508  0.5365  0.9862
14956TIP3    H166283   5.582   4.429  16.014  0.9493  1.0956  1.6584
14956TIP3    H266284   5.606   4.281  15.995 -1.2717  0.8084  0.7975
14957TIP3   OH266285   6.597   0.653  14.611  0.1248 -0.1670  0.5579
14957TIP3    H166286   6.560   0.697  14.688 -0.4309 -1.6625  1.2052
14957TIP3    H266287   6.607   0.562  14.640  0.9473 -0.5233 -0.8033
14958TIP3   OH266288   4.600   4.418  14.177  0.9022 -0.4784  0.0167
14958TIP3    H166289   4.645   4.476  14.116 -0.6375 -0.8597 -1.5665
14958TIP3    H266290   4.512   4.456  14.187  0.7727 -1.0286  1.1434
14959TIP3   OH266291   2.199   1.533   0.176  0.3782  0.0968 -0.9494
14959TIP3    H166292   2.138   1.516   0.248  1.9722  0.0384  0.4466
14959TIP3    H266293   2.285   1.539   0.218  0.9837  3.8662 -2.2701
14960TIP3   OH266294   0.732   6.710   6.289 -0.1345 -0.0029 -0.0223
14960TIP3    H166295   0.733   6.803   6.264 -1.6321  0.4775  1.5128
14960TIP3    H266296   0.816   6.676   6.258  0.4814  1.8754 -0.5565
14961TIP3   OH266297   5.053   5.181  16.499 -0.4756  0.4513  0.1878
14961TIP3    H166298   4.995   5.235  16.445  1.6748  2.6548 -0.0936
14961TIP3    H266299   5.002   5.164  16.579 -2.3450  0.2580 -0.9943
14962TIP3   OH266300   5.488   1.611  12.723 -0.8376 -0.5368 -0.3890
14962TIP3    H166301   5.512   1.565  12.804 -0.4094 -0.9803 -0.7527
14962TIP3    H266302   5.541   1.690  12.724 -0.3535 -0.8536 -0.5363
14963TIP3   OH266303   6.218   1.251   2.184  0.0417 -0.2063  0.2399
14963TIP3    H166304   6.248   1.319   2.244 -2.1147  0.7232  0.3324
14963TIP3    H266305   6.134   1.283   2.151 -1.4088 -3.1293  0.7974
14964TIP3   OH266306   6.702   5.523   4.105 -0.1294  0.2949 -0.0992
14964TIP3    H166307   6.763   5.589   4.139 -0.5012  1.4120 -1.4693
14964TIP3    H266308   6.751   5.441   4.107  0.8254  0.8656  0.4163
14965TIP3   OH266309   0.139   5.638  17.014  0.0791 -0.4972 -0.1652
14965TIP3    H166310   0.060   5.683  16.985 -1.5864 -2.1304  1.4442
14965TIP3    H266311   0.154   5.571  16.948  1.0916  0.8001 -1.2844
14966TIP3   OH266312   4.169   4.504  15.301  0.1885 -0.3269  0.4856
14966TIP3    H166313   4.236   4.539  15.360 -0.5892  0.1597  1.1150
14966TIP3    H266314   4.109   4.457  15.359 -0.9384  0.6854  0.2051
14967TIP3   OH266315   4.046   0.218  11.835  0.6174 -0.3912  0.1035
14967TIP3    H166316   4.074   0.258  11.918  1.9549  0.2870 -0.6497
14967TIP3    H266317   4.015   0.291  11.782  0.0904 -0.7778 -0.1314
14968TIP3   OH266318   2.490   5.595   4.148  0.4088 -0.5178 -0.6075
14968TIP3    H166319   2.412   5.560   4.192  0.0787  0.6274 -0.2478
14968TIP3    H266320   2.467   5.594   4.055  0.6090 -1.7151 -0.6625
14969TIP3   OH266321   4.875   6.233   4.004  0.1003  0.4965  0.2759
14969TIP3    H166322   4.848   6.142   4.007  1.5009  0.0637  3.0099
14969TIP3    H266323   4.795   6.282   4.026  0.2152 -0.4324  3.2487
14970TIP3   OH266324   2.026   0.057   5.679 -0.0584 -0.1379 -0.1418
14970TIP3    H166325   2.023  -0.029   5.723 -0.5208 -0.5669 -0.9974
14970TIP3    H266326   1.989   0.117   5.744 -2.8133 -1.0978 -0.6621
14971TIP3   OH266327   5.970   6.569   3.244  0.1807  0.1967  0.0180
14971TIP3    H166328   5.958   6.517   3.165  0.8064 -1.3444  0.9036
14971TIP3    H266329   5.888   6.560   3.292  0.9392 -1.6343  1.0777
14972TIP3   OH266330   2.180   4.950  15.382  0.0830  0.2274 -0.0937
14972TIP3    H166331   2.111   5.016  15.374 -1.2274 -0.9559  0.8977
14972TIP3    H266332   2.143   4.884  15.441  1.4229 -1.2794 -0.8710
14973TIP3   OH266333   1.915   1.550  13.271 -0.3503 -0.6547 -0.1165
14973TIP3    H166334   1.931   1.621  13.334 -0.1437 -0.5869 -0.2434
14973TIP3    H266335   1.995   1.546  13.219 -0.7790 -0.2668 -0.8118
14974TIP3   OH266336   3.264   4.518   4.671 -0.0554 -0.5653  0.0466
14974TIP3    H166337   3.293   4.436   4.710  2.7289  0.6687  0.8139
14974TIP3    H266338   3.344   4.568   4.656 -1.6184  2.0841 -0.3072
14975TIP3   OH266339   1.758   3.557   6.426 -0.0290 -0.2689  0.6345
14975TIP3    H166340   1.703   3.617   6.477 -0.4347  0.7923 -0.9702
14975TIP3    H266341   1.709   3.475   6.426  0.0516 -0.3309  2.0520
14976TIP3   OH266342   1.935   0.507  16.410 -0.3443  0.0286  0.1764
14976TIP3    H166343   1.881   0.563  16.353  1.6653  1.0968 -0.7957
14976TIP3    H266344   1.953   0.430  16.357 -0.2359  0.0553  0.1745
14977TIP3   OH266345   6.714   2.939   6.108  0.0689  0.2292 -0.2428
14977TIP3    H166346   6.723   3.012   6.169  2.1436  2.0238 -2.4554
14977TIP3    H266347   6.755   2.865   6.152  1.2838  1.3913  0.6683
14978TIP3   OH266348   2.221   1.004   3.702 -0.0527 -0.1317 -0.4369
14978TIP3    H166349   2.248   0.936   3.763 -1.0888 -1.9460 -1.8798
14978TIP3    H266350   2.266   1.083   3.732  0.0753 -1.0971  2.1629
14979TIP3   OH266351   2.083   5.180   3.514  0.2559  0.3479  0.1622
14979TIP3    H166352   2.094   5.222   3.429 -0.0132  1.0438  0.4640
14979TIP3    H266353   2.130   5.237   3.575  0.4817 -0.1675  0.4749
14980TIP3   OH266354   4.515   4.844   3.488 -0.6001 -0.6021 -0.0149
14980TIP3    H166355   4.507   4.755   3.523  1.0417 -0.5967  0.4772
14980TIP3    H266356   4.565   4.834   3.407 -0.3066 -0.1219  0.1013
14981TIP3   OH266357   3.557   3.221  13.795  0.2045 -0.0361  0.0290
14981TIP3    H166358   3.625   3.200  13.859  0.1915 -0.7405 -0.1811
14981TIP3    H266359   3.498   3.146  13.797  0.9548 -0.7382 -1.8026
14982TIP3   OH266360   4.693   1.519   2.557 -0.0029 -0.1152  0.3574
14982TIP3    H166361   4.669   1.600   2.602  3.2382  1.4898 -0.5411
14982TIP3    H266362   4.781   1.499   2.588  0.3961 -1.7094 -1.5729
14983TIP3   OH266363   5.238   0.869   4.564  0.5201  0.1678  0.3757
14983TIP3    H166364   5.231   0.963   4.581 -0.5022  0.0006  0.9900
14983TIP3    H266365   5.231   0.829   4.650  0.0501 -0.5044  0.0315
14984TIP3   OH266366   5.861   3.427  14.514  0.1861 -0.6524 -0.1379
14984TIP3    H166367   5.884   3.458  14.601 -0.8343 -0.7300  0.1716
14984TIP3    H266368   5.862   3.331  14.521 -0.9901 -0.6592  0.1024
14985TIP3   OH266369   5.483   4.794  15.698 -0.0129 -0.0484 -0.8252
14985TIP3    H166370   5.408   4.838  15.739  0.0756 -1.2151  0.7059
14985TIP3    H266371   5.448   4.755  15.618 -0.8835 -0.0169 -0.4671
14986TIP3   OH266372   4.926   5.368   6.298 -0.6094 -0.2810 -0.1249
14986TIP3    H166373   5.009   5.321   6.289  0.0773  0.2033  2.7868
14986TIP3    H266374   4.917   5.417   6.216  0.8470 -2.0168 -1.3992
14987TIP3   OH266375   2.588   4.877   5.613  0.4797  0.1685 -0.2023
14987TIP3    H166376   2.551   4.869   5.701 -1.9103  0.6759 -1.0809
14987TIP3    H266377   2.537   4.814   5.560  0.8439  0.9365 -1.5089
14988TIP3   OH266378   5.880   3.105  17.106  0.2239  0.2172 -0.3556
14988TIP3    H166379   5.966   3.064  17.100  0.2680  0.2527  0.0208
14988TIP3    H266380   5.845   3.076  17.191 -0.1586  0.1533 -0.5309
14989TIP3   OH266381   6.144   1.801   2.399  0.1155  0.0623 -0.2234
14989TIP3    H166382   6.086   1.733   2.434  1.8433 -1.3834 -0.0677
14989TIP3    H266383   6.174   1.766   2.315  1.8592  0.1316  0.3468
14990TIP3   OH266384   6.639   0.846  11.922  0.4494  0.1067 -0.2383
14990TIP3    H166385   6.576   0.907  11.885  0.1461 -1.3660 -2.2851
14990TIP3    H266386   6.724   0.878  11.894  0.4211  0.5191  0.1381
14991TIP3   OH266387   2.662   0.417  13.641 -0.1983  0.0005  0.6222
14991TIP3    H166388   2.671   0.322  13.638 -0.0582  0.0439 -0.3855
14991TIP3    H266389   2.697   0.442  13.727  0.0453 -0.8220  0.7658
14992TIP3   OH266390   6.342   3.745   0.246  0.3854  0.5338 -0.0446
14992TIP3    H166391   6.309   3.797   0.172 -2.1630 -0.1103  0.5284
14992TIP3    H266392   6.340   3.805   0.320 -2.5312 -0.1902  0.6111
14993TIP3   OH266393   3.907   3.845  16.642 -0.1351 -0.2123  0.1591
14993TIP3    H166394   3.936   3.934  16.625  1.4286 -1.0348 -2.0407
14993TIP3    H266395   3.828   3.834  16.588  1.0303 -0.8061 -1.5159
14994TIP3   OH266396   0.588   3.607  10.996 -0.1048  0.5003  0.4889
14994TIP3    H166397   0.603   3.555  10.917 -0.9747  2.0013 -0.7410
14994TIP3    H266398   0.541   3.548  11.055 -0.6379 -0.2597 -0.6534
14995TIP3   OH266399   6.037   2.984   3.729 -0.6270  0.7291 -0.1929
14995TIP3    H166400   6.010   2.930   3.655  0.1400  1.1720 -0.8030
14995TIP3    H266401   5.982   2.953   3.802 -1.1335  0.0463 -0.8472
14996TIP3   OH266402   6.481   5.482   0.077  0.5502  0.7881 -0.1986
14996TIP3    H166403   6.475   5.536   0.156 -1.3738  2.3549 -1.3462
14996TIP3    H266404   6.557   5.517   0.030  0.9379  0.6909  0.3493
14997TIP3   OH266405   1.591   5.244  15.958 -0.1322 -0.4073 -0.0739
14997TIP3    H166406   1.561   5.276  15.873 -0.3296  0.2130  0.2190
14997TIP3    H266407   1.683   5.223  15.945  0.2486  1.1623 -0.0569
14998TIP3   OH266408   5.892   2.969   5.003 -0.1246 -0.0083  0.3128
14998TIP3    H166409   5.978   2.997   4.972 -0.2485  1.0228  0.8531
14998TIP3    H266410   5.853   3.048   5.040 -0.9447 -0.6703  0.8959
14999TIP3   OH266411   1.505   0.984  14.896 -0.5860  0.6054 -0.1392
14999TIP3    H166412   1.433   0.962  14.836 -0.0400 -0.5371 -0.4061
14999TIP3    H266413   1.490   0.930  14.973  0.6816 -0.6808 -0.7316
15000TIP3   OH266414   0.742   5.637  13.260 -0.9072  0.1025 -0.7177
15000TIP3    H166415   0.654   5.619  13.226 -1.1650 -2.8472  1.1475
15000TIP3    H266416   0.735   5.619  13.354  1.3528  1.3193 -0.2539
15001TIP3   OH266417   5.974   1.528   2.228  0.3944  0.2442  0.3689
15001TIP3    H166418   6.010   1.609   2.192  2.0739 -0.0705  1.2561
15001TIP3    H266419   5.950   1.550   2.318 -0.7877  0.1771  0.0953
15002TIP3   OH266420   2.199   1.131   2.967  0.2336  0.2385 -0.0821
15002TIP3    H166421   2.172   1.128   2.876  0.2443  0.9281 -0.1074
15002TIP3    H266422   2.255   1.208   2.974 -0.0199  0.3720  0.5769
15003TIP3   OH266423   1.473   0.134   3.353 -0.2068 -0.0952 -0.2640
15003TIP3    H166424   1.532   0.165   3.422  0.3242  0.2323 -0.8511
15003TIP3    H266425   1.397   0.191   3.358  0.6934  1.2408 -1.2350
15004TIP3   OH266426   4.722   5.684  14.944  0.2380  0.3977 -0.0116
15004TIP3    H166427   4.641   5.687  14.894  0.8685  0.1074 -1.0963
15004TIP3    H266428   4.728   5.770  14.985 -0.3711  0.6004 -0.3367
15005TIP3   OH266429   5.788   3.451   4.108  0.0556 -0.1538  0.5227
15005TIP3    H166430   5.788   3.530   4.054  0.4360 -0.5201 -0.0270
15005TIP3    H266431   5.762   3.381   4.048  0.8920 -0.6344  0.6965
15006TIP3   OH266432   3.108   2.929   2.333 -0.2479  0.0678  0.0698
15006TIP3    H166433   3.017   2.946   2.358  0.2182  2.8139  0.1896
15006TIP3    H266434   3.158   2.943   2.414  0.3843 -0.6067 -0.1943
15007TIP3   OH266435   1.445   1.505   3.066  0.0626 -0.3012  0.2512
15007TIP3    H166436   1.399   1.550   2.996 -0.7691  0.9904  1.5847
15007TIP3    H266437   1.538   1.520   3.047 -0.1488  0.0300 -0.5598
15008TIP3   OH266438   0.779   5.285   5.339  0.1260 -0.0107  0.6730
15008TIP3    H166439   0.830   5.348   5.391  1.2373  0.1087 -0.5245
15008TIP3    H266440   0.690   5.295   5.371  0.6580  0.5591  2.0734
15009TIP3   OH266441   5.086   1.797   5.674 -0.5196  0.2525  0.0011
15009TIP3    H166442   5.065   1.879   5.718  0.1563  1.7259 -2.1890
15009TIP3    H266443   5.011   1.741   5.689 -0.6238  0.9200  2.3034
15010TIP3   OH266444   4.656   6.529   3.047  0.1268 -0.0730 -0.1917
15010TIP3    H166445   4.609   6.525   2.964 -1.1164 -0.8243  0.5234
15010TIP3    H266446   4.740   6.485   3.028  0.2389  0.5499 -1.2568
15011TIP3   OH266447   6.613   0.401   1.074 -0.1908  0.0616 -0.2045
15011TIP3    H166448   6.638   0.342   1.145  0.5801 -1.0311 -1.3192
15011TIP3    H266449   6.518   0.410   1.082 -0.0187  0.5985  1.4060
15012TIP3   OH266450   3.225   0.635   5.051  0.8738  1.1520 -0.1686
15012TIP3    H166451   3.227   0.660   4.958 -0.2666 -2.9449 -1.5112
15012TIP3    H266452   3.148   0.680   5.086 -0.7724  0.1415 -2.2268
15013TIP3   OH266453   0.771   1.745   0.492 -0.4998 -0.2576  0.2652
15013TIP3    H166454   0.718   1.719   0.416 -0.7947 -0.4814  0.5437
15013TIP3    H266455   0.826   1.668   0.510  0.9796  0.4688 -0.9072
15014TIP3   OH266456   2.366   6.463   1.937  0.4767 -0.5136  0.5934
15014TIP3    H166457   2.281   6.424   1.919 -0.8213  1.7917  1.2841
15014TIP3    H266458   2.383   6.520   1.862  2.5332 -2.5672 -0.6076
15015TIP3   OH266459   3.414   4.608   5.423 -0.2183 -0.0240 -0.0221
15015TIP3    H166460   3.413   4.525   5.376 -3.7504  0.9200 -1.9307
15015TIP3    H266461   3.453   4.587   5.508  0.5022 -3.2241 -1.0185
15016TIP3   OH266462   6.336   1.831   2.208  0.5663 -0.4198 -0.4670
15016TIP3    H166463   6.428   1.805   2.203  0.8300 -0.5842  2.9149
15016TIP3    H266464   6.336   1.910   2.261 -1.3442 -1.4810  1.2499
15017TIP3   OH266465   4.294   1.208  12.456  0.3472 -0.3008  0.3501
15017TIP3    H166466   4.325   1.139  12.398 -0.3143  0.7742 -1.3636
15017TIP3    H266467   4.293   1.287  12.401  0.8889  1.0379  2.1851
15018TIP3   OH266468   5.441   6.678   1.757 -0.1542 -0.4202 -0.1616
15018TIP3    H166469   5.389   6.721   1.826  0.0468 -0.9910  0.3428
15018TIP3    H266470   5.530   6.679   1.790  0.0998  0.1512 -0.8372
15019TIP3   OH266471   2.264   5.415   5.119  0.5999 -0.0851 -0.3197
15019TIP3    H166472   2.177   5.448   5.095  0.8608  0.0526 -1.0889
15019TIP3    H266473   2.320   5.493   5.120  0.9154 -0.3024 -0.7651
15020TIP3   OH266474   3.731   6.514  17.180 -0.6493 -0.1028 -0.7105
15020TIP3    H166475   3.741   6.553  17.267 -0.9036 -0.4553 -0.5224
15020TIP3    H266476   3.813   6.535  17.135 -0.4283 -0.1003 -0.3135
15021TIP3   OH266477   6.505   3.303   1.856  0.1437 -0.4831  0.1713
15021TIP3    H166478   6.413   3.316   1.834  0.5379  0.8088 -0.8205
15021TIP3    H266479   6.548   3.293   1.772  0.7508 -2.4298  0.6732
15022TIP3   OH266480   6.344   3.829  14.981 -0.6478 -0.0261 -0.1456
15022TIP3    H166481   6.263   3.842  15.030 -0.2184  0.4181  0.4629
15022TIP3    H266482   6.371   3.740  15.002  0.1704  0.5537  1.4242
15023TIP3   OH266483   1.886   3.191  11.998 -0.1963  0.0384  0.3104
15023TIP3    H166484   1.974   3.156  11.984  0.4827  2.2507 -1.6251
15023TIP3    H266485   1.830   3.113  12.006  1.8499 -1.4222  1.3333
15024TIP3   OH266486   2.223   0.123  16.313 -0.4404  0.0856 -0.4055
15024TIP3    H166487   2.263   0.091  16.232  0.5584  1.7348 -0.6003
15024TIP3    H266488   2.294   0.165  16.361 -1.5711  1.6475  0.0095
15025TIP3   OH266489   3.811   1.263   1.988 -0.0271  0.4046  0.2879
15025TIP3    H166490   3.903   1.261   1.964  0.2934  0.5497  1.4515
15025TIP3    H266491   3.764   1.258   1.905  1.0150 -0.7277 -0.2632
15026TIP3   OH266492   5.677   5.997   3.333  0.5525  0.3288  0.1112
15026TIP3    H166493   5.719   6.007   3.248  2.2305  0.6718  0.9315
15026TIP3    H266494   5.667   6.087   3.365  0.8554  0.1618  0.6895
15027TIP3   OH266495   0.188   4.546  14.476 -0.0262  0.1284  0.2941
15027TIP3    H166496   0.160   4.455  14.490  1.0053 -0.1023  0.9876
15027TIP3    H266497   0.124   4.581  14.414 -0.4422 -1.0753  0.0011
15028TIP3   OH266498   6.479   5.635  14.887 -0.1400 -0.3818 -0.7393
15028TIP3    H166499   6.488   5.723  14.849  0.1522 -0.2752 -0.4257
15028TIP3    H266500   6.553   5.627  14.946 -0.1804 -0.8364 -0.7513
15029TIP3   OH266501   0.036   4.282   3.006  0.1742  0.2325 -0.4948
15029TIP3    H166502   0.123   4.310   3.036  0.2807 -0.0450 -0.5420
15029TIP3    H266503   0.019   4.336   2.929  0.4762  0.0151 -0.7174
15030TIP3   OH266504   5.244   3.217   4.871  0.2168 -0.1760 -0.0004
15030TIP3    H166505   5.236   3.270   4.950 -0.0938  3.3881 -2.2096
15030TIP3    H266506   5.339   3.203   4.861  0.3727  0.6738  0.2318
15031TIP3   OH266507   2.913   2.176  16.432 -0.0566  0.3182 -0.4664
15031TIP3    H166508   2.934   2.164  16.340  0.4122  0.7795 -0.4235
15031TIP3    H266509   2.964   2.253  16.459 -0.5515  0.4721  0.0538
15032TIP3   OH266510   3.228   3.757   0.893 -0.2424  0.4191  0.2321
15032TIP3    H166511   3.204   3.848   0.872  1.3295  0.6130 -0.9058
15032TIP3    H266512   3.247   3.759   0.987  1.0621  1.6118 -0.0150
15033TIP3   OH266513   5.061   1.047   4.727  0.3640 -0.1710 -0.3601
15033TIP3    H166514   5.012   0.984   4.674 -2.0169  0.3615  1.0857
15033TIP3    H266515   5.068   1.006   4.813 -0.4311  1.1583  0.3488
15034TIP3   OH266516   6.378   2.801   0.710  0.4634  0.1987 -1.0474
15034TIP3    H166517   6.297   2.851   0.699 -0.0300 -0.6939 -1.5890
15034TIP3    H266518   6.362   2.746   0.787  0.9073  0.6794 -0.6061
15035TIP3   OH266519   5.155   5.191   3.578 -0.4081  0.2824 -0.0735
15035TIP3    H166520   5.221   5.241   3.530  0.9883 -2.3231 -1.0516
15035TIP3    H266521   5.169   5.215   3.670  3.1738 -1.3790 -0.0085
15036TIP3   OH266522   6.286   0.890   1.038 -0.1079 -0.0316 -0.2027
15036TIP3    H166523   6.239   0.937   1.107 -0.1203  0.2508 -0.4028
15036TIP3    H266524   6.338   0.824   1.085  0.4855  0.6696  0.1376
15037TIP3   OH266525   3.202   6.573   4.245  0.4248 -0.2844 -0.0828
15037TIP3    H166526   3.211   6.546   4.154 -0.2583  1.4103 -0.6897
15037TIP3    H266527   3.133   6.638   4.245 -1.4585 -2.0944  2.0950
15038TIP3   OH266528   6.446   5.387   2.713  0.1678 -0.0883  0.0555
15038TIP3    H166529   6.431   5.358   2.803 -1.4136  0.5802  0.0441
15038TIP3    H266530   6.393   5.327   2.660  0.9151 -0.3366 -0.4235
15039TIP3   OH266531   5.065   5.742  11.051  0.9762 -0.4153  0.1960
15039TIP3    H166532   5.008   5.690  10.995  0.7100  0.4591 -0.3692
15039TIP3    H266533   5.152   5.703  11.040  0.5406 -1.6658  0.9598
15040TIP3   OH266534   6.519   0.564  15.323 -0.6580 -0.0117  0.0452
15040TIP3    H166535   6.589   0.606  15.373 -1.4338 -0.4827  1.5783
15040TIP3    H266536   6.534   0.470  15.335 -0.3249 -0.1701 -1.4012
15041TIP3   OH266537   1.173   4.083  12.762 -0.1821  0.2025 -0.1394
15041TIP3    H166538   1.244   4.046  12.814  1.1993  0.6521 -1.6130
15041TIP3    H266539   1.182   4.177  12.774  0.8220  0.3787 -1.9205
15042TIP3   OH266540   3.814   3.355   1.291 -0.6723 -0.5212 -0.1229
15042TIP3    H166541   3.782   3.287   1.230  0.4929 -0.3177 -1.0045
15042TIP3    H266542   3.894   3.318   1.327 -0.0854  0.3253 -0.5279
15043TIP3   OH266543   4.918   5.451   3.845  0.3485 -0.6807 -0.3693
15043TIP3    H166544   4.861   5.407   3.782  0.7749 -1.1474 -0.4348
15043TIP3    H266545   4.914   5.544   3.821 -0.1973 -0.7382 -0.5158
15044TIP3   OH266546   2.004   6.225   2.766 -0.2592 -0.0971 -0.1798
15044TIP3    H166547   1.993   6.186   2.853  1.0213 -0.8898 -0.3381
15044TIP3    H266548   2.098   6.218   2.749 -0.7116 -1.6445 -2.3800
15045TIP3   OH266549   6.547   2.939   3.438  0.4908  0.0885  0.0250
15045TIP3    H166550   6.565   2.849   3.465  2.1768  0.7105  1.1425
15045TIP3    H266551   6.565   2.991   3.516 -2.0343  1.2879 -0.0896
15046TIP3   OH266552   1.857   6.196  14.288  0.4422  0.1061 -0.6307
15046TIP3    H166553   1.898   6.188  14.202  0.9888 -1.8650 -0.2302
15046TIP3    H266554   1.930   6.211  14.348  0.3423 -0.8621 -0.2418
15047TIP3   OH266555   1.875   4.075  11.084  0.0301 -0.3734  0.3421
15047TIP3    H166556   1.859   3.985  11.053 -1.5898 -0.0499  0.1552
15047TIP3    H266557   1.967   4.090  11.066  0.8578 -2.6499  2.0577
15048TIP3   OH266558   0.051   0.111  13.017 -0.2970  0.5050  0.5999
15048TIP3    H166559   0.085   0.034  12.971  0.6324 -0.0310  2.1222
15048TIP3    H266560  -0.019   0.077  13.072 -0.1019  0.8093  1.0403
15049TIP3   OH266561   1.814   0.304   2.925  0.4552  0.0490 -0.2990
15049TIP3    H166562   1.869   0.227   2.906  1.4461  0.8769 -0.8875
15049TIP3    H266563   1.732   0.286   2.879 -0.4695 -1.9594  1.9060
15050TIP3   OH266564   4.974   2.156   5.039 -0.1229  0.2016  0.4082
15050TIP3    H166565   4.881   2.132   5.039 -0.2464  0.5683  2.0422
15050TIP3    H266566   4.974   2.248   5.015 -0.3866  0.7342  2.2984
15051TIP3   OH266567   1.884   2.099  12.171  0.8427  0.2559 -0.2915
15051TIP3    H166568   1.847   2.106  12.259  1.8429 -0.5600  0.2051
15051TIP3    H266569   1.955   2.163  12.170 -0.0407  1.2559 -0.9821
15052TIP3   OH266570   3.159   2.027   2.328  0.6292  0.1624  0.5163
15052TIP3    H166571   3.166   2.118   2.359  1.7327  0.2321  0.0982
15052TIP3    H266572   3.066   2.016   2.308  0.6243  1.5034 -0.3229
15053TIP3   OH266573   4.281   3.675   3.936 -0.2486 -0.2947 -0.0513
15053TIP3    H166574   4.255   3.584   3.920  2.1124 -1.0314 -0.1201
15053TIP3    H266575   4.299   3.710   3.849 -1.0687  0.2375 -0.0174
15054TIP3   OH266576   3.129   6.574   0.390  0.0399 -0.6617  0.0272
15054TIP3    H166577   3.224   6.580   0.394  0.0565 -0.4352 -0.6611
15054TIP3    H266578   3.107   6.494   0.439  0.6991 -1.6724 -1.2887
15055TIP3   OH266579   1.547   6.735  10.752  0.1221  0.7260 -0.2866
15055TIP3    H166580   1.592   6.670  10.698  2.0893  1.2434  0.6578
15055TIP3    H266581   1.615   6.797  10.777 -1.0644  1.4180  1.4131
15056TIP3   OH266582   2.471   0.200   0.924 -0.5274  0.8988  0.2814
15056TIP3    H166583   2.559   0.233   0.944 -0.3412  1.1538 -0.8414
15056TIP3    H266584   2.486   0.111   0.893 -1.1357 -0.8350  4.4009
15057TIP3   OH266585   2.200   4.322  13.610  0.3230  0.1718  0.0604
15057TIP3    H166586   2.178   4.271  13.532 -1.2441  0.7433  0.0920
15057TIP3    H266587   2.128   4.305  13.671  0.1629  1.7810  0.3607
15058TIP3   OH266588   2.269   3.291   4.629  0.4369  0.0680  0.3304
15058TIP3    H166589   2.356   3.253   4.633 -0.4774 -2.1124  1.2956
15058TIP3    H266590   2.276   3.373   4.679  1.7648 -0.4424  1.0221
15059TIP3   OH266591   5.500   1.668  13.798  0.0458 -0.0025 -0.2353
15059TIP3    H166592   5.539   1.595  13.845 -0.7279  0.3503  1.0140
15059TIP3    H266593   5.406   1.659  13.814 -0.2397  0.1859 -1.6654
15060TIP3   OH266594   6.088   2.811  11.840  0.2885  0.1823  0.0364
15060TIP3    H166595   6.118   2.891  11.796 -0.3527  0.9380  0.9277
15060TIP3    H266596   6.102   2.829  11.933 -2.6670  0.5088  0.5141
15061TIP3   OH266597   4.952   2.706   1.901  0.1983  0.4293 -0.0406
15061TIP3    H166598   4.860   2.679   1.889  0.2071  0.4138 -0.0738
15061TIP3    H266599   4.947   2.801   1.913  0.1015  0.3290  0.7981
15062TIP3   OH266600   3.626   5.327   2.224 -0.7985  0.2884  0.9073
15062TIP3    H166601   3.639   5.379   2.303  2.0903  1.4606 -0.2037
15062TIP3    H266602   3.694   5.260   2.228  1.9447  2.5818 -2.1626
15063TIP3   OH266603   2.150   3.568  16.131 -0.2886  0.3564 -0.2499
15063TIP3    H166604   2.234   3.525  16.115 -0.3754  0.4265 -0.9128
15063TIP3    H266605   2.085   3.499  16.121 -0.3897  0.5293 -0.8180
15064TIP3   OH266606   0.089   6.564   2.547  0.5243 -0.1839  0.2443
15064TIP3    H166607   0.170   6.514   2.544  1.0353  0.4477  2.1494
15064TIP3    H266608   0.108   6.637   2.606 -0.9207  0.9223 -0.5878
15065TIP3   OH266609   6.718   4.483  16.117  0.6543  0.3137 -0.4464
15065TIP3    H166610   6.739   4.530  16.036  2.1341 -1.4112 -1.1385
15065TIP3    H266611   6.632   4.516  16.142  0.3720  1.2730 -2.4559
15066TIP3   OH266612   3.128   5.837  13.050  0.9475 -0.4890  0.2721
15066TIP3    H166613   3.074   5.916  13.053  0.3428 -0.8917  0.0523
15066TIP3    H266614   3.100   5.785  13.125  1.2692 -0.5448  0.3548
15067TIP3   OH266615   0.918   0.611   1.453  0.3306 -0.3837 -0.2663
15067TIP3    H166616   0.905   0.705   1.441 -0.1787 -0.4616 -0.3351
15067TIP3    H266617   0.981   0.586   1.385  0.7157 -0.0359 -0.0402
15068TIP3   OH266618   1.129   1.270   3.863 -0.3028 -0.4518  0.0232
15068TIP3    H166619   1.093   1.181   3.873  0.5292 -0.7873  0.0853
15068TIP3    H266620   1.083   1.306   3.787 -0.1661 -1.1855 -0.4180
15069TIP3   OH266621   3.553   0.828  16.704  0.3898 -0.2141 -0.2317
15069TIP3    H166622   3.513   0.781  16.777  0.7080  1.0820  0.8227
15069TIP3    H266623   3.646   0.807  16.710  0.1159 -2.1545 -1.8686
15070TIP3   OH266624   3.677   2.776   2.491 -0.2179  0.4876 -0.1906
15070TIP3    H166625   3.597   2.774   2.543 -0.3449  0.5140 -0.3835
15070TIP3    H266626   3.737   2.716   2.536 -0.3709  0.4135 -0.0863
15071TIP3   OH266627   5.556   5.500  11.567 -0.2817  0.6598  0.4278
15071TIP3    H166628   5.649   5.525  11.563 -0.3890  1.3928  1.8041
15071TIP3    H266629   5.546   5.462  11.655 -1.5387  1.7618  0.7927
15072TIP3   OH266630   0.050   5.954   0.437 -0.0915 -0.1849 -0.0046
15072TIP3    H166631   0.030   6.036   0.483  0.4624  0.1852 -0.4042
15072TIP3    H266632  -0.009   5.890   0.476 -2.0216  0.8213 -1.0688
15073TIP3   OH266633   0.132   0.963   3.034 -0.1090 -0.4031 -0.1375
15073TIP3    H166634   0.182   0.933   3.110  0.5207 -0.4267 -0.5549
15073TIP3    H266635   0.151   0.898   2.966  0.7468  0.5676 -0.8527
15074TIP3   OH266636   2.860   3.397   0.808  0.1166  0.1859 -0.2589
15074TIP3    H166637   2.929   3.441   0.758  0.2598 -1.0445 -1.1775
15074TIP3    H266638   2.868   3.434   0.896  1.9739  0.0640 -0.3340
15075TIP3   OH266639   2.687   4.059   5.532 -0.1243 -0.2130  0.0436
15075TIP3    H166640   2.680   4.054   5.436  3.5690  0.0347 -0.3834
15075TIP3    H266641   2.628   4.130   5.556 -1.5039 -0.5894 -1.9662
15076TIP3   OH266642   4.583   2.313   2.790  0.1865  0.1025  0.0776
15076TIP3    H166643   4.637   2.282   2.862  0.2776  0.1650  0.0367
15076TIP3    H266644   4.521   2.374   2.831  0.2579  0.1609  0.0979
15077TIP3   OH266645   2.667   6.287   3.906 -0.0151 -0.3269 -0.4852
15077TIP3    H166646   2.715   6.237   3.972 -0.8039 -0.9188 -0.3552
15077TIP3    H266647   2.596   6.329   3.954 -1.1062 -1.4372 -1.0698
15078TIP3   OH266648   5.249   1.742  12.689  0.6580 -0.0350  0.4294
15078TIP3    H166649   5.208   1.697  12.762  1.8251  1.5829  2.1825
15078TIP3    H266650   5.340   1.713  12.689  0.3825 -1.0544 -1.3019
15079TIP3   OH266651   3.465   1.384  10.525 -0.1156  0.0112  0.0914
15079TIP3    H166652   3.389   1.420  10.569  0.4530 -0.1993  1.3163
15079TIP3    H266653   3.444   1.291  10.514  0.7317 -0.5030  2.3056
15080TIP3   OH266654   1.007   6.681   3.827 -0.0570 -0.3272 -0.0005
15080TIP3    H166655   0.997   6.701   3.734 -1.5244 -1.6188 -0.1534
15080TIP3    H266656   1.056   6.756   3.862  1.5776 -0.3605 -2.0141
15081TIP3   OH266657   2.016   0.744  16.693  0.4554  0.5521 -0.4624
15081TIP3    H166658   2.076   0.756  16.766 -0.8025  0.2585  0.6616
15081TIP3    H266659   1.996   0.651  16.693  0.4589  0.5392 -1.2157
15082TIP3   OH266660   1.110   3.950   5.887  0.0011  0.8041  0.3526
15082TIP3    H166661   1.016   3.950   5.871 -0.0631  0.6468  0.7364
15082TIP3    H266662   1.147   3.996   5.811 -0.4068  1.1402  0.3526
15083TIP3   OH266663   0.132   0.089   2.357  0.1551  0.0313 -0.1696
15083TIP3    H166664   0.181   0.033   2.417  0.2567  0.1259 -0.1650
15083TIP3    H266665   0.193   0.108   2.286 -0.0469 -0.2951 -0.4387
15084TIP3   OH266666   1.522   3.928  12.700  0.2910  0.7325  0.1407
15084TIP3    H166667   1.549   4.006  12.651 -0.1831  0.3738 -0.7109
15084TIP3    H266668   1.547   3.947  12.791  1.8434  1.1111 -0.3383
15085TIP3   OH266669   3.518   2.071  16.932 -0.1775  0.1504 -0.2195
15085TIP3    H166670   3.572   2.099  16.858  1.5976 -3.8068 -0.6837
15085TIP3    H266671   3.580   2.057  17.003 -1.1258 -0.9900  0.4223
15086TIP3   OH266672   5.543   1.106  12.480  0.2842  0.0071 -0.0325
15086TIP3    H166673   5.550   1.138  12.570 -0.1311 -0.3294  0.1255
15086TIP3    H266674   5.513   1.015  12.490 -2.3300  0.7223 -0.5579
15087TIP3   OH266675   5.900   1.928   5.243  0.3770 -0.0688 -0.0507
15087TIP3    H166676   5.976   1.888   5.200  1.7264  2.4157 -0.1700
15087TIP3    H266677   5.915   1.914   5.337  0.0631 -1.0806 -0.1428
15088TIP3   OH266678   3.503   1.457  14.481 -0.0182  0.0714 -0.4078
15088TIP3    H166679   3.520   1.525  14.547  0.0359  0.4684 -0.8275
15088TIP3    H266680   3.535   1.376  14.522 -1.4111  0.0395  0.6850
15089TIP3   OH266681   4.624   2.280  15.153  0.2326 -0.5557  0.4094
15089TIP3    H166682   4.534   2.253  15.132  0.0505 -1.4439  2.1258
15089TIP3    H266683   4.675   2.252  15.077 -1.0341  0.7195 -0.9801
15090TIP3   OH266684   5.340   3.184   1.968  0.2511 -0.1171 -0.4147
15090TIP3    H166685   5.405   3.118   1.990 -0.9631 -1.5744 -0.9953
15090TIP3    H266686   5.385   3.244   1.909  1.1600 -0.8955 -0.5306
15091TIP3   OH266687   5.507   0.275   6.778 -0.2916 -0.3809 -0.4393
15091TIP3    H166688   5.531   0.314   6.694  2.1088  1.0335  0.7884
15091TIP3    H266689   5.421   0.312   6.799  0.4919  1.8002 -0.8413
15092TIP3   OH266690   1.445   4.850   1.661  0.9220  0.2873  0.2901
15092TIP3    H166691   1.359   4.831   1.698  0.3939  0.3943 -0.8277
15092TIP3    H266692   1.443   4.809   1.575  1.2528  1.9393 -0.5447
15093TIP3   OH266693   0.090   4.218   0.004 -0.2484 -0.1846 -0.0032
15093TIP3    H166694   0.056   4.302  -0.028 -0.6835 -0.7668 -1.1027
15093TIP3    H266695   0.162   4.243   0.062  1.4030  0.9085 -2.3707
15094TIP3   OH266696   6.732   4.193   3.916 -0.9090 -0.4153  0.3911
15094TIP3    H166697   6.799   4.215   3.980  0.1102 -1.6608 -0.2118
15094TIP3    H266698   6.748   4.254   3.843 -1.3749  0.2533  0.8265
15095TIP3   OH266699   2.054   3.115  12.544 -0.0644  0.0112 -0.0535
15095TIP3    H166700   2.086   3.175  12.476 -0.0391 -0.0498 -0.0962
15095TIP3    H266701   1.982   3.162  12.586  1.0421  0.7765  1.0470
15096TIP3   OH266702   5.682   4.897  13.314  0.0692 -0.1296  0.1457
15096TIP3    H166703   5.664   4.988  13.336 -2.4079 -0.3835 -0.5214
15096TIP3    H266704   5.638   4.847  13.383  0.6763 -0.8487  0.0242
15097TIP3   OH266705   1.730   5.676  13.928 -0.7277  0.5268 -0.3281
15097TIP3    H166706   1.664   5.606  13.929  0.3037 -0.4688  0.1441
15097TIP3    H266707   1.777   5.666  14.010 -1.1679  2.4169  0.2032
15098TIP3   OH266708   4.181   4.828   4.207  0.4239  0.0375 -0.1464
15098TIP3    H166709   4.235   4.755   4.235  0.0312 -0.7622 -1.3941
15098TIP3    H266710   4.109   4.788   4.157  0.9120  1.3248 -1.9895
15099TIP3   OH266711   3.808   5.186  14.833 -0.1638 -0.0596 -0.2811
15099TIP3    H166712   3.819   5.246  14.907  0.0476  0.6954 -0.9136
15099TIP3    H266713   3.889   5.195  14.783 -0.7875  0.3246 -1.2362
15100TIP3   OH266714   4.754   1.990  11.793  0.3474  0.0112  0.2115
15100TIP3    H166715   4.750   2.080  11.824 -1.7310  0.8652 -2.1625
15100TIP3    H266716   4.831   1.987  11.737  0.8564  0.0814  0.9018
15101TIP3   OH266717   4.964   0.806  14.124 -0.1585  0.2079 -0.7019
15101TIP3    H166718   5.044   0.771  14.161 -0.5205  0.6681  0.5601
15101TIP3    H266719   4.975   0.901  14.128 -1.0932  0.2989  0.2836
15102TIP3   OH266720   4.273   2.015   4.416  0.1290  0.0928  0.4199
15102TIP3    H166721   4.241   2.003   4.506 -0.5296  1.4983  0.3924
15102TIP3    H266722   4.298   2.107   4.412  2.3810 -0.4740 -0.1660
15103TIP3   OH266723   3.444   2.872  14.034 -0.0154 -0.1557 -0.2664
15103TIP3    H166724   3.505   2.830  14.094  1.1358  1.5486 -0.1537
15103TIP3    H266725   3.383   2.803  14.009  0.0122 -1.1331  2.1345
15104TIP3   OH266726   3.563   5.607  13.038  0.3385  0.4036 -0.0631
15104TIP3    H166727   3.483   5.621  12.988 -1.1321  0.2523  2.0754
15104TIP3    H266728   3.595   5.695  13.058  1.4200  0.4661 -1.9067
15105TIP3   OH266729   6.546   6.206  13.566 -0.0451 -0.1033  0.2850
15105TIP3    H166730   6.512   6.294  13.553 -0.7820 -0.5997 -1.3824
15105TIP3    H266731   6.592   6.186  13.485  1.5389 -0.6701  1.2709
15106TIP3   OH266732   6.488   6.046  16.761 -0.4462 -0.0438  0.0967
15106TIP3    H166733   6.428   5.996  16.816  1.0585  0.0176  1.8650
15106TIP3    H266734   6.486   6.135  16.797  2.7189 -0.6153  2.0860
15107TIP3   OH266735   1.656   0.823   0.511  0.0132 -0.2597  0.5181
15107TIP3    H166736   1.701   0.743   0.483  2.1168  1.3040 -0.8776
15107TIP3    H266737   1.664   0.824   0.606  2.7743 -0.2186  0.3566
15108TIP3   OH266738   2.454   3.059   5.955  0.3666 -0.4609 -0.4943
15108TIP3    H166739   2.525   3.035   5.895  0.6359 -2.6782  0.6182
15108TIP3    H266740   2.498   3.092   6.033  0.1349 -0.3415 -0.4131
15109TIP3   OH266741   4.268   2.655   0.185 -0.2989 -0.1913 -0.3840
15109TIP3    H166742   4.252   2.666   0.279  1.0144 -0.2642 -0.1212
15109TIP3    H266743   4.245   2.563   0.168  0.0890 -0.3745  0.0320
15110TIP3   OH266744   4.927   2.660  11.409  0.3947 -0.8854  0.5199
15110TIP3    H166745   4.981   2.683  11.485  0.7499  0.1980 -0.0338
15110TIP3    H266746   4.974   2.588  11.368  1.2074 -0.2504  0.3014
15111TIP3   OH266747   6.365   4.655   5.361 -0.5997  0.0799 -0.5521
15111TIP3    H166748   6.429   4.592   5.394 -1.4047 -0.7693 -0.5981
15111TIP3    H266749   6.364   4.642   5.266 -0.3368  0.5828 -0.6294
15112TIP3   OH266750   3.798   4.289  16.965  0.4106 -0.2980 -0.7961
15112TIP3    H166751   3.796   4.298  16.869 -0.6123  0.0074 -0.7644
15112TIP3    H266752   3.711   4.257  16.987  0.1299  1.0350  0.1481
15113TIP3   OH266753   0.641   0.943  14.198 -0.4432  0.0241  0.2311
15113TIP3    H166754   0.725   0.899  14.183 -0.2680  0.4637 -0.0943
15113TIP3    H266755   0.650   0.983  14.284 -1.2158 -1.9660  1.2810
15114TIP3   OH266756   5.871   1.575  13.385  0.3869 -0.4042  0.6268
15114TIP3    H166757   5.899   1.496  13.432 -0.3987 -0.3148  1.2597
15114TIP3    H266758   5.781   1.590  13.415  0.8835  1.3611  1.3726
15115TIP3   OH266759   0.340   1.991   1.188 -0.0112  0.0226  0.1160
15115TIP3    H166760   0.323   1.897   1.189 -1.0199  0.1768  2.1063
15115TIP3    H266761   0.331   2.016   1.096 -2.8897 -1.3305 -0.0795
15116TIP3   OH266762   6.281   6.771  15.618 -0.5577 -0.0033 -0.0343
15116TIP3    H166763   6.336   6.774  15.696  0.3287 -1.6839 -0.5367
15116TIP3    H266764   6.246   6.859  15.610  0.4505  0.5826  1.4502
15117TIP3   OH266765   1.412   2.589  12.624  0.3512  0.1524  0.3818
15117TIP3    H166766   1.407   2.564  12.716  1.3204  0.2719  0.4799
15117TIP3    H266767   1.322   2.611  12.600  0.1350  0.3965  1.3745
15118TIP3   OH266768   4.779   4.336   1.388 -0.2041  0.3436  0.8536
15118TIP3    H166769   4.741   4.290   1.464  0.1162  1.4964  1.7309
15118TIP3    H266770   4.710   4.396   1.360  0.4665  1.5517  1.6800
15119TIP3   OH266771   5.389   1.315   2.662  0.7154 -0.5219 -0.2798
15119TIP3    H166772   5.478   1.312   2.697  0.2087  0.6520  1.2055
15119TIP3    H266773   5.373   1.407   2.643 -0.1009 -0.7583 -0.8218
15120TIP3   OH266774   1.828   6.219   5.035 -0.1338 -0.4898  0.0096
15120TIP3    H166775   1.873   6.233   4.952 -1.5018  2.5641 -0.3495
15120TIP3    H266776   1.815   6.307   5.071 -2.8989 -1.4234  1.6265
15121TIP3   OH266777   0.680   3.720  12.697 -0.5764  0.2600 -0.0113
15121TIP3    H166778   0.687   3.745  12.789 -0.0812 -1.3414  0.4138
15121TIP3    H266779   0.732   3.785  12.650  1.6860 -0.5787  1.1650
15122TIP3   OH266780   6.684   3.932   3.674 -0.0851  0.0183 -0.4362
15122TIP3    H166781   6.685   3.941   3.769 -0.9890  0.3011 -0.4515
15122TIP3    H266782   6.623   3.998   3.643 -0.6318 -0.7849 -1.1385
15123TIP3   OH266783   2.898   4.509   3.328  0.1546  0.4483  0.5353
15123TIP3    H166784   2.845   4.486   3.253 -0.3332  3.0019  0.0179
15123TIP3    H266785   2.850   4.475   3.403  0.1988 -1.3298 -0.1955
15124TIP3   OH266786   5.634   6.613   6.504 -0.4633  0.6321 -0.8140
15124TIP3    H166787   5.596   6.549   6.444  0.3017 -0.6168 -0.0076
15124TIP3    H266788   5.707   6.651   6.454  1.4025 -1.7852 -0.0955
15125TIP3   OH266789   3.656   2.156   3.185 -0.2304 -0.0502  0.7277
15125TIP3    H166790   3.576   2.110   3.159  0.1452 -0.7260  0.7348
15125TIP3    H266791   3.682   2.206   3.108  0.4433 -1.4235  0.0153
15126TIP3   OH266792   5.868   1.404   0.107 -0.3275 -0.3934  0.0799
15126TIP3    H166793   5.890   1.456   0.030  4.7330 -2.7158 -0.4146
15126TIP3    H266794   5.786   1.359   0.084 -0.5529  1.2067 -2.6426
15127TIP3   OH266795   3.170   5.904   4.749 -0.1692  0.1203 -0.4627
15127TIP3    H166796   3.202   5.830   4.697  4.9792  2.0424 -0.6045
15127TIP3    H266797   3.111   5.951   4.690 -0.1348 -1.5730 -1.9317
15128TIP3   OH266798   3.166   5.720   6.148 -0.2773 -0.3356  0.2802
15128TIP3    H166799   3.259   5.724   6.170 -0.2592  1.7843  0.0252
15128TIP3    H266800   3.129   5.800   6.186 -1.9883 -1.1053  0.3174
15129TIP3   OH266801   5.294   5.616   6.390 -0.4448 -0.0856 -0.1764
15129TIP3    H166802   5.220   5.668   6.359  0.2538  1.9637  1.3917
15129TIP3    H266803   5.354   5.613   6.315 -1.4558 -0.5342 -0.9856
15130TIP3   OH266804   1.641   3.982  16.525  0.4151 -0.4016  0.2515
15130TIP3    H166805   1.630   3.900  16.573 -1.6720 -0.6488 -0.5481
15130TIP3    H266806   1.718   3.967  16.470  1.1220 -1.1499  1.3904
15131TIP3   OH266807   1.416   2.053  10.487  0.0729  0.4936 -0.3755
15131TIP3    H166808   1.461   1.971  10.509  0.9356  0.9968 -0.2592
15131TIP3    H266809   1.462   2.120  10.536 -0.6884  1.0493 -0.4071
15132TIP3   OH266810   0.436   5.908   3.154 -0.4106 -0.6214 -0.0368
15132TIP3    H166811   0.517   5.897   3.104 -0.2802 -0.7082  0.1925
15132TIP3    H266812   0.385   5.829   3.135  0.0253 -1.0905  0.6805
15133TIP3   OH266813   0.925   2.857  16.295  0.0935 -0.3386 -0.0844
15133TIP3    H166814   0.866   2.823  16.363  2.2080 -0.2018  1.9661
15133TIP3    H266815   0.918   2.952  16.304  0.4699 -0.3220  0.0698
15134TIP3   OH266816   0.397   5.756   2.536 -0.5526  0.0457  0.2739
15134TIP3    H166817   0.410   5.689   2.470  1.0649  0.6106 -0.0336
15134TIP3    H266818   0.432   5.836   2.497  0.6644  0.3538  1.8473
15135TIP3   OH266819   1.753   4.417  10.627 -0.1866 -0.6339  0.2241
15135TIP3    H166820   1.810   4.381  10.695 -0.0555 -2.5918 -0.8478
15135TIP3    H266821   1.796   4.395  10.545 -2.1369 -1.6155 -0.5939
15136TIP3   OH266822   5.550   4.810   2.831  0.0927  0.1542 -0.0742
15136TIP3    H166823   5.473   4.798   2.775  1.4394 -1.7042 -1.6925
15136TIP3    H266824   5.514   4.815   2.920 -1.8991 -0.5360 -0.7662
15137TIP3   OH266825   6.378   0.396  14.486  0.6187  0.1195 -0.0374
15137TIP3    H166826   6.445   0.453  14.448  0.4386  0.1391 -0.3209
15137TIP3    H266827   6.348   0.445  14.563 -0.2788  0.8986 -0.8588
15138TIP3   OH266828   5.518   6.017   0.863 -0.2818 -0.0548 -0.1462
15138TIP3    H166829   5.610   6.020   0.837 -0.3594  1.7417 -0.3683
15138TIP3    H266830   5.507   6.095   0.918 -2.1368  0.9162 -1.7995
15139TIP3   OH266831   5.012   0.815  14.594  0.3855  0.1009 -0.0164
15139TIP3    H166832   5.015   0.801  14.689 -1.6259 -0.2593  0.0260
15139TIP3    H266833   4.954   0.747  14.561  0.3968  0.7305 -1.4142
15140TIP3   OH266834   5.106   2.570   2.145  0.1699 -0.0420 -0.0987
15140TIP3    H166835   5.010   2.566   2.142  0.0682  0.6574  1.4239
15140TIP3    H266836   5.133   2.555   2.055 -1.3752 -0.1790 -0.5718
15141TIP3   OH266837   0.359   0.852  13.354  0.7896 -0.1255 -0.0097
15141TIP3    H166838   0.367   0.943  13.380  1.2083 -0.0119 -0.5138
15141TIP3    H266839   0.449   0.819  13.352  0.9247  0.1943 -2.3735
15142TIP3   OH266840   0.827   1.060  13.360  0.5769 -0.4387 -0.1432
15142TIP3    H166841   0.885   0.990  13.388 -0.2325 -0.6705  1.0498
15142TIP3    H266842   0.834   1.126  13.429  0.8451  0.3808 -0.9364
15143TIP3   OH266843   1.874   6.708  16.963  0.7298 -0.6010  0.5874
15143TIP3    H166844   1.799   6.712  17.023  0.2836 -0.2589  0.0233
15143TIP3    H266845   1.869   6.620  16.925  0.8341 -0.7107  0.8264
15144TIP3   OH266846   5.787   6.443  17.081 -0.5025 -0.5232  0.3132
15144TIP3    H166847   5.808   6.405  17.166 -0.9428 -0.7455  0.3298
15144TIP3    H266848   5.692   6.457  17.084 -0.2676  1.1994  0.5473
15145TIP3   OH266849   0.748   2.538  15.649 -0.0886 -0.3566 -0.1223
15145TIP3    H166850   0.681   2.525  15.581 -2.1382 -2.6633  2.1249
15145TIP3    H266851   0.788   2.452  15.660  1.5279  0.4217  0.3628
15146TIP3   OH266852   2.518   6.082   5.796  0.2606  0.4589 -0.0014
15146TIP3    H166853   2.558   6.102   5.711  0.0773  1.3976  0.1153
15146TIP3    H266854   2.467   6.161   5.817 -1.5698 -0.6457 -0.0977
15147TIP3   OH266855   1.695   1.987  13.277  0.1634  0.1286  0.2866
15147TIP3    H166856   1.762   1.927  13.245 -1.3237 -0.3977 -2.1189
15147TIP3    H266857   1.676   2.044  13.202 -1.9559  0.3516  0.9238
15148TIP3   OH266858   0.788   6.092   1.341 -0.2954 -0.2481 -0.0075
15148TIP3    H166859   0.748   6.010   1.372 -2.8603  0.5699 -0.8542
15148TIP3    H266860   0.850   6.064   1.274  0.4699 -1.5992  1.2055
15149TIP3   OH266861   3.862   0.596  14.618 -0.9190  0.4293 -0.1458
15149TIP3    H166862   3.844   0.505  14.593 -2.0418  0.6910 -0.3279
15149TIP3    H266863   3.926   0.626  14.553  0.5244 -0.6247  0.7220
15150TIP3   OH266864   2.058   0.911  13.503  0.2711  0.0588 -0.0567
15150TIP3    H166865   1.984   0.970  13.491 -0.5625 -1.0545 -0.4893
15150TIP3    H266866   2.067   0.901  13.597  1.6875  2.4060  0.1476
15151TIP3   OH266867   1.414   4.257  14.919 -0.0804  0.0296  0.2727
15151TIP3    H166868   1.494   4.304  14.895 -0.0929  0.9997  1.9394
15151TIP3    H266869   1.409   4.184  14.857  2.2686 -0.2429  0.3175
15152TIP3   OH266870   3.002   5.047  14.224 -0.5299 -0.1200 -0.4464
15152TIP3    H166871   2.958   5.109  14.281  0.4480 -0.3551  0.5837
15152TIP3    H266872   3.094   5.054  14.247 -0.0669 -0.0184 -2.2054
15153TIP3   OH266873   6.233   1.409   1.166  0.1657 -0.1622  0.4916
15153TIP3    H166874   6.178   1.447   1.097  1.4915 -0.5992 -0.8621
15153TIP3    H266875   6.251   1.483   1.225 -0.1645  0.4652 -0.1746
15154TIP3   OH266876   3.532   3.223   1.802 -0.0882 -0.0849 -0.7514
15154TIP3    H166877   3.611   3.264   1.837 -0.2873 -0.2130 -0.1466
15154TIP3    H266878   3.545   3.129   1.817 -1.2227  0.0175  1.2080
15155TIP3   OH266879   0.136   5.798  16.111  0.9732  0.5634  0.1045
15155TIP3    H166880   0.044   5.794  16.082  0.9884 -0.1997  0.1196
15155TIP3    H266881   0.173   5.871  16.063  0.6471  0.1547 -0.7985
15156TIP3   OH266882   1.974   1.386   1.536 -0.4016  0.0120  0.3067
15156TIP3    H166883   1.940   1.432   1.459  0.1357  2.5623  1.4788
15156TIP3    H266884   2.069   1.401   1.533  0.0082 -2.3132  0.0016
15157TIP3   OH266885   3.521   6.352  17.276  0.2253  0.2990  0.5079
15157TIP3    H166886   3.571   6.429  17.248  0.1846 -0.0591 -0.6202
15157TIP3    H266887   3.468   6.330  17.199  0.4691 -1.0433  0.7068
15158TIP3   OH266888   3.476   6.372  11.509  0.1857  0.2436  0.1675
15158TIP3    H166889   3.531   6.298  11.535 -2.0454 -2.1523 -1.3699
15158TIP3    H266890   3.406   6.373  11.575 -0.0047  0.7074 -0.0418
15159TIP3   OH266891   0.260   1.567  11.969  0.0085  0.5654 -0.4144
15159TIP3    H166892   0.334   1.541  11.914 -0.9107  0.0860 -1.4773
15159TIP3    H266893   0.276   1.525  12.053 -0.8480 -2.6563 -1.7182
15160TIP3   OH266894   3.360   1.392   5.880  0.6335 -0.2759 -0.0986
15160TIP3    H166895   3.442   1.430   5.846  0.6995 -0.7866 -0.5307
15160TIP3    H266896   3.320   1.351   5.804 -0.3958  0.5873 -0.0497
15161TIP3   OH266897   1.292   4.572   0.183  0.5310  1.0136 -0.3360
15161TIP3    H166898   1.249   4.496   0.222  2.6712 -0.5149 -0.7698
15161TIP3    H266899   1.226   4.610   0.124 -0.4013 -0.8579 -0.5528
15162TIP3   OH266900   1.468   0.630   0.365 -0.4594  0.0692 -0.0969
15162TIP3    H166901   1.500   0.719   0.376 -1.9646  0.6180  0.0415
15162TIP3    H266902   1.534   0.587   0.310  0.6338  1.0449  0.4264
15163TIP3   OH266903   6.557   3.635  10.480  0.1007 -0.6253  0.0501
15163TIP3    H166904   6.646   3.644  10.446 -0.6345 -0.6810 -1.9938
15163TIP3    H266905   6.537   3.721  10.517  0.9350 -0.5684  0.3918
15164TIP3   OH266906   1.813   0.384  14.334  0.6135  0.4350  0.1349
15164TIP3    H166907   1.799   0.403  14.427  0.1386  0.2923  0.0951
15164TIP3    H266908   1.771   0.457  14.288 -2.0093 -1.0876 -0.0484
15165TIP3   OH266909   5.573   4.511   0.656  0.1549 -0.3235  0.2960
15165TIP3    H166910   5.562   4.511   0.561 -0.3289  0.3880  0.3393
15165TIP3    H266911   5.502   4.567   0.688 -1.5286 -2.8606  1.3217
15166TIP3   OH266912   1.206   3.764  16.831  0.4949  0.4217  0.0791
15166TIP3    H166913   1.112   3.776  16.825  0.8202  4.0523  0.0192
15166TIP3    H266914   1.235   3.753  16.740  0.3345  1.6923 -0.1349
15167TIP3   OH266915   1.606   3.724   1.832  0.3719  0.2972 -0.1909
15167TIP3    H166916   1.681   3.737   1.774  1.5525  0.6993  1.3720
15167TIP3    H266917   1.596   3.808   1.876 -0.3119 -0.0972  0.4170
15168TIP3   OH266918   6.498   3.917   5.440  0.5775  0.3729  0.2193
15168TIP3    H166919   6.405   3.920   5.460  0.6201 -0.2242  0.5451
15168TIP3    H266920   6.528   3.834   5.478  1.2351  0.5495  0.1011
15169TIP3   OH266921   0.992   2.849  14.074 -0.2548 -0.3027 -0.4007
15169TIP3    H166922   1.061   2.903  14.113  0.2966 -0.5567 -1.0004
15169TIP3    H266923   1.006   2.762  14.112  0.0130 -0.4487 -0.8304
15170TIP3   OH266924   3.554   1.963  14.134 -0.1934  0.1937  0.4415
15170TIP3    H166925   3.560   2.037  14.194 -0.1093  0.3507  0.2386
15170TIP3    H266926   3.589   1.889  14.184  0.0967  0.3721  0.5066
15171TIP3   OH266927   1.348   2.684   4.609 -0.2141  0.2507  0.0819
15171TIP3    H166928   1.391   2.727   4.534 -1.0431 -1.5719 -1.5387
15171TIP3    H266929   1.257   2.714   4.605 -0.6589 -1.1145 -0.7105
15172TIP3   OH266930   1.721   6.473  12.519  0.3087  0.1074  0.4952
15172TIP3    H166931   1.688   6.508  12.602 -0.5834  0.4806 -0.0074
15172TIP3    H266932   1.700   6.540  12.454  1.5868  0.1165  0.0566
15173TIP3   OH266933   3.912   3.005   4.337  0.1118 -0.2441  0.6166
15173TIP3    H166934   3.999   3.045   4.336  1.0385 -2.1104  1.8474
15173TIP3    H266935   3.881   3.014   4.247  2.3669 -1.1143 -0.3201
15174TIP3   OH266936   0.442   4.423   3.908 -0.2112  0.8133 -0.4004
15174TIP3    H166937   0.496   4.456   3.836 -3.0423  3.2763 -1.6082
15174TIP3    H266938   0.463   4.480   3.982 -1.4338  2.1604 -1.0357
15175TIP3   OH266939   2.219   1.205  12.011  0.6788  0.4108 -0.4393
15175TIP3    H166940   2.228   1.193  12.106 -1.8407  0.9044 -0.0684
15175TIP3    H266941   2.152   1.142  11.986  0.7171  0.8706 -1.7587
15176TIP3   OH266942   1.417   4.157   1.969 -0.0554 -0.0032 -0.2369
15176TIP3    H166943   1.416   4.253   1.970  1.0815  0.0374 -0.8830
15176TIP3    H266944   1.344   4.133   1.913  0.3695  0.5398 -1.0569
15177TIP3   OH266945   0.251   2.137   4.564 -0.2176  0.2499  0.2972
15177TIP3    H166946   0.166   2.173   4.541 -0.1626 -0.5894 -1.3071
15177TIP3    H266947   0.311   2.212   4.560 -0.7073  0.6569  0.5272
15178TIP3   OH266948   0.529   3.312  11.131  0.5904 -0.1408 -0.7858
15178TIP3    H166949   0.617   3.282  11.108  0.0414 -1.5343 -1.1978
15178TIP3    H266950   0.481   3.232  11.149 -0.3608  0.6542  0.3500
15179TIP3   OH266951   2.577   1.393   5.513 -0.0988  0.1892  0.1415
15179TIP3    H166952   2.583   1.487   5.526  0.4423  0.2510 -0.5172
15179TIP3    H266953   2.569   1.382   5.419  1.1974 -0.4696  0.0796
15180TIP3   OH266954   1.049   2.214  17.001 -0.3348 -0.3179 -0.1213
15180TIP3    H166955   0.969   2.267  17.002  0.7613  1.4258  1.3947
15180TIP3    H266956   1.118   2.275  16.976  0.6543 -1.6211 -0.6803
15181TIP3   OH266957   1.346   4.221  15.916  0.6229  0.2489 -0.7389
15181TIP3    H166958   1.364   4.170  15.995 -1.5364 -0.1375 -0.4208
15181TIP3    H266959   1.339   4.311  15.946  0.3833  0.1749 -0.5613
15182TIP3   OH266960   4.300   5.280  12.356  0.7487  0.1588  0.8567
15182TIP3    H166961   4.246   5.266  12.434  0.1085  2.2234  0.8382
15182TIP3    H266962   4.249   5.243  12.284 -0.2945  1.3892  0.9502
15183TIP3   OH266963   5.029   0.214  11.706  0.7495  0.1879  0.3202
15183TIP3    H166964   5.011   0.137  11.652  0.5027  0.6452 -0.2646
15183TIP3    H266965   5.104   0.256  11.664  1.0978  0.0830  0.8348
15184TIP3   OH266966   2.772   3.535   3.455  0.1086 -0.2863 -0.5069
15184TIP3    H166967   2.840   3.493   3.403  0.7118 -0.2441  0.2332
15184TIP3    H266968   2.694   3.482   3.441  0.2838 -0.3344 -1.3643
15185TIP3   OH266969   1.187   6.580  15.960  0.3359  0.4677 -1.0152
15185TIP3    H166970   1.205   6.593  16.053 -2.0891 -0.4097 -0.3389
15185TIP3    H266971   1.174   6.668  15.925  0.0612  0.7520 -0.2217
15186TIP3   OH266972   3.637   0.777  13.735 -0.1798 -0.3844 -0.0299
15186TIP3    H166973   3.588   0.858  13.725  0.4233 -0.0307 -0.1936
15186TIP3    H266974   3.729   0.804  13.731  0.0307 -1.0093  0.4428
15187TIP3   OH266975   3.972   4.584   5.138  0.5692 -0.3632 -0.2186
15187TIP3    H166976   4.009   4.548   5.219  0.8597 -0.3887 -0.3611
15187TIP3    H266977   4.030   4.553   5.069  2.0929  2.0661 -0.1681
15188TIP3   OH266978   1.515   6.336   1.360  0.4541  0.2368  0.0652
15188TIP3    H166979   1.601   6.355   1.322  0.3716 -0.1152 -0.3136
15188TIP3    H266980   1.453   6.382   1.304  0.5186  2.7108  1.8612
15189TIP3   OH266981   0.218   2.746   0.468 -0.6947  0.0739 -0.4575
15189TIP3    H166982   0.306   2.734   0.432 -0.8458  1.2161 -1.2528
15189TIP3    H266983   0.193   2.659   0.499  0.3056 -0.4839 -1.1559
15190TIP3   OH266984   4.800   1.276  16.254 -0.0096  0.5153 -0.5647
15190TIP3    H166985   4.870   1.250  16.194 -1.6090  0.6250 -2.5886
15190TIP3    H266986   4.807   1.371  16.258  0.6879  0.4482  0.2456
15191TIP3   OH266987   0.647   1.608  11.452 -0.2615 -0.5447  0.1007
15191TIP3    H166988   0.646   1.603  11.548 -0.8894  0.2296  0.1463
15191TIP3    H266989   0.555   1.599  11.427 -0.0490 -1.2240 -0.4691
15192TIP3   OH266990   3.952   5.309   5.368 -0.1557  0.4309  0.3054
15192TIP3    H166991   3.982   5.396   5.394  1.0372 -0.0926  0.7472
15192TIP3    H266992   4.028   5.253   5.379 -0.8951 -0.6750 -0.0116
15193TIP3   OH266993   0.525   2.840   4.111  0.3331  0.1636  0.6247
15193TIP3    H166994   0.574   2.759   4.123 -0.3685 -0.7570 -2.1464
15193TIP3    H266995   0.434   2.816   4.130  0.1858  0.4117  0.2439
15194TIP3   OH266996   3.963   1.757   2.492  0.4413 -0.3018 -0.2841
15194TIP3    H166997   4.017   1.720   2.422  1.7862 -0.3610  0.7486
15194TIP3    H266998   3.886   1.700   2.496  2.0346 -2.5180  0.6722
15195TIP3   OH266999   1.059   3.138  15.128  0.3053 -0.3107  0.6372
15195TIP3    H167000   1.150   3.151  15.100 -0.6653  1.6232 -2.0477
15195TIP3    H267001   1.050   3.194  15.205  1.8358 -2.0954  2.2142
15196TIP3   OH267002   6.705   2.877  11.652 -0.0611 -0.0361  0.0161
15196TIP3    H167003   6.775   2.929  11.611 -1.5464 -0.0600 -2.8601
15196TIP3    H267004   6.743   2.790  11.663  0.3345 -0.1675 -1.9275
15197TIP3   OH267005   0.954   0.076   0.644 -0.0943  0.1280  0.1920
15197TIP3    H167006   0.903   0.127   0.580  0.1167 -0.4204 -0.4200
15197TIP3    H267007   0.897   0.070   0.721 -0.1175  1.3099  0.2938
15198TIP3   OH267008   3.549   3.939   0.378  0.1274 -0.2652 -0.6150
15198TIP3    H167009   3.627   3.887   0.393 -0.2427 -0.3750  1.1666
15198TIP3    H267010   3.582   4.027   0.358  0.7051 -0.4671 -0.5574
15199TIP3   OH267011   3.679   2.314  10.961 -0.5101  0.2189 -0.0221
15199TIP3    H167012   3.585   2.305  10.976 -0.4095 -1.2500 -0.0445
15199TIP3    H267013   3.707   2.226  10.935  0.5896  0.9952 -1.6764
15200TIP3   OH267014   4.066   2.693  15.466 -0.8203 -0.5123  0.3468
15200TIP3    H167015   4.157   2.681  15.496 -0.6883 -0.6611 -0.1023
15200TIP3    H267016   4.042   2.780  15.499 -0.6928 -0.6910  0.9139
15201TIP3   OH267017   1.097   3.638   1.547  0.2621  0.7440  0.0684
15201TIP3    H167018   1.190   3.650   1.569  0.3451 -0.3458  0.4024
15201TIP3    H267019   1.054   3.632   1.633 -0.4853  3.4696 -0.0250
15202TIP3   OH267020   4.701   0.513   6.354 -0.2148 -0.2737  0.5169
15202TIP3    H167021   4.639   0.458   6.307 -1.0376 -0.3310  1.6430
15202TIP3    H267022   4.710   0.591   6.299  0.7311 -1.3475 -0.9470
15203TIP3   OH267023   5.179   3.402   5.065 -0.6391  0.4656  0.2447
15203TIP3    H167024   5.176   3.497   5.073 -0.7045  0.7859 -2.6558
15203TIP3    H267025   5.108   3.372   5.122 -0.1992  2.0617  1.7235
15204TIP3   OH267026   3.401   2.446  15.683  0.4030  0.5007  0.0821
15204TIP3    H167027   3.388   2.535  15.650  0.3260  0.4162 -0.1151
15204TIP3    H267028   3.495   2.438  15.694  0.3847  0.7343  0.4575
15205TIP3   OH267029   4.937   4.327  16.559 -0.0764  0.0561 -0.2439
15205TIP3    H167030   5.029   4.338  16.584 -0.5059 -1.0399  2.0673
15205TIP3    H267031   4.891   4.310  16.642 -2.1279 -0.9567 -1.5091
15206TIP3   OH267032   1.452   6.664  13.190  0.3427 -0.0937 -0.1102
15206TIP3    H167033   1.545   6.658  13.212  0.5192  1.0813 -0.4621
15206TIP3    H267034   1.409   6.680  13.274  0.8323  2.5627 -0.2494
15207TIP3   OH267035   2.795   4.854   2.287  0.1267 -0.1655  0.3194
15207TIP3    H167036   2.841   4.932   2.318  1.1977 -1.1266  1.2424
15207TIP3    H267037   2.789   4.798   2.364 -2.4449 -0.1922  0.1813
15208TIP3   OH267038   3.773   5.731   4.394 -0.2837  0.2857 -0.1222
15208TIP3    H167039   3.746   5.820   4.371 -0.7407  0.2169  0.1502
15208TIP3    H267040   3.752   5.722   4.487 -0.0380 -0.0336 -0.0945
15209TIP3   OH267041   3.340   5.965   5.993 -0.6045  0.2245  0.1192
15209TIP3    H167042   3.316   6.047   5.950 -0.9574 -0.9197 -1.9644
15209TIP3    H267043   3.260   5.912   5.991  0.2929 -1.1509 -0.9554
15210TIP3   OH267044   5.286   2.313   6.257 -0.3205 -0.5173  0.1390
15210TIP3    H167045   5.353   2.255   6.223 -0.1906  0.4577 -1.3871
15210TIP3    H267046   5.270   2.283   6.346  2.2060 -0.7056  0.5848
15211TIP3   OH267047   2.237   5.624   0.219  0.3326  0.4952 -0.1536
15211TIP3    H167048   2.177   5.620   0.144  0.7842  0.6671 -0.5260
15211TIP3    H267049   2.302   5.689   0.194  1.1452 -0.2835 -0.0953
15212TIP3   OH267050   6.300   1.268  15.201  0.0944  0.1384  0.0506
15212TIP3    H167051   6.267   1.180  15.184  1.2493 -0.3392  0.2020
15212TIP3    H267052   6.324   1.268  15.294  0.0390  0.6298  0.0715
15213TIP3   OH267053   5.288   4.553   5.357 -0.1692 -0.3621 -0.1957
15213TIP3    H167054   5.256   4.586   5.273 -2.1148  0.4111  0.7959
15213TIP3    H267055   5.369   4.506   5.335 -0.8130 -0.4935 -2.5389
15214TIP3   OH267056   1.089   1.131  12.501  0.1311  0.5341 -0.0233
15214TIP3    H167057   1.116   1.211  12.547  0.4464  1.5347 -1.8424
15214TIP3    H267058   1.050   1.163  12.419 -1.0597 -1.1406 -0.1475
15215TIP3   OH267059   5.889   6.011   2.311  0.4844 -0.2629  0.2099
15215TIP3    H167060   5.845   6.095   2.323  0.1799 -0.3860 -0.0460
15215TIP3    H267061   5.911   6.008   2.218  1.3550 -0.0449  0.3953
15216TIP3   OH267062   3.531   3.184  11.763 -0.5465  0.0386  0.3221
15216TIP3    H167063   3.603   3.247  11.762 -1.3997  1.0735  0.8657
15216TIP3    H267064   3.571   3.100  11.744  0.8993  0.4833  1.3108
15217TIP3   OH267065   0.220   2.276   3.048 -0.8155 -0.5266 -0.3064
15217TIP3    H167066   0.237   2.189   3.011  0.9677 -0.8759  1.2206
15217TIP3    H267067   0.253   2.337   2.982  1.9032 -1.1297  0.3866
15218TIP3   OH267068   4.626   6.439   5.820  0.2738 -0.6181 -0.0673
15218TIP3    H167069   4.716   6.471   5.826  0.3131 -0.8534  0.6009
15218TIP3    H267070   4.573   6.518   5.822  0.4296 -0.5224  0.2952
15219TIP3   OH267071   3.545   3.208   4.377  0.1923 -0.0890 -0.2292
15219TIP3    H167072   3.486   3.165   4.439 -1.5469  0.7057 -1.2434
15219TIP3    H267073   3.542   3.300   4.400 -0.9186  0.3066 -1.7459
15220TIP3   OH267074   5.509   0.700   2.489  0.6141 -0.1511  0.2581
15220TIP3    H167075   5.446   0.639   2.526  2.0665 -0.6954  1.9962
15220TIP3    H267076   5.550   0.652   2.417  0.3029 -0.4654  0.2892
15221TIP3   OH267077   0.005   2.755  13.483  0.1030  0.1915  0.5900
15221TIP3    H167078   0.038   2.681  13.432 -1.6664 -1.2262  1.4015
15221TIP3    H267079   0.058   2.830  13.454  1.2133 -1.1590 -1.0450
15222TIP3   OH267080   6.635   2.658   3.537 -0.5189  0.0539  0.2283
15222TIP3    H167081   6.610   2.695   3.622  1.7929 -0.1406  1.0499
15222TIP3    H267082   6.727   2.681   3.527 -0.4942 -0.7493 -1.8202
15223TIP3   OH267083   1.806   3.845  15.120  0.0515  0.2866 -0.6160
15223TIP3    H167084   1.718   3.883  15.127  0.2243  0.3961  2.2856
15223TIP3    H267085   1.793   3.761  15.077 -1.9856 -0.9427  2.1235
15224TIP3   OH267086   1.717   0.841  15.949 -0.4345  0.0810 -0.3557
15224TIP3    H167087   1.655   0.888  16.005 -0.2188  0.2581 -0.2665
15224TIP3    H267088   1.676   0.842  15.862 -0.6755 -0.0229 -0.2442
15225TIP3   OH267089   5.808   6.061   6.242 -0.4518 -0.0135 -0.3646
15225TIP3    H167090   5.895   6.048   6.278 -0.4294  0.7483 -0.1249
15225TIP3    H267091   5.810   6.149   6.204 -1.0844 -0.0221 -0.4368
15226TIP3   OH267092   5.830   1.948   0.104 -0.3845  0.1222 -0.0417
15226TIP3    H167093   5.909   1.894   0.104  0.1436  0.8804  0.2110
15226TIP3    H267094   5.833   1.995   0.021 -0.1098  0.8019  0.3455
15227TIP3   OH267095   0.139   6.626  16.211 -0.0391  0.8900 -0.6521
15227TIP3    H167096   0.063   6.582  16.248  1.4699 -0.6705  0.8079
15227TIP3    H267097   0.131   6.717  16.240 -0.8913  0.5435  0.2490
15228TIP3   OH267098   5.672   5.248  13.523 -0.2334 -0.1335 -0.5617
15228TIP3    H167099   5.688   5.234  13.430  0.1774  0.1612 -0.5358
15228TIP3    H267100   5.593   5.302  13.526  0.2756  0.6417 -0.7725
15229TIP3   OH267101   2.885   1.816  16.123 -0.3042  0.0614 -0.1461
15229TIP3    H167102   2.937   1.890  16.154 -0.6815  0.2274  0.1055
15229TIP3    H267103   2.912   1.804  16.032 -2.0312  2.1599 -1.0393
15230TIP3   OH267104   5.607   6.330   6.034  0.2031  0.4331 -0.0253
15230TIP3    H167105   5.563   6.415   6.031  0.5587  0.8266  2.8837
15230TIP3    H267106   5.687   6.346   6.084  0.4622 -1.5125  0.2606
15231TIP3   OH267107   4.489   3.771   2.402  0.2625 -0.1066  0.3170
15231TIP3    H167108   4.580   3.797   2.389 -0.1583  1.5532  0.3834
15231TIP3    H267109   4.465   3.725   2.321  0.6544  1.0353 -0.4778
15232TIP3   OH267110   6.249   2.486  14.475  0.1030 -0.1937  0.3218
15232TIP3    H167111   6.206   2.400  14.479  1.3069 -0.8228  0.4046
15232TIP3    H267112   6.224   2.521  14.389 -0.3364 -0.6574  0.2525
15233TIP3   OH267113   4.927   2.651  16.038 -0.2729 -0.1881  0.5112
15233TIP3    H167114   5.021   2.631  16.039 -0.2515 -0.1822  2.6643
15233TIP3    H267115   4.899   2.639  16.129 -2.0617  1.2370  0.1932
15234TIP3   OH267116   3.869   5.001   5.789 -0.5113 -0.0441 -0.1752
15234TIP3    H167117   3.913   5.004   5.874 -2.6975 -0.0488  1.0226
15234TIP3    H267118   3.880   5.090   5.754 -0.3674  0.2183  0.5171
15235TIP3   OH267119   1.683   2.075  14.813  0.1019  0.1759  0.6536
15235TIP3    H167120   1.778   2.069  14.803 -0.1226 -0.1461 -2.3600
15235TIP3    H267121   1.652   1.987  14.790 -0.9493  0.3274  1.4530
15236TIP3   OH267122   6.588   6.766  16.818 -0.2952  0.1916 -0.6067
15236TIP3    H167123   6.666   6.719  16.846  1.3264  2.1951 -1.4864
15236TIP3    H267124   6.515   6.707  16.839  1.1501 -0.5643  2.8859
15237TIP3   OH267125   2.063   3.730   3.571 -0.1357 -0.8066 -0.5088
15237TIP3    H167126   2.075   3.647   3.618  1.3608 -1.1289 -1.4000
15237TIP3    H267127   2.127   3.727   3.500 -1.8382 -0.0508 -2.1797
15238TIP3   OH267128   3.709   3.010   2.988 -0.2602  0.4206 -0.7041
15238TIP3    H167129   3.740   3.099   2.972  0.1547  0.5565  0.7530
15238TIP3    H267130   3.618   3.021   3.015 -0.6839  0.2612 -1.9967
15239TIP3   OH267131   1.794   1.005   5.060 -0.4359 -0.1148 -0.1795
15239TIP3    H167132   1.781   1.098   5.040  1.9292  0.2322 -0.4573
15239TIP3    H267133   1.787   1.000   5.156 -0.5479  0.3467 -0.1610
15240TIP3   OH267134   2.771   4.487  14.445 -0.4589 -0.5101  0.5227
15240TIP3    H167135   2.842   4.440  14.490 -0.6607  0.6057  2.0978
15240TIP3    H267136   2.747   4.557  14.505 -2.8206 -0.7580 -0.0118
15241TIP3   OH267137   4.925   0.976  16.521 -0.6423 -0.2509  0.1264
15241TIP3    H167138   4.947   0.988  16.613 -0.2290 -0.1103  0.0101
15241TIP3    H267139   4.999   1.014  16.473  0.0451 -1.9847 -0.2550
15242TIP3   OH267140   2.596   3.176  14.162 -0.2502  0.4375 -0.1330
15242TIP3    H167141   2.513   3.214  14.189 -0.1416 -0.5049  1.6503
15242TIP3    H267142   2.646   3.164  14.243  0.4588 -1.6711 -0.8107
15243TIP3   OH267143   3.676   1.539  11.394  0.0810  0.5059 -0.2638
15243TIP3    H167144   3.650   1.631  11.392  2.2319  1.2201  0.8560
15243TIP3    H267145   3.602   1.494  11.435 -0.3303  2.0514  0.7960
15244TIP3   OH267146   2.878   4.475  15.899 -0.3053  0.1276 -0.0755
15244TIP3    H167147   2.929   4.542  15.855 -0.6663  0.2005 -0.3893
15244TIP3    H267148   2.892   4.491  15.992  0.3001  0.0993 -0.1597
15245TIP3   OH267149   3.584   5.496   1.376 -0.1574  0.8696 -0.0839
15245TIP3    H167150   3.597   5.402   1.362 -0.7103  0.9726 -1.5176
15245TIP3    H267151   3.588   5.507   1.471 -2.0242 -0.9167  0.2850
15246TIP3   OH267152   2.183   5.025   6.050 -0.7831  0.5255  0.3541
15246TIP3    H167153   2.217   5.110   6.077  1.4230 -0.3382  0.4629
15246TIP3    H267154   2.088   5.032   6.064 -0.7448  3.1285 -0.1683
15247TIP3   OH267155   1.295   0.993   2.668  0.0440 -0.2213 -0.2297
15247TIP3    H167156   1.348   1.038   2.734 -0.2931 -1.8437  1.1986
15247TIP3    H267157   1.345   1.002   2.587  1.2510  0.4518  0.5605
15248TIP3   OH267158   2.037   1.807  11.493  0.3394 -0.4243  0.0500
15248TIP3    H167159   1.987   1.726  11.504  1.8027 -1.7863 -2.4217
15248TIP3    H267160   2.021   1.833  11.402  0.5238  1.6665  0.5685
15249TIP3   OH267161   2.845   5.847   2.917 -0.0421 -0.3117  0.0757
15249TIP3    H167162   2.789   5.811   2.848 -1.2044  0.3522  0.6451
15249TIP3    H267163   2.898   5.914   2.873  0.2670 -0.8960 -0.4533
15250TIP3   OH267164   3.152   1.908   4.074 -0.1904 -0.2451  0.1659
15250TIP3    H167165   3.174   1.999   4.053  0.1472 -0.4539 -0.4111
15250TIP3    H267166   3.064   1.895   4.038 -1.1216  0.4563  2.0737
15251TIP3   OH267167   5.343   0.732  15.563  0.1599 -0.1035 -0.2554
15251TIP3    H167168   5.343   0.695  15.652 -1.6051  0.7853  0.1474
15251TIP3    H267169   5.425   0.780  15.557  0.4266 -0.4028  0.7908
15252TIP3   OH267170   3.949   6.570  12.200  0.6667  0.6824  0.4126
15252TIP3    H167171   3.954   6.629  12.124  2.7750 -0.0421 -0.0929
15252TIP3    H267172   4.035   6.578  12.241  1.4409 -2.7577 -0.2763
15253TIP3   OH267173   6.042   3.003  14.243  0.1161  0.4032  0.5820
15253TIP3    H167174   6.097   3.047  14.307 -0.1038  0.3864  0.7817
15253TIP3    H267175   6.059   2.910  14.256  1.9096  0.4357 -1.0011
15254TIP3   OH267176   4.550   5.519   2.479  0.0644  0.1516 -0.1595
15254TIP3    H167177   4.506   5.462   2.542 -0.2749 -0.1210 -0.6406
15254TIP3    H267178   4.581   5.593   2.532  1.0603 -0.7639  0.5803
15255TIP3   OH267179   1.074   0.017   2.701  0.4272 -0.1815  0.1286
15255TIP3    H167180   1.065  -0.025   2.615  0.3241  0.2929 -0.0983
15255TIP3    H267181   1.028  -0.041   2.761  1.7538 -1.2845  0.1199
15256TIP3   OH267182   6.393   3.642  12.883  0.1516 -0.1708 -0.1177
15256TIP3    H167183   6.344   3.685  12.953  1.6392  0.5040  0.5588
15256TIP3    H267184   6.396   3.549  12.909 -2.0734 -0.5328 -0.9905
15257TIP3   OH267185   5.472   4.568  16.636 -0.5532 -0.4326 -0.0956
15257TIP3    H167186   5.436   4.508  16.701 -0.9567  0.9193  0.9800
15257TIP3    H267187   5.560   4.589  16.668  0.0310 -1.3006 -1.0640
15258TIP3   OH267188   1.384   0.284   1.657  0.4340 -0.0388 -0.2993
15258TIP3    H167189   1.474   0.317   1.652  0.8755 -1.2273 -0.5123
15258TIP3    H267190   1.367   0.247   1.570 -0.2213  0.0615 -0.2215
15259TIP3   OH267191   3.964   5.927  17.104 -0.6293 -0.0740  0.0758
15259TIP3    H167192   3.952   5.854  17.166 -0.5206  0.1279  0.3360
15259TIP3    H267193   3.930   5.894  17.021  0.4172 -0.8249 -0.0810
15260TIP3   OH267194   5.038   5.513  14.272  0.6656 -0.2249  0.3937
15260TIP3    H167195   4.968   5.535  14.333  0.2570  0.4173 -0.2882
15260TIP3    H267196   5.072   5.598  14.244  0.4988 -0.4956 -0.6613
15261TIP3   OH267197   2.250   1.790   4.523 -0.0947 -0.2003 -0.1386
15261TIP3    H167198   2.194   1.840   4.582 -1.5262  0.7780 -2.1664
15261TIP3    H267199   2.209   1.703   4.518 -0.9879  0.2420 -0.9329
15262TIP3   OH267200   1.371   4.845  12.949  0.2820  0.1758  0.0848
15262TIP3    H167201   1.353   4.927  12.995  1.2971  0.5215 -0.1021
15262TIP3    H267202   1.452   4.813  12.989  0.4964 -0.1568 -0.6064
15263TIP3   OH267203   6.587   2.133  16.490 -0.4678 -0.0007 -0.1579
15263TIP3    H167204   6.592   2.084  16.408 -0.1440  0.7306 -0.5840
15263TIP3    H267205   6.495   2.154  16.500 -0.4620  0.2036 -0.5141
15264TIP3   OH267206   1.283   0.293   4.636 -0.4204 -0.2794 -0.2010
15264TIP3    H167207   1.188   0.297   4.644 -0.4428 -1.5547  0.3871
15264TIP3    H267208   1.315   0.364   4.692 -0.9839 -1.0084  1.0766
15265TIP3   OH267209   3.538   6.718   0.030  0.4780 -0.2594 -0.4703
15265TIP3    H167210   3.495   6.690   0.111 -1.1572 -0.9425 -1.5205
15265TIP3    H267211   3.530   6.813   0.031 -0.3294 -0.3169 -0.2232
15266TIP3   OH267212   2.678   5.301   5.968 -0.5185 -0.0206 -0.8471
15266TIP3    H167213   2.627   5.347   6.034  0.2532  0.6526 -0.6992
15266TIP3    H267214   2.614   5.279   5.900 -0.9821  0.9826 -0.7666
15267TIP3   OH267215   2.326   3.042   6.273  0.0346 -0.1972  0.4407
15267TIP3    H167216   2.414   3.006   6.285 -0.5651 -1.6067  0.8563
15267TIP3    H267217   2.336   3.109   6.205  1.4386 -0.2455  0.5744
15268TIP3   OH267218   4.661   2.751  10.439 -0.3613  0.4681  0.4811
15268TIP3    H167219   4.739   2.745  10.494  0.0738  1.3219 -0.0137
15268TIP3    H267220   4.656   2.665  10.396 -1.2391 -0.5542  2.4890
15269TIP3   OH267221   4.143   1.498  14.541  0.2787 -0.1432  0.3717
15269TIP3    H167222   4.138   1.420  14.487  0.2962 -0.4724  0.8427
15269TIP3    H267223   4.066   1.494  14.598  0.7252 -0.2604  0.9819
15270TIP3   OH267224   4.996   1.978   2.470  0.1690  0.3870 -0.0676
15270TIP3    H167225   4.921   2.020   2.429  0.1839 -0.4075 -0.9376
15270TIP3    H267226   5.071   2.006   2.417  0.2958 -0.0112 -0.1010
15271TIP3   OH267227   2.020   6.707   1.675 -0.3779  0.1818 -0.1982
15271TIP3    H167228   2.109   6.741   1.668 -0.6380  0.8128 -0.5264
15271TIP3    H267229   1.998   6.679   1.586 -0.8792  1.0058 -0.3494
15272TIP3   OH267230   0.530   5.564   0.894  0.4412 -0.1683  1.0645
15272TIP3    H167231   0.618   5.575   0.931  0.3025  0.7327  1.1374
15272TIP3    H267232   0.473   5.616   0.950  0.1680  0.9014 -0.1734
15273TIP3   OH267233   0.467   3.402   3.474 -0.1320 -0.0406  0.3117
15273TIP3    H167234   0.404   3.423   3.405  0.7413 -0.4768 -0.6569
15273TIP3    H267235   0.428   3.327   3.520 -1.0998  0.7710  0.8294
15274TIP3   OH267236   0.505   1.437   4.770  0.2218  0.4309 -0.1467
15274TIP3    H167237   0.460   1.389   4.700  0.4912  0.3220 -0.2457
15274TIP3    H267238   0.598   1.425   4.752  0.6108 -3.9002  2.9486
15275TIP3   OH267239   0.409   5.127   1.098  0.1373  0.3369  0.2587
15275TIP3    H167240   0.342   5.067   1.066  1.7154 -1.3334 -0.1122
15275TIP3    H267241   0.388   5.140   1.191 -0.5593 -0.3157  0.2003
15276TIP3   OH267242   2.410   2.007  15.765  0.5048  0.7635 -0.7895
15276TIP3    H167243   2.482   2.024  15.826 -1.2297  0.5255  1.4612
15276TIP3    H267244   2.453   1.979  15.685  2.9123 -1.8042  1.1952
15277TIP3   OH267245   1.205   5.147   1.916 -0.3502 -0.1491  0.7267
15277TIP3    H167246   1.129   5.115   1.868 -0.1316  1.8280 -1.1071
15277TIP3    H267247   1.278   5.138   1.854  0.1818  1.3416  1.0882
15278TIP3   OH267248   1.269   0.944  14.771 -0.3035  0.1054 -0.1220
15278TIP3    H167249   1.223   0.867  14.804 -0.4692  0.8021  1.3350
15278TIP3    H267250   1.220   1.018  14.807 -0.7703  0.9357 -2.3259
15279TIP3   OH267251   4.403   4.544  12.245  0.3375 -0.0466 -0.7001
15279TIP3    H167252   4.399   4.467  12.188  0.2221  0.2596 -1.1127
15279TIP3    H267253   4.428   4.615  12.186  2.1863 -0.0677 -0.0256
15280TIP3   OH267254   2.890   4.322  15.343 -0.1883  0.7232  0.3005
15280TIP3    H167255   2.829   4.258  15.378  0.3541  0.1007  0.1111
15280TIP3    H267256   2.917   4.373  15.419 -1.5361  1.5346  0.2823
15281TIP3   OH267257   3.705   4.016  14.393 -0.1862 -0.9075  0.0522
15281TIP3    H167258   3.714   4.086  14.329 -1.1692 -1.5881 -0.8620
15281TIP3    H267259   3.638   3.958  14.356 -0.0796 -1.8226  1.2388
15282TIP3   OH267260   0.554   4.187   5.616 -0.4992  0.4379 -0.1512
15282TIP3    H167261   0.569   4.258   5.554  0.7132 -0.7667 -1.2848
15282TIP3    H267262   0.546   4.108   5.562 -0.6969 -0.4644  1.1413
15283TIP3   OH267263   3.252   6.281  17.200 -0.3886  0.2831 -0.2741
15283TIP3    H167264   3.182   6.230  17.243 -2.2737  1.6389 -1.5784
15283TIP3    H267265   3.259   6.360  17.253  0.1509  0.1715 -0.1783
15284TIP3   OH267266   6.138   1.889  14.926 -0.3552 -0.5198  1.1778
15284TIP3    H167267   6.098   1.803  14.940  2.1532 -1.8176  0.9796
15284TIP3    H267268   6.223   1.883  14.970  0.5223  1.3012 -0.1331
15285TIP3   OH267269   3.129   5.743  14.721  0.6195 -0.2792 -0.2801
15285TIP3    H167270   3.129   5.792  14.639 -2.5497 -1.4306 -1.1230
15285TIP3    H267271   3.060   5.786  14.773  1.3370 -0.7059  1.0724
15286TIP3   OH267272   6.469   3.746  16.127  0.3226 -0.0986 -0.1982
15286TIP3    H167273   6.552   3.739  16.174 -0.4095 -1.7485  0.9001
15286TIP3    H267274   6.420   3.813  16.174  0.3626 -0.3394  0.1846
15287TIP3   OH267275   2.639   1.947  11.590 -0.0402 -0.6878  0.3731
15287TIP3    H167276   2.708   1.991  11.540  0.8720  0.3847  2.4547
15287TIP3    H267277   2.680   1.864  11.618  0.3636 -0.1598  1.4043
15288TIP3   OH267278   6.545   0.578  11.924  0.1443 -0.2990 -0.1440
15288TIP3    H167279   6.543   0.673  11.940  0.3849  0.1892 -2.6603
15288TIP3    H267280   6.453   0.556  11.906 -0.2781 -1.0171  2.4330
15289TIP3   OH267281   0.838   4.455  11.937 -0.0450 -0.0131  0.1495
15289TIP3    H167282   0.856   4.413  11.853 -1.3371 -0.5225  0.1037
15289TIP3    H267283   0.782   4.530  11.916 -0.6782 -0.3527  0.5801
15290TIP3   OH267284   2.307   0.966   5.771  0.5499 -0.1667  0.0631
15290TIP3    H167285   2.309   1.032   5.840  0.0956 -0.4548  0.3478
15290TIP3    H267286   2.393   0.974   5.729 -0.0182  1.6380 -0.8720
15291TIP3   OH267287   2.475   5.455  12.297 -0.0688  0.2826 -0.2228
15291TIP3    H167288   2.499   5.511  12.224 -0.5699  1.6561  0.6366
15291TIP3    H267289   2.555   5.408  12.319  0.6968  1.5974 -0.1433
15292TIP3   OH267290   6.381   1.913   3.463  0.4009  0.0331 -0.0231
15292TIP3    H167291   6.395   1.820   3.443 -0.0302 -0.3224  1.2448
15292TIP3    H267292   6.433   1.959   3.398 -2.7747 -0.9461 -3.6758
15293TIP3   OH267293   3.189   0.963  13.947 -0.0250  0.7044 -0.1301
15293TIP3    H167294   3.219   1.006  14.027  0.0025  0.8309 -0.2091
15293TIP3    H267295   3.160   1.034  13.890 -2.9968  0.5029  0.9520
15294TIP3   OH267296   0.624   1.302   0.718 -0.1510  0.2469 -0.5045
15294TIP3    H167297   0.596   1.248   0.644 -3.5216 -1.0107  1.4572
15294TIP3    H267298   0.644   1.239   0.787  1.3543  1.4194  0.1798
15295TIP3   OH267299   4.035   0.868   6.788  0.5022 -0.0801  0.0993
15295TIP3    H167300   4.112   0.901   6.833 -0.3598  0.0385  1.5439
15295TIP3    H267301   4.008   0.941   6.731  0.3441  0.6148  1.0355
15296TIP3   OH267302   3.718   2.558   0.736  0.1046 -0.6886  0.4112
15296TIP3    H167303   3.635   2.515   0.755  0.4734 -1.3455  0.5811
15296TIP3    H267304   3.784   2.493   0.761  0.6441 -0.7350 -1.0876
15297TIP3   OH267305   6.039   5.757  16.161  0.3424  0.2376  0.4634
15297TIP3    H167306   5.999   5.817  16.224 -0.9653 -0.2585  0.1536
15297TIP3    H267307   6.076   5.814  16.093 -1.3762  0.7245 -0.1235
15298TIP3   OH267308   6.697   1.492  12.319 -0.5348 -0.0692  0.0452
15298TIP3    H167309   6.656   1.514  12.403  0.3531  0.7589  0.2806
15298TIP3    H267310   6.635   1.524  12.253 -0.4470  0.8580  0.3931
15299TIP3   OH267311   2.654   0.969  17.299  0.2244 -0.9352  0.0136
15299TIP3    H167312   2.661   1.004  17.210 -1.6619  0.2766  0.2965
15299TIP3    H267313   2.723   1.015  17.348 -0.3807  0.3177 -0.2678
15300TIP3   OH267314   4.175   4.895   6.331 -0.0458 -0.3653 -0.3428
15300TIP3    H167315   4.231   4.818   6.330  2.2013  1.1623 -2.4912
15300TIP3    H267316   4.087   4.861   6.312  0.6788 -2.4659 -0.1811
15301TIP3   OH267317   1.560   1.784   2.920 -0.3105  0.4791  0.0220
15301TIP3    H167318   1.484   1.740   2.883  0.4031 -0.3377 -0.5176
15301TIP3    H267319   1.628   1.773   2.854  0.2210  1.3893  0.3959
15302TIP3   OH267320   6.402   3.163  17.129 -0.3000 -0.1510  0.3673
15302TIP3    H167321   6.449   3.199  17.204 -1.7735  0.8690  0.8530
15302TIP3    H267322   6.322   3.125  17.167 -1.3208  0.8518 -0.7262
15303TIP3   OH267323   2.333   5.053   6.697 -0.5067 -0.1167 -0.2991
15303TIP3    H167324   2.363   5.142   6.678  0.0338 -0.5648 -1.7141
15303TIP3    H267325   2.241   5.063   6.723 -1.0888  0.7106 -2.4308
15304TIP3   OH267326   4.501   3.912  13.543  0.9390  0.4236 -0.3337
15304TIP3    H167327   4.423   3.872  13.505 -0.8783  3.1673  0.1664
15304TIP3    H267328   4.494   3.893  13.637  1.1102  0.3366 -0.3377
15305TIP3   OH267329   0.466   6.759   2.583 -0.4903 -0.1247 -0.3963
15305TIP3    H167330   0.376   6.773   2.611 -0.3575  0.9887 -0.4753
15305TIP3    H267331   0.516   6.827   2.628 -0.1519  1.2585 -2.7153
15306TIP3   OH267332   3.683   1.030  14.678 -0.3031  0.1873 -0.0458
15306TIP3    H167333   3.630   1.098  14.636 -0.8285 -0.8612 -1.1752
15306TIP3    H267334   3.689   0.961  14.611  0.2711 -0.8342  1.0294
15307TIP3   OH267335   6.360   5.996  12.243  0.4503 -0.6529 -0.4182
15307TIP3    H167336   6.423   5.971  12.176  0.3476 -2.1877  0.0157
15307TIP3    H267337   6.321   5.913  12.271  1.1590 -0.1801  2.1899
15308TIP3   OH267338   4.075   2.418   4.865 -0.1484  0.8310 -0.4684
15308TIP3    H167339   4.086   2.486   4.799 -0.0837  1.9804  0.6964
15308TIP3    H267340   3.996   2.443   4.913 -0.2893 -0.0756 -0.2012
15309TIP3   OH267341   5.529   2.450   5.577 -0.0797  0.4306 -0.1532
15309TIP3    H167342   5.580   2.436   5.658  0.3830  0.2944 -0.4628
15309TIP3    H267343   5.584   2.508   5.525  0.6807 -1.2278 -1.3109
15310TIP3   OH267344   5.311   6.400   3.391  0.3748  0.0902 -0.6461
15310TIP3    H167345   5.337   6.308   3.383 -1.1515 -0.2764 -1.9025
15310TIP3    H267346   5.217   6.397   3.406  0.7164  1.4128  2.4385
15311TIP3   OH267347   0.580   1.277  12.820 -0.0405 -0.1479  0.2655
15311TIP3    H167348   0.639   1.312  12.754 -1.7503  0.6218 -0.8875
15311TIP3    H267349   0.630   1.285  12.902  1.2547  0.9486 -0.5803
15312TIP3   OH267350   6.155   5.861  15.307 -0.4266 -0.1566 -1.0594
15312TIP3    H167351   6.249   5.842  15.298 -0.7107 -1.2559 -1.8970
15312TIP3    H267352   6.112   5.794  15.254 -1.7776 -0.8500  0.8209
15313TIP3   OH267353   3.747   2.965  13.690  0.2856  0.3353  0.4184
15313TIP3    H167354   3.784   3.045  13.729 -2.4638  1.8886  0.1027
15313TIP3    H267355   3.719   2.913  13.765  1.6232 -0.1438  0.6147
15314TIP3   OH267356   4.590   4.043   4.103 -0.0181  0.3303  0.1659
15314TIP3    H167357   4.663   4.080   4.153 -0.7062  0.6831  0.9285
15314TIP3    H267358   4.578   3.955   4.138 -0.0111  0.2973  0.0875
15315TIP3   OH267359   5.285   3.615  12.818  0.2776  0.4882 -0.3289
15315TIP3    H167360   5.294   3.643  12.909 -3.0287  0.4025  0.1694
15315TIP3    H267361   5.273   3.520  12.823  1.2609  0.3200 -0.9896
15316TIP3   OH267362   0.454   2.850   2.179  0.3780  0.1111 -0.2090
15316TIP3    H167363   0.379   2.865   2.237 -1.0548 -0.0421 -1.9291
15316TIP3    H267364   0.517   2.918   2.204 -0.3911  0.3810  1.1417
15317TIP3   OH267365   5.078   4.450   4.379 -0.0381  0.0148 -0.1449
15317TIP3    H167366   4.985   4.470   4.368 -1.1878 -2.9074  2.6815
15317TIP3    H267367   5.103   4.496   4.459  0.0918 -1.4974  0.7139
15318TIP3   OH267368   0.593   1.416  12.514  0.1268 -0.7937 -0.3169
15318TIP3    H167369   0.501   1.419  12.540  0.5175 -1.8390  1.3090
15318TIP3    H267370   0.593   1.372  12.429 -1.0518  1.3528 -1.5162
15319TIP3   OH267371   1.953   4.897   0.287  0.0453  0.2012 -0.2558
15319TIP3    H167372   1.867   4.905   0.246 -0.4854 -0.2480  0.7353
15319TIP3    H267373   2.001   4.834   0.232 -0.6119 -0.2998 -0.2653
15320TIP3   OH267374   1.224   2.705  15.562  0.0799  0.3099 -0.2729
15320TIP3    H167375   1.263   2.779  15.609  2.0379  0.9363 -2.6914
15320TIP3    H267376   1.129   2.718  15.572  0.3860  1.9435  1.0789
15321TIP3   OH267377   5.505   4.822  13.809  0.0978  0.4703  0.1809
15321TIP3    H167378   5.575   4.855  13.752  1.8558 -2.2453  0.5690
15321TIP3    H267379   5.454   4.763  13.753 -0.1526  0.2724  0.6109
15322TIP3   OH267380   3.585   3.664  14.276 -0.1715  0.0595 -1.0263
15322TIP3    H167381   3.660   3.679  14.218 -0.1617  3.5399 -0.3491
15322TIP3    H267382   3.624   3.637  14.359  0.3261  1.2497 -0.8574
15323TIP3   OH267383   4.450   3.095   0.888  0.0204 -0.0695  0.8884
15323TIP3    H167384   4.407   3.040   0.953 -1.4963 -1.1309 -0.8837
15323TIP3    H267385   4.385   3.161   0.865  0.0805 -0.4061 -0.3380
15324TIP3   OH267386   1.800   6.081  15.988  0.0018  0.2194 -0.5353
15324TIP3    H167387   1.822   5.988  15.986  0.8203  0.3802  0.1332
15324TIP3    H267388   1.707   6.084  16.010 -0.3859 -0.4598 -1.9568
15325TIP3   OH267389   2.114   3.776  14.016  0.1400  0.5112 -0.6604
15325TIP3    H167390   2.180   3.708  14.022 -1.1739 -0.7200  2.3131
15325TIP3    H267391   2.035   3.730  13.987 -0.6033  0.8224  0.7728
15326TIP3   OH267392   3.603   0.978   1.900  0.1273  0.2824 -0.7857
15326TIP3    H167393   3.629   0.891   1.872 -1.1025 -0.6276  0.7374
15326TIP3    H267394   3.654   0.995   1.979  1.2944  1.5205 -1.7531
15327TIP3   OH267395   5.179   1.085   3.902  0.1802  0.4308  0.7248
15327TIP3    H167396   5.112   1.063   3.968 -0.8846  0.6812 -0.2421
15327TIP3    H267397   5.176   1.013   3.840  0.6329  0.5752  0.5361
15328TIP3   OH267398   0.346   3.819  10.552  0.0762  0.2579 -0.4528
15328TIP3    H167399   0.306   3.882  10.612 -0.3706 -1.0837  0.7098
15328TIP3    H267400   0.434   3.854  10.536 -0.4636  1.6229 -0.5477
15329TIP3   OH267401   3.524   0.376   0.791 -0.2512  0.0828  0.0279
15329TIP3    H167402   3.597   0.416   0.837 -0.5209  1.0913 -0.3782
15329TIP3    H267403   3.561   0.347   0.707  0.5306 -2.8690  1.2534
15330TIP3   OH267404   5.430   4.319  17.055 -0.2842 -0.3637 -0.1149
15330TIP3    H167405   5.353   4.282  17.099 -0.9648  0.9251 -0.1536
15330TIP3    H267406   5.504   4.271  17.092 -0.9250 -0.1302  1.6016
15331TIP3   OH267407   0.272   4.178  16.913  0.2364  0.1244 -0.2987
15331TIP3    H167408   0.199   4.177  16.974 -0.0004  1.7561 -0.5116
15331TIP3    H267409   0.273   4.091  16.874  0.5514 -1.0753  2.1825
15332TIP3   OH267410   6.298   5.066  12.976  0.1927 -0.4440  0.2244
15332TIP3    H167411   6.333   5.074  12.887  0.9226 -1.5533  0.3929
15332TIP3    H267412   6.287   5.156  13.006  0.7537 -0.0660 -0.6739
15333TIP3   OH267413   1.154   5.977   2.000 -0.4022  0.2796  0.4095
15333TIP3    H167414   1.097   5.916   2.047 -0.7630  1.7372  1.9261
15333TIP3    H267415   1.136   5.959   1.907 -1.4243 -1.0235  0.8235
15334TIP3   OH267416   3.855   3.070  13.405 -0.0777 -0.6444  0.4320
15334TIP3    H167417   3.929   3.013  13.422  2.0973  2.0247  0.6101
15334TIP3    H267418   3.800   3.063  13.483  1.2425 -0.8953  1.3650
15335TIP3   OH267419   1.334   4.900  16.511  0.2951 -0.0661  0.4793
15335TIP3    H167420   1.424   4.868  16.507  0.3568  0.1674 -0.0733
15335TIP3    H267421   1.281   4.823  16.531  0.6784 -0.1004  1.3926
15336TIP3   OH267422   1.734   5.796  12.128 -0.5964  0.2681  0.1962
15336TIP3    H167423   1.813   5.745  12.143  0.2663  0.4776 -2.9210
15336TIP3    H267424   1.667   5.730  12.107 -0.5678  0.2233  0.2444
15337TIP3   OH267425   0.509   4.234  11.349 -0.6949  0.2564 -0.2152
15337TIP3    H167426   0.511   4.317  11.398  1.2626 -0.0821  0.3544
15337TIP3    H267427   0.597   4.198  11.358 -1.3529 -1.6685 -0.8758
15338TIP3   OH267428   1.316   1.135   1.561  0.4959  0.2694  0.2248
15338TIP3    H167429   1.335   1.044   1.540 -0.4121  0.1656 -0.1552
15338TIP3    H267430   1.361   1.185   1.493 -1.2521 -0.0128 -1.2179
15339TIP3   OH267431   5.395   1.799   1.390  0.6501 -0.4015 -0.1730
15339TIP3    H167432   5.443   1.732   1.340  1.2087 -0.8731  0.9689
15339TIP3    H267433   5.448   1.812   1.469  0.1828  0.8969 -0.0581
15340TIP3   OH267434   4.166   1.596   1.316  0.4794  0.1640  0.0077
15340TIP3    H167435   4.232   1.633   1.259  1.4974  1.3243  1.8359
15340TIP3    H267436   4.113   1.671   1.343  1.3416  0.0603  2.1979
15341TIP3   OH267437   0.571   4.691  15.057  0.2787 -0.2761  0.1901
15341TIP3    H167438   0.513   4.728  14.989 -0.3238 -1.1617  0.2095
15341TIP3    H267439   0.564   4.753  15.130 -1.2702 -0.7452  0.4869
15342TIP3   OH267440   5.054   4.895  17.202 -0.2742  0.1556  0.5052
15342TIP3    H167441   5.112   4.960  17.163 -1.8292  0.9904 -0.5174
15342TIP3    H267442   5.054   4.822  17.141 -0.9032  0.4931  0.0919
15343TIP3   OH267443   4.829   4.592   5.746  0.3719  0.0091 -0.0191
15343TIP3    H167444   4.849   4.641   5.826 -1.6959 -0.4454  0.8578
15343TIP3    H267445   4.861   4.648   5.675  1.3916  0.8768  1.0770
15344TIP3   OH267446   3.913   1.804   1.023 -0.4140 -0.3931  0.3651
15344TIP3    H167447   3.824   1.778   0.998 -1.1656  2.4020 -0.2621
15344TIP3    H267448   3.901   1.883   1.076  1.6686  1.3777 -1.5376
15345TIP3   OH267449   5.499   6.328  12.802 -0.4377  0.2202  0.5275
15345TIP3    H167450   5.517   6.356  12.891  1.4996  0.1659  0.2023
15345TIP3    H267451   5.404   6.319  12.798 -0.6483  1.2564  2.2565
15346TIP3   OH267452   4.224   3.498   3.597  0.0898 -0.3390 -0.2381
15346TIP3    H167453   4.130   3.491   3.615 -0.1080 -0.1200 -1.1298
15346TIP3    H267454   4.247   3.587   3.625  0.4131 -0.9288  1.5347
15347TIP3   OH267455   1.667   2.597  15.661  0.6702 -0.0576  0.2590
15347TIP3    H167456   1.608   2.529  15.694 -4.4340  3.3901 -0.5335
15347TIP3    H267457   1.670   2.661  15.732  1.7846  0.8076 -0.5480
15348TIP3   OH267458   2.750   4.462  17.111 -0.1152  0.5224 -0.3926
15348TIP3    H167459   2.803   4.541  17.121  0.1893  0.4377 -1.3010
15348TIP3    H267460   2.799   4.395  17.159  0.0585  0.6847 -0.3407
15349TIP3   OH267461   0.462   0.906  14.458  0.0777  0.1791 -0.4802
15349TIP3    H167462   0.389   0.915  14.398 -0.7243 -2.2997 -0.0002
15349TIP3    H267463   0.422   0.908  14.545  1.0109  1.9599 -0.0406
15350TIP3   OH267464   0.289   5.117   4.548 -0.0863  0.5056  0.1954
15350TIP3    H167465   0.332   5.185   4.497  0.6235  0.2472  0.4281
15350TIP3    H267466   0.295   5.039   4.493 -1.0716  0.6612 -0.1558
15351TIP3   OH267467   3.823   5.646   2.830 -0.2105  0.5836 -0.1256
15351TIP3    H167468   3.732   5.677   2.833 -0.2733  0.4219 -0.2814
15351TIP3    H267469   3.817   5.553   2.854 -0.1901  0.3675 -0.9219
15352TIP3   OH267470   3.309   4.531  11.541 -0.7755  0.1480 -0.0333
15352TIP3    H167471   3.310   4.614  11.494 -1.2601 -0.0828 -0.4585
15352TIP3    H267472   3.231   4.534  11.596 -1.3636 -0.4183 -0.7972
15353TIP3   OH267473   2.940   5.735  13.241 -0.5621 -0.0908 -0.2351
15353TIP3    H167474   2.865   5.791  13.220  0.1444  0.2372 -2.0216
15353TIP3    H267475   2.917   5.649  13.206 -0.9054 -0.5160  0.9696
15354TIP3   OH267476   1.920   4.165   0.676  0.1026  0.1975 -0.1215
15354TIP3    H167477   1.993   4.225   0.693 -0.0049 -0.6189  4.5073
15354TIP3    H267478   1.844   4.210   0.711 -0.6638 -1.0779 -0.0936
15355TIP3   OH267479   2.986   2.549  17.243  0.3842  0.3954  0.5094
15355TIP3    H167480   2.965   2.490  17.171  0.2004  0.1926  0.7234
15355TIP3    H267481   2.907   2.549  17.297 -0.0806  1.7943 -0.1209
15356TIP3   OH267482   5.526   5.031   6.690 -0.3240  0.1159 -0.2840
15356TIP3    H167483   5.458   4.979   6.647  1.4120 -0.8929 -2.0226
15356TIP3    H267484   5.568   4.970   6.750 -1.8464  1.1549  1.9848
15357TIP3   OH267485   5.384   6.435   1.084 -0.5164  0.3248 -0.1599
15357TIP3    H167486   5.437   6.376   1.031 -1.2611  1.7494 -2.6196
15357TIP3    H267487   5.435   6.516   1.088 -0.8083  0.4758  0.7042
15358TIP3   OH267488   3.306   4.561   3.870 -0.0243 -0.1189 -0.2235
15358TIP3    H167489   3.304   4.538   3.962 -2.2055 -0.4377 -0.2998
15358TIP3    H267490   3.235   4.510   3.830  0.9505 -0.1066 -2.1112
15359TIP3   OH267491   2.072   1.386   0.371  0.3985  0.1754  0.2183
15359TIP3    H167492   2.057   1.292   0.362 -0.2521  0.3061 -0.1332
15359TIP3    H267493   2.126   1.394   0.450  1.6292 -0.5887 -0.5054
15360TIP3   OH267494   5.791   0.270   4.106  0.2213 -0.3358  0.1814
15360TIP3    H167495   5.844   0.257   4.185  0.1795  1.1611  0.4856
15360TIP3    H267496   5.784   0.182   4.068  2.0096 -0.7596  0.6995
15361TIP3   OH267497   0.048   1.495  12.627 -0.0816  0.6258  0.6392
15361TIP3    H167498  -0.033   1.445  12.624 -0.4510  1.1423  1.5385
15361TIP3    H267499   0.079   1.486  12.718  2.0315 -1.3640 -0.1899
15362TIP3   OH267500   0.968   5.848   2.179 -0.4674 -0.2151  0.3972
15362TIP3    H167501   0.878   5.835   2.209 -1.1370 -0.2619 -1.5359
15362TIP3    H267502   1.019   5.785   2.231 -1.4180  0.1961  1.9223
15363TIP3   OH267503   4.980   1.854  12.299 -0.2308 -0.1164  0.5372
15363TIP3    H167504   4.924   1.909  12.355 -0.0337  1.7322 -0.9768
15363TIP3    H267505   5.060   1.841  12.350 -1.5529 -1.9550  2.3213
15364TIP3   OH267506   2.712   4.281  16.508  0.0172  0.2569  0.0167
15364TIP3    H167507   2.710   4.303  16.602 -1.2161 -1.4094  0.4267
15364TIP3    H267508   2.674   4.193  16.504  0.4203  0.1466 -2.0238
15365TIP3   OH267509   0.798   6.668  11.301 -0.2240 -0.4487  0.0842
15365TIP3    H167510   0.709   6.698  11.286  0.0079  0.0931 -0.2356
15365TIP3    H267511   0.853   6.729  11.252  0.2347 -1.7106 -1.0327
15366TIP3   OH267512   0.197   1.186  14.050  0.3848 -0.4681  0.0692
15366TIP3    H167513   0.250   1.240  13.991 -1.5165  0.9097 -0.4745
15366TIP3    H267514   0.167   1.246  14.118 -0.8878 -1.0750  0.0780
15367TIP3   OH267515   6.228   0.608  16.536  0.7419  0.0210 -0.0126
15367TIP3    H167516   6.213   0.514  16.532  1.9034 -0.2090  0.4653
15367TIP3    H267517   6.201   0.641  16.450  1.6248 -0.9665 -0.6868
15368TIP3   OH267518   3.454   6.685  13.006 -0.6269 -0.7329 -0.2237
15368TIP3    H167519   3.545   6.678  13.034 -0.1818 -2.8884 -1.9618
15368TIP3    H267520   3.419   6.758  13.057  2.2815  0.7267 -0.1307
15369TIP3   OH267521   0.919   4.921  15.467 -0.1594  0.1373  0.1276
15369TIP3    H167522   0.856   4.972  15.416  0.0533  0.4780  0.1990
15369TIP3    H267523   1.003   4.965  15.451 -0.2575  0.9329  1.6435
15370TIP3   OH267524   2.194   2.946   5.335 -1.1268  0.5088  0.3857
15370TIP3    H167525   2.236   2.892   5.268  0.8667 -1.0307  2.6944
15370TIP3    H267526   2.254   3.021   5.346 -1.0311  0.3499  0.9691
15371TIP3   OH267527   4.499   5.776  11.092  0.1250  0.0452  0.0561
15371TIP3    H167528   4.435   5.839  11.060 -0.9725 -0.8868  0.3361
15371TIP3    H267529   4.495   5.784  11.187  0.1711 -0.2550  0.0850
15372TIP3   OH267530   6.058   4.940   4.350 -0.1680  0.6247  0.4592
15372TIP3    H167531   5.984   4.993   4.319  1.6878  1.9595 -2.0343
15372TIP3    H267532   6.056   4.862   4.295  0.7757  1.1218 -0.3219
15373TIP3   OH267533   6.681   4.687   5.396 -0.1596  0.9008  0.1154
15373TIP3    H167534   6.749   4.751   5.418 -1.2712  1.8440  0.9447
15373TIP3    H267535   6.675   4.631   5.473  0.1090  0.4158 -0.2108
15374TIP3   OH267536   6.258   4.734  14.109 -0.4534 -0.1793 -0.3725
15374TIP3    H167537   6.256   4.640  14.095  0.5585 -0.2986  0.1868
15374TIP3    H267538   6.316   4.746  14.185 -1.9809  0.7494  0.7101
15375TIP3   OH267539   6.058   1.825  15.711  0.1858 -0.1698  0.0707
15375TIP3    H167540   5.988   1.835  15.646  0.1832  3.0716  0.4404
15375TIP3    H267541   6.139   1.836  15.660  0.2428  0.5954  0.3176
15376TIP3   OH267542   6.460   2.428  11.466 -0.2643  0.0096 -0.0841
15376TIP3    H167543   6.422   2.511  11.437  3.2370  2.1708  0.9125
15376TIP3    H267544   6.435   2.421  11.558  0.9789  1.0299  0.3595
15377TIP3   OH267545   6.256   1.916   5.686  0.4698 -0.1263 -0.3654
15377TIP3    H167546   6.259   1.820   5.683 -0.2796 -0.2724  1.6647
15377TIP3    H267547   6.224   1.936   5.774 -0.2024  1.9887 -1.0225
15378TIP3   OH267548   2.231   3.523  14.874  0.7316  0.2613  0.5380
15378TIP3    H167549   2.244   3.605  14.921 -0.4824  0.6239  0.2829
15378TIP3    H267550   2.137   3.506  14.881  0.8060 -0.5682 -0.2818
15379TIP3   OH267551   3.794   4.354  13.457  0.4900  0.3862 -0.4233
15379TIP3    H167552   3.715   4.407  13.466  0.3454  0.7181 -2.8077
15379TIP3    H267553   3.769   4.285  13.394  1.9512  0.2470 -0.8947
15380TIP3   OH267554   2.575   5.303  13.308  0.1348 -0.9572 -0.2672
15380TIP3    H167555   2.598   5.236  13.372  0.1099 -1.7378 -1.0659
15380TIP3    H267556   2.618   5.383  13.340 -0.9349 -1.0157  1.4185
15381TIP3   OH267557   3.049   5.302  12.292  0.6771 -0.1501  0.2140
15381TIP3    H167558   3.122   5.362  12.274 -1.2943  1.8833 -1.6663
15381TIP3    H267559   3.002   5.342  12.365 -0.9599  1.0232 -1.4018
15382TIP3   OH267560   1.370   5.547   3.634  0.3728 -0.3542 -0.5460
15382TIP3    H167561   1.392   5.639   3.628 -1.0373  0.1059  0.5887
15382TIP3    H267562   1.296   5.544   3.695  0.4281 -2.2378 -0.4998
15383TIP3   OH267563   2.622   1.578   2.419  0.1897  0.1580 -0.7036
15383TIP3    H167564   2.676   1.519   2.368 -0.1426 -1.2979  0.5348
15383TIP3    H267565   2.585   1.523   2.488 -2.1043  1.2747 -0.9238
15384TIP3   OH267566   0.278   4.224   5.645  0.2426  0.0115 -0.4616
15384TIP3    H167567   0.260   4.181   5.729 -0.3477 -0.4772 -0.8336
15384TIP3    H267568   0.373   4.215   5.634  0.2959 -0.1006  0.0532
15385TIP3   OH267569   2.284   5.722  13.971 -0.1532 -0.5536 -0.1998
15385TIP3    H167570   2.293   5.679  14.056 -0.0024 -0.4073 -0.1422
15385TIP3    H267571   2.220   5.669  13.924  1.4316 -1.9956 -0.8535
15386TIP3   OH267572   4.121   4.614  15.739  0.2353 -0.4317 -0.0232
15386TIP3    H167573   4.054   4.609  15.807  0.6467  0.3896  0.4541
15386TIP3    H267574   4.127   4.524  15.706  1.3008 -1.2881  2.2646
15387TIP3   OH267575   2.677   1.084   2.379 -0.3343  0.1664  0.1101
15387TIP3    H167576   2.643   1.013   2.434  1.4463 -1.0831 -0.3434
15387TIP3    H267577   2.648   1.061   2.290  0.9578 -0.4770 -0.1605
15388TIP3   OH267578   5.072   2.803  12.116 -0.1990  0.3194 -0.5058
15388TIP3    H167579   5.016   2.736  12.156  0.3778  0.9433  1.4913
15388TIP3    H267580   5.013   2.877  12.099 -0.2096  0.5911  0.6213
15389TIP3   OH267581   2.115   1.990   1.050  0.0829 -0.1781  0.3902
15389TIP3    H167582   2.069   1.957   0.972 -0.7086  0.2274  0.6754
15389TIP3    H267583   2.065   1.955   1.123  0.9017 -0.6607  0.7250
15390TIP3   OH267584   4.030   5.307  11.928  0.3226  0.0575  0.0274
15390TIP3    H167585   4.078   5.381  11.891  2.4331  0.2717  2.8566
15390TIP3    H267586   4.081   5.230  11.902 -0.4675 -0.2015 -0.8130
15391TIP3   OH267587   5.720   1.467  14.832 -0.1516  0.4820  0.9555
15391TIP3    H167588   5.727   1.556  14.796  0.2575 -0.1315 -0.5459
15391TIP3    H267589   5.643   1.430  14.788  0.7157 -0.4870  0.2127
15392TIP3   OH267590   3.764   0.221  14.699  0.3548  0.2599 -0.1510
15392TIP3    H167591   3.714   0.278  14.757  0.4097  1.5113 -1.2896
15392TIP3    H267592   3.798   0.279  14.631  0.7353 -1.0756 -1.1463
15393TIP3   OH267593   5.176   5.621   2.763 -0.1129  0.0928  0.5246
15393TIP3    H167594   5.264   5.654   2.746  0.5530 -1.0858  1.5133
15393TIP3    H267595   5.171   5.539   2.716 -0.2148 -0.4703  1.4854
15394TIP3   OH267596   4.364   2.450  15.204 -0.3933 -0.2298  0.0503
15394TIP3    H167597   4.341   2.359  15.185 -1.6544  0.0948 -0.0478
15394TIP3    H267598   4.309   2.501  15.144 -2.1669  0.7081  2.3318
15395TIP3   OH267599   0.314   5.577  12.702 -0.2950  0.1218  0.3474
15395TIP3    H167600   0.366   5.658  12.707 -0.1604 -0.0331  1.8611
15395TIP3    H267601   0.377   5.507  12.719 -0.5755 -0.2492 -0.1055
15396TIP3   OH267602   0.545   4.998  16.312  0.4148  0.0020 -0.3934
15396TIP3    H167603   0.523   4.905  16.305  0.0632 -0.0903  1.3956
15396TIP3    H267604   0.469   5.043  16.275 -0.9113 -0.4025  1.6895
15397TIP3   OH267605   1.052   3.452  16.244 -0.1163  0.0521 -0.3726
15397TIP3    H167606   1.089   3.540  16.250  1.3158 -0.6090  1.3822
15397TIP3    H267607   1.122   3.398  16.208  0.3736 -1.0093  1.9682
15398TIP3   OH267608   2.717   2.627  11.989 -0.9644  0.0503 -0.0110
15398TIP3    H167609   2.687   2.676  11.913 -0.9462 -0.6472 -0.4754
15398TIP3    H267610   2.657   2.553  11.995 -0.3349 -0.4633  0.0329
15399TIP3   OH267611   2.037   6.514   6.084 -0.7906 -0.1754 -0.3775
15399TIP3    H167612   1.998   6.492   6.169  2.1277 -1.8433  0.6697
15399TIP3    H267613   2.091   6.591   6.102  0.6933 -1.1729 -0.3750
15400TIP3   OH267614   2.301   6.466   0.045 -0.8269 -0.2277  0.5687
15400TIP3    H167615   2.369   6.431   0.102 -0.3029 -0.3763 -0.1398
15400TIP3    H267616   2.311   6.418  -0.037 -0.4715  1.1488 -0.2332
15401TIP3   OH267617   6.444   1.852  11.902 -0.0298  0.2385 -0.2275
15401TIP3    H167618   6.458   1.824  11.812  1.5926 -0.5278  0.2145
15401TIP3    H267619   6.523   1.823  11.948 -0.3621  1.5124  1.2295
15402TIP3   OH267620   6.554   1.000   5.316  0.1254 -0.3096  0.0511
15402TIP3    H167621   6.533   1.071   5.255  0.9263  0.1491  0.3028
15402TIP3    H267622   6.617   1.038   5.377  0.6179 -1.2553  0.1493
15403TIP3   OH267623   3.330   0.034   4.062  0.2865 -0.0277  0.3442
15403TIP3    H167624   3.329  -0.056   4.029  3.2402 -0.5269  1.3205
15403TIP3    H267625   3.307   0.026   4.154 -1.0766  0.4804  0.0745
15404TIP3   OH267626   3.404   2.286   2.227 -0.2303  0.0864 -0.6168
15404TIP3    H167627   3.351   2.363   2.251  1.2456  0.7549  0.7278
15404TIP3    H267628   3.356   2.244   2.156 -1.9835  1.2635 -0.1771
15405TIP3   OH267629   1.984   3.518   3.995  0.1807  0.2681  0.2261
15405TIP3    H167630   1.895   3.552   3.997  0.0527 -0.0904  1.0502
15405TIP3    H267631   2.011   3.517   4.086 -0.0321 -2.3122  0.3475
15406TIP3   OH267632   0.453   0.300  14.890  0.0191 -0.7068  0.5468
15406TIP3    H167633   0.454   0.280  14.797  0.2215 -0.0244  0.3964
15406TIP3    H267634   0.378   0.358  14.901  1.3510  1.1413  0.3750
15407TIP3   OH267635   2.912   0.514  15.950 -0.2394 -0.3948  0.2835
15407TIP3    H167636   2.856   0.443  15.919  0.1685 -1.0458  0.9964
15407TIP3    H267637   2.996   0.472  15.968  0.3990  0.5071 -0.4754
15408TIP3   OH267638   4.630   6.356   4.034 -0.2566 -0.0789 -0.2226
15408TIP3    H167639   4.611   6.430   3.976  2.2853  0.0991 -0.9384
15408TIP3    H267640   4.670   6.396   4.111 -0.3007 -0.6126  0.0806
15409TIP3   OH267641   1.899   0.514   5.442  0.5189  0.1688  0.6388
15409TIP3    H167642   1.824   0.464   5.475 -0.0495  0.9982  0.6514
15409TIP3    H267643   1.924   0.470   5.361 -0.3333  0.1980  0.3480
15410TIP3   OH267644   2.372   0.319   5.994 -0.5382 -0.0336 -0.6191
15410TIP3    H167645   2.464   0.314   6.019 -0.3424  2.4441 -0.5468
15410TIP3    H267646   2.324   0.306   6.077 -0.1430  0.7734 -0.2475
15411TIP3   OH267647   0.911   5.810   5.791  0.2875 -0.5611  0.4562
15411TIP3    H167648   0.966   5.805   5.869 -1.1461 -0.7853  1.5085
15411TIP3    H267649   0.866   5.894   5.798 -0.1760 -0.7726  0.1063
15412TIP3   OH267650   4.036   4.491  13.296 -0.1857  0.0397  0.1355
15412TIP3    H167651   4.034   4.587  13.295 -0.6468  0.0495 -1.7311
15412TIP3    H267652   3.987   4.467  13.374  0.6659  1.3148  1.1027
15413TIP3   OH267653   3.187   5.049  12.292  0.0934  0.0108  0.6187
15413TIP3    H167654   3.129   5.125  12.285 -0.2292 -0.3584 -2.1525
15413TIP3    H267655   3.273   5.085  12.312  0.0504  1.2073 -1.1354
15414TIP3   OH267656   1.022   1.262   2.258 -0.5399 -0.4982 -0.2361
15414TIP3    H167657   1.071   1.299   2.331 -1.3680 -0.3081  0.2422
15414TIP3    H267658   1.087   1.249   2.190 -0.0955  1.3490 -0.2383
15415TIP3   OH267659   2.114   5.330   6.457 -0.0913  0.5776 -0.0613
15415TIP3    H167660   2.100   5.295   6.545  0.7189  1.1391  0.3067
15415TIP3    H267661   2.202   5.299   6.433  0.2832  1.6014 -0.0738
15416TIP3   OH267662   0.070   3.934  14.341  0.0943 -0.1260 -0.0229
15416TIP3    H167663  -0.016   3.926  14.300 -0.3863 -1.2782  1.1336
15416TIP3    H267664   0.052   3.968  14.429  1.0794  2.0710 -0.6075
15417TIP3   OH267665   3.029   5.620   4.054  0.2276  0.1530 -0.3737
15417TIP3    H167666   3.027   5.579   4.140 -0.2204 -0.3808 -0.6351
15417TIP3    H267667   3.119   5.608   4.023 -0.0195 -1.0665 -0.6510
15418TIP3   OH267668   0.216   6.374  17.072 -0.0186  0.3621  0.1220
15418TIP3    H167669   0.251   6.412  16.992  3.2044  1.0239  1.7051
15418TIP3    H267670   0.274   6.406  17.141 -2.3612 -0.5731  2.6899
15419TIP3   OH267671   3.274   4.131  13.952  0.2155 -0.1473  0.4613
15419TIP3    H167672   3.272   4.141  14.047 -0.9924 -1.2640  0.5823
15419TIP3    H267673   3.365   4.110  13.932  0.0551 -2.3964  1.6906
15420TIP3   OH267674   4.067   2.826   3.635 -0.4556  0.5984 -0.3780
15420TIP3    H167675   4.076   2.813   3.540  0.3115  0.4676 -0.2943
15420TIP3    H267676   4.121   2.757   3.674 -1.1477  0.3538  0.1666
15421TIP3   OH267677   1.907   6.624  13.465 -0.3210 -0.1652  0.4114
15421TIP3    H167678   1.961   6.703  13.460 -0.5976 -0.0312 -0.9398
15421TIP3    H267679   1.873   6.624  13.554  1.8327 -0.2153  1.2804
15422TIP3   OH267680   5.675   0.645  11.734 -0.2199 -0.2888 -0.2974
15422TIP3    H167681   5.637   0.582  11.795 -2.6865 -0.4579 -1.8659
15422TIP3    H267682   5.700   0.593  11.658 -0.9077  0.3861 -1.0141
15423TIP3   OH267683   4.111   6.092  12.113 -0.0712  0.0527  0.3686
15423TIP3    H167684   4.051   6.018  12.118  0.4381 -0.3821  0.2000
15423TIP3    H267685   4.055   6.168  12.098 -0.4323 -0.6230 -2.1652
15424TIP3   OH267686   4.627   1.421  12.276 -0.3410  0.2753 -0.5870
15424TIP3    H167687   4.633   1.331  12.306 -0.8349  0.1796 -0.7605
15424TIP3    H267688   4.718   1.451  12.269 -0.1602 -0.3886 -1.0828
15425TIP3   OH267689   5.036   4.793   1.795  0.2441  0.1901 -0.0107
15425TIP3    H167690   4.979   4.780   1.871  0.7472 -0.3139  0.2872
15425TIP3    H267691   5.074   4.706   1.779  1.4316  0.6556  0.1990
15426TIP3   OH267692   1.071   6.626  13.325 -0.2583 -0.7110  0.0168
15426TIP3    H167693   1.156   6.652  13.359  0.6778 -1.4963 -1.5844
15426TIP3    H267694   1.083   6.534  13.299 -1.3654 -0.6306 -0.8571
15427TIP3   OH267695   6.184   1.388   2.981  0.1835  0.2533  0.2663
15427TIP3    H167696   6.106   1.334   2.966  0.6856 -0.0353 -1.4717
15427TIP3    H267697   6.255   1.324   2.995  0.6216  0.4605 -0.9445
15428TIP3   OH267698   4.984   4.455  15.808 -0.0021  0.0297 -0.0224
15428TIP3    H167699   5.047   4.405  15.860 -0.4758  0.2924  0.8264
15428TIP3    H267700   5.004   4.546  15.828  2.6953  0.4493 -3.6668
15429TIP3   OH267701   3.197   3.069  14.516 -0.0980  0.1070 -0.0566
15429TIP3    H167702   3.237   3.152  14.543  0.0470  0.2718 -0.7522
15429TIP3    H267703   3.110   3.093  14.484 -0.8099 -0.2615  1.5099
15430TIP3   OH267704   0.977   6.454   1.613 -0.1169 -0.0570 -0.2335
15430TIP3    H167705   0.972   6.360   1.593 -3.4052  0.3006 -1.6245
15430TIP3    H267706   0.956   6.459   1.706  3.1841 -0.8018  0.6971
15431TIP3   OH267707   4.297   2.473   3.720 -0.2137 -0.0733 -0.0071
15431TIP3    H167708   4.318   2.563   3.697  2.6595  0.1598  2.8688
15431TIP3    H267709   4.318   2.422   3.642  0.1952  1.5156 -0.9641
15432TIP3   OH267710   0.864   2.952  14.718  0.4592  0.4533 -0.0616
15432TIP3    H167711   0.791   2.914  14.668  1.1160  0.0467 -0.7405
15432TIP3    H267712   0.897   2.879  14.770  1.7553  0.0127 -1.4039
15433TIP3   OH267713   1.570   3.443   1.065  0.1639 -0.2716 -0.0716
15433TIP3    H167714   1.597   3.379   1.131 -1.3890  0.9299  1.8575
15433TIP3    H267715   1.648   3.497   1.050  0.9329 -1.4204 -0.2948
15434TIP3   OH267716   4.279   0.205  11.140 -0.0287 -0.4257  0.2378
15434TIP3    H167717   4.365   0.208  11.182  0.3752 -2.2975 -0.3585
15434TIP3    H267718   4.294   0.159  11.058 -1.5079 -0.2244 -0.1828
15435TIP3   OH267719   6.133   1.639  12.195  0.1485 -0.0660 -0.2000
15435TIP3    H167720   6.111   1.603  12.281 -0.1660 -1.4467 -0.8221
15435TIP3    H267721   6.067   1.706  12.179 -0.8134 -0.9473 -0.0531
15436TIP3   OH267722   0.306   6.220  14.773  0.1334 -0.1178 -0.0618
15436TIP3    H167723   0.299   6.243  14.865  1.1832 -0.2734  0.0623
15436TIP3    H267724   0.355   6.291  14.733 -0.6846  0.1614 -0.5957
15437TIP3   OH267725   5.975   0.156  12.755 -0.3540 -0.0278  0.0190
15437TIP3    H167726   5.965   0.062  12.741  1.9829 -0.1362 -1.5319
15437TIP3    H267727   6.043   0.162  12.823  1.4663  0.4458 -1.7495
15438TIP3   OH267728   4.360   4.112  15.781  0.6222  0.0120 -0.1613
15438TIP3    H167729   4.304   4.058  15.726  1.5805 -0.6316 -0.5264
15438TIP3    H267730   4.384   4.056  15.855  0.6735  0.3224  0.0626
15439TIP3   OH267731   3.375   5.481   6.045 -0.4160  0.2022  0.0960
15439TIP3    H167732   3.459   5.484   6.001 -0.1776 -2.3161  0.2541
15439TIP3    H267733   3.394   5.445   6.132 -1.7963 -2.0631 -0.4527
15440TIP3   OH267734   0.918   4.044  16.635  0.5508  0.0071 -0.1476
15440TIP3    H167735   0.933   3.952  16.614  0.8450  0.0463 -0.1224
15440TIP3    H267736   0.922   4.047  16.731 -1.6619 -0.3186 -0.0090
15441TIP3   OH267737   3.069   6.122  11.873  0.5665  0.0442  0.4183
15441TIP3    H167738   3.004   6.081  11.816  0.7021  0.1417  0.1947
15441TIP3    H267739   3.024   6.133  11.957  0.3113  0.0592  0.2791
15442TIP3   OH267740   6.727   2.289  16.965 -0.0486  0.2039 -0.2530
15442TIP3    H167741   6.721   2.195  16.982  0.2591  0.3901  0.9662
15442TIP3    H267742   6.776   2.295  16.883  0.1096 -0.6895 -0.2345
15443TIP3   OH267743   1.510   4.117   5.964  0.2684 -0.8771  0.3770
15443TIP3    H167744   1.507   4.201   6.010  0.9663 -1.6603  1.9009
15443TIP3    H267745   1.438   4.067   6.001  0.7588 -1.4745  0.5365
15444TIP3   OH267746   1.715   4.677  14.247  0.6697 -0.1504 -0.1844
15444TIP3    H167747   1.627   4.714  14.247  0.7672  0.0852 -0.0662
15444TIP3    H267748   1.769   4.743  14.204  0.8391 -0.1718 -0.0063
15445TIP3   OH267749   2.520   1.634   4.847 -0.2690  0.2102 -0.2026
15445TIP3    H167750   2.605   1.678   4.857 -0.4349  0.6161 -0.5689
15445TIP3    H267751   2.533   1.549   4.889  0.2491  0.3585 -0.0468
15446TIP3   OH267752   1.171   1.694   5.870 -0.0527 -0.5569 -0.4792
15446TIP3    H167753   1.195   1.699   5.963  0.2739  0.1598 -0.5906
15446TIP3    H267754   1.252   1.668   5.826 -0.0818 -0.4257 -0.6099
15447TIP3   OH267755   0.202   1.319  17.279  0.1907  0.1670  0.7028
15447TIP3    H167756   0.242   1.232  17.277  0.6086  0.2025  3.7439
15447TIP3    H267757   0.113   1.303  17.310 -0.2378  0.7160 -0.1977
15448TIP3   OH267758   1.994   0.418   4.864  0.5196 -0.1864 -0.1575
15448TIP3    H167759   2.018   0.489   4.923  0.1503 -0.2446  0.0638
15448TIP3    H267760   1.913   0.383   4.901  0.2964 -0.2311 -0.6928
15449TIP3   OH267761   2.352   3.960   0.169 -0.1008  0.6413  0.1422
15449TIP3    H167762   2.279   3.905   0.140  1.2506 -1.6795  0.8804
15449TIP3    H267763   2.419   3.949   0.102  0.4805  0.7678  0.6877
15450TIP3   OH267764   4.555   1.041   2.682  0.0536 -0.7074 -0.4667
15450TIP3    H167765   4.643   1.042   2.720  0.3756  1.2820 -1.1617
15450TIP3    H267766   4.569   1.023   2.589 -0.2137  0.0964 -0.6703
15451TIP3   OH267767   2.489   5.565   2.507 -0.0529 -0.0093 -0.7377
15451TIP3    H167768   2.416   5.503   2.516 -0.3252  0.2203 -1.3725
15451TIP3    H267769   2.499   5.578   2.413  1.5482 -0.9023 -0.7324
15452TIP3   OH267770   5.558   4.383   3.609 -0.0361  0.2609  0.2334
15452TIP3    H167771   5.495   4.402   3.678  0.0565  0.0020  0.3909
15452TIP3    H267772   5.590   4.469   3.582 -0.1303  0.3686  0.4592
15453TIP3   OH267773   3.162   0.045   7.026  0.5212  0.2883 -0.0016
15453TIP3    H167774   3.191  -0.046   7.031 -1.6321 -0.5325 -1.0932
15453TIP3    H267775   3.201   0.079   6.946 -0.2652 -0.3224 -0.6546
15454TIP3   OH267776   0.287   2.277   1.988  0.5422 -0.1366 -0.2089
15454TIP3    H167777   0.353   2.333   1.947  0.0328 -0.1960 -1.1485
15454TIP3    H267778   0.268   2.210   1.922 -0.7590  0.1341 -0.1519
15455TIP3   OH267779   6.019   0.068  12.326 -0.0100 -0.3521 -0.0023
15455TIP3    H167780   5.967   0.138  12.365  1.9534  0.1790  1.8348
15455TIP3    H267781   6.003   0.076  12.232 -2.1240  0.6277  0.3885
15456TIP3   OH267782   3.184   0.657   4.259  0.1296 -0.2945 -0.0327
15456TIP3    H167783   3.174   0.595   4.187  2.6176 -2.1870  1.1003
15456TIP3    H267784   3.103   0.648   4.309  0.2724 -2.4807 -0.0896
15457TIP3   OH267785   4.254   1.139   4.619  0.0603 -0.6088 -0.1687
15457TIP3    H167786   4.227   1.058   4.660  0.2728 -0.8143 -0.4316
15457TIP3    H267787   4.346   1.150   4.643  0.2423 -0.8318 -0.7444
15458TIP3   OH267788   0.813   4.407   6.231  0.2870 -0.7954  0.0613
15458TIP3    H167789   0.897   4.422   6.276  0.9830 -0.3315 -1.3391
15458TIP3    H267790   0.835   4.353   6.156 -0.3748  0.6451 -1.2330
15459TIP3   OH267791   3.283   3.510   4.612 -0.0808  0.1449  0.0339
15459TIP3    H167792   3.245   3.593   4.585  0.2008  1.1954  2.6389
15459TIP3    H267793   3.208   3.454   4.630 -0.3379  0.6988  0.7281
15460TIP3   OH267794   2.706   5.094   4.681 -0.5888 -0.6514  0.5587
15460TIP3    H167795   2.644   5.021   4.679 -1.2746 -0.0774  0.0166
15460TIP3    H267796   2.746   5.094   4.594 -0.6251 -0.3642  0.5402
15461TIP3   OH267797   2.835   4.707  16.992 -0.4925 -0.1447  0.1573
15461TIP3    H167798   2.898   4.766  17.033  0.0806 -1.2944  1.0043
15461TIP3    H267799   2.750   4.738  17.021 -0.1590 -0.1565  1.1961
15462TIP3   OH267800   4.298   2.995   1.540 -0.1606  0.1561  0.5374
15462TIP3    H167801   4.353   2.982   1.618  1.0695  0.2936 -0.2759
15462TIP3    H267802   4.217   3.033   1.574  0.8917  1.5657  1.6137
15463TIP3   OH267803   4.439   0.098  14.722  0.3234 -0.9378 -0.1621
15463TIP3    H167804   4.391   0.055  14.793 -0.3062 -2.0915 -1.2455
15463TIP3    H267805   4.526   0.058  14.724  1.3879  1.2498  1.8888
15464TIP3   OH267806   3.558   3.525   3.850  0.0240 -0.3406  0.3959
15464TIP3    H167807   3.488   3.561   3.903  1.3729 -1.0406  2.8225
15464TIP3    H267808   3.532   3.434   3.832 -0.8721  0.1741 -1.0258
15465TIP3   OH267809   5.354   2.051  10.786 -0.2250 -0.2217  0.2147
15465TIP3    H167810   5.261   2.054  10.808  0.1918  3.6561  2.2702
15465TIP3    H267811   5.387   1.974  10.833 -1.8186  0.3584  2.4294
15466TIP3   OH267812   3.015   5.870   3.357 -0.0123  0.8682 -0.0259
15466TIP3    H167813   3.054   5.895   3.441  0.1558  0.1111  0.1287
15466TIP3    H267814   3.004   5.775   3.363  0.9429  0.6620 -1.2596
15467TIP3   OH267815   6.716   2.372   3.039  0.0234 -0.6913 -0.8158
15467TIP3    H167816   6.807   2.348   3.057 -0.0406 -0.3327  0.0287
15467TIP3    H267817   6.702   2.346   2.948  1.0989 -0.3496 -1.0911
15468TIP3   OH267818   3.433   1.421   4.030  0.1029  0.7330 -0.6464
15468TIP3    H167819   3.405   1.346   4.083  1.6276  1.6898  1.6407
15468TIP3    H267820   3.500   1.385   3.972 -0.5770 -0.0442 -0.9754
15469TIP3   OH267821   0.026   3.806  13.518 -0.3759  0.5660  0.7280
15469TIP3    H167822   0.031   3.744  13.445  1.2913  0.7823  0.6230
15469TIP3    H267823   0.117   3.821  13.544 -0.9299  0.3807  2.9874
15470TIP3   OH267824   4.614   5.557   4.221  0.1581 -0.7899 -0.6129
15470TIP3    H167825   4.531   5.595   4.249  1.2415  0.6421  0.8186
15470TIP3    H267826   4.673   5.571   4.295  1.1332 -3.7481 -0.7053
15471TIP3   OH267827   3.109   5.999   3.569 -0.0102  0.2836  0.3385
15471TIP3    H167828   3.059   6.004   3.651  0.6945 -0.7616  0.8484
15471TIP3    H267829   3.098   6.086   3.530 -1.1242  0.5068  1.0797
15472TIP3   OH267830   4.650   0.418   3.948 -0.3124  0.4476  0.0608
15472TIP3    H167831   4.626   0.469   3.871  0.3671  0.8769  0.1271
15472TIP3    H267832   4.678   0.333   3.914 -0.5508  0.4433 -0.1226
15473TIP3   OH267833   5.510   5.491   0.821 -0.2667  0.5830 -0.2851
15473TIP3    H167834   5.523   5.579   0.785  2.2365  0.7230  0.7915
15473TIP3    H267835   5.589   5.443   0.796  0.8893  0.2237  3.4801
15474TIP3   OH267836   5.198   1.756  11.856  0.0018 -0.3617  0.2509
15474TIP3    H167837   5.269   1.737  11.917  1.1022  2.0939 -0.1441
15474TIP3    H267838   5.131   1.799  11.910 -0.2326 -0.6674  0.2086
15475TIP3   OH267839   2.284   1.752  14.063 -0.4073 -0.7326 -0.0321
15475TIP3    H167840   2.255   1.800  13.986  0.1656  1.2337  0.9296
15475TIP3    H267841   2.301   1.819  14.129  3.3997 -1.9239  0.4422
15476TIP3   OH267842   3.758   1.917  12.616  0.0919  0.1002 -0.1931
15476TIP3    H167843   3.730   1.891  12.704 -1.4322 -0.7138 -0.8644
15476TIP3    H267844   3.813   1.845  12.586  0.0728  0.0631 -0.1390
15477TIP3   OH267845   3.761   3.669  11.012 -0.7009 -0.3230 -0.0294
15477TIP3    H167846   3.708   3.694  10.937  0.2436 -0.4189 -0.7342
15477TIP3    H267847   3.842   3.634  10.975 -0.3040 -0.5679  1.0223
15478TIP3   OH267848   6.272   6.241  13.515 -0.3867 -0.1168  0.8479
15478TIP3    H167849   6.334   6.287  13.459 -0.6186 -0.9872 -0.1576
15478TIP3    H267850   6.327   6.203  13.585  1.1312 -4.6138 -2.3271
15479TIP3   OH267851   0.530   0.864  10.884  0.0696  0.4181  0.0609
15479TIP3    H167852   0.611   0.876  10.834  0.8475 -0.8569  0.9573
15479TIP3    H267853   0.509   0.952  10.917  1.4908  0.6646  0.3884
15480TIP3   OH267854   2.837   5.845  12.932  0.2510  0.4562  0.2404
15480TIP3    H167855   2.867   5.756  12.916  1.7115  0.7311  1.2276
15480TIP3    H267856   2.871   5.895  12.858 -0.0066  0.3151  0.0241
15481TIP3   OH267857   5.929   1.483  12.020  0.4778  0.1113 -0.1788
15481TIP3    H167858   6.013   1.528  12.007  0.7651 -0.1578  0.6878
15481TIP3    H267859   5.914   1.438  11.937  1.2745  0.0261 -0.2926
15482TIP3   OH267860   4.478   0.056  11.960  0.9695  0.1423 -0.1561
15482TIP3    H167861   4.466   0.030  12.051 -0.3274  1.6732  0.1533
15482TIP3    H267862   4.505   0.147  11.964 -0.1129  0.5480 -1.3143
15483TIP3   OH267863   1.403   0.032   5.140 -0.0351  0.4780  0.1683
15483TIP3    H167864   1.367  -0.038   5.194 -1.1909  0.6713 -0.3207
15483TIP3    H267865   1.341   0.041   5.067  1.8793 -0.3380 -1.6678
15484TIP3   OH267866   3.631   1.109  15.747 -0.4158  0.1880  0.5578
15484TIP3    H167867   3.630   1.015  15.729 -0.8725  0.4026 -0.5545
15484TIP3    H267868   3.603   1.150  15.666  0.8881  1.3520  0.6642
15485TIP3   OH267869   3.536   1.189  14.490  0.1716 -0.0589 -0.1564
15485TIP3    H167870   3.564   1.144  14.410 -4.0292 -0.0791 -1.8540
15485TIP3    H267871   3.458   1.142  14.518 -1.2536  2.8347  1.1729
15486TIP3   OH267872   3.980   3.739  16.886 -0.0963 -0.1232 -0.0334
15486TIP3    H167873   4.055   3.682  16.905  0.5433  0.4822 -0.6485
15486TIP3    H267874   3.995   3.767  16.796 -0.0468  1.5299  0.4687
15487TIP3   OH267875   2.377   6.141  13.405  0.6094  0.0907  0.0311
15487TIP3    H167876   2.284   6.162  13.405  0.0354 -2.1867  0.2743
15487TIP3    H267877   2.400   6.133  13.497  1.1240  0.9066 -0.0212
15488TIP3   OH267878   2.329   4.855  15.746 -0.3292 -0.3526  0.3857
15488TIP3    H167879   2.382   4.914  15.799  1.4398 -1.4451 -0.0829
15488TIP3    H267880   2.246   4.849  15.792 -1.2877  3.7479 -0.3745
15489TIP3   OH267881   0.139   3.271  15.673 -0.0581  0.1481  0.0572
15489TIP3    H167882   0.103   3.359  15.664 -0.9384 -0.3133 -1.3221
15489TIP3    H267883   0.100   3.237  15.754  0.5264  1.1096  0.7575
15490TIP3   OH267884   1.333   0.526   4.775  0.2762  0.1374  0.3333
15490TIP3    H167885   1.267   0.514   4.843 -0.0671 -0.2816 -0.0752
15490TIP3    H267886   1.365   0.616   4.788 -0.4707  0.3903  0.4418
15491TIP3   OH267887   1.311   4.018   4.430 -0.6334  0.3388 -0.4639
15491TIP3    H167888   1.295   3.933   4.471 -0.8035  0.5009 -0.1951
15491TIP3    H267889   1.401   4.039   4.454 -0.8873  0.6541  0.2267
15492TIP3   OH267890   4.468   3.513  16.787  0.2856  0.1912 -0.1337
15492TIP3    H167891   4.460   3.476  16.699  1.4454 -0.4845  0.0218
15492TIP3    H267892   4.480   3.437  16.844 -2.8147  0.4157  0.9792
15493TIP3   OH267893   4.545   2.066  13.819 -0.4564 -0.2233  0.3289
15493TIP3    H167894   4.620   2.110  13.779 -1.4495  1.8550  0.6285
15493TIP3    H267895   4.564   2.068  13.913 -0.7349  0.0142  0.3800
15494TIP3   OH267896   4.080   1.821  17.261 -0.0556 -0.4129  0.6625
15494TIP3    H167897   4.151   1.781  17.211  0.1461  0.8706 -0.1276
15494TIP3    H267898   4.000   1.783  17.226  0.1512 -0.4961  0.2799
15495TIP3   OH267899   2.551   3.975  12.640  0.0090  0.0427  0.4309
15495TIP3    H167900   2.558   3.956  12.733  0.5362 -0.2974  0.3283
15495TIP3    H267901   2.551   3.888  12.598 -2.4887  0.0491  0.2314
15496TIP3   OH267902   2.080   5.034   0.634 -0.4546 -0.3086  0.3187
15496TIP3    H167903   1.986   5.031   0.648 -0.5749 -2.5879 -0.6324
15496TIP3    H267904   2.118   5.018   0.720 -0.8249  2.3368  1.0699
15497TIP3   OH267905   0.369   3.619  11.684  0.0625  0.5507  0.8209
15497TIP3    H167906   0.431   3.638  11.613  0.4754 -1.2713  0.6465
15497TIP3    H267907   0.286   3.605  11.639 -0.2924  2.0073  0.9686
15498TIP3   OH267908   1.386   0.941  17.213  0.0394  0.3128 -0.2143
15498TIP3    H167909   1.364   0.848  17.216 -1.2410  0.6257  1.4875
15498TIP3    H267910   1.451   0.948  17.142  0.8351 -1.9840  0.1999
15499TIP3   OH267911   4.565   6.224   2.028  0.6243 -0.0615  0.2716
15499TIP3    H167912   4.619   6.210   1.949  1.5785  2.4809  0.4040
15499TIP3    H267913   4.628   6.247   2.096 -0.3749 -0.4043  1.3386
15500TIP3   OH267914   2.835   6.222   3.171  0.1360 -0.3028 -0.4309
15500TIP3    H167915   2.742   6.218   3.194  0.3844  0.8915  0.9019
15500TIP3    H267916   2.871   6.141   3.207  0.0059  0.2803  1.0756
15501TIP3   OH267917   5.584   4.612   5.968  0.6835 -0.3618 -0.0877
15501TIP3    H167918   5.665   4.612   6.019 -1.2473  1.7102  3.4081
15501TIP3    H267919   5.534   4.538   6.002  1.1273 -1.8938 -2.5236
15502TIP3   OH267920   0.862   2.747  12.656 -0.4007  0.7987 -0.2699
15502TIP3    H167921   0.872   2.805  12.731  0.2417 -0.3026  0.5420
15502TIP3    H267922   0.831   2.803  12.586  0.1656  2.1045  0.4848
15503TIP3   OH267923   0.100   5.504   0.922  0.0676  0.4377 -0.3595
15503TIP3    H167924   0.046   5.470   0.851  0.0804  2.2123 -1.2918
15503TIP3    H267925   0.186   5.465   0.907 -0.2812 -0.3156 -0.4570
15504TIP3   OH267926   6.199   4.344  14.939 -0.6417  0.1609  0.1766
15504TIP3    H167927   6.169   4.274  14.996 -0.2535 -0.2348 -0.0976
15504TIP3    H267928   6.130   4.410  14.943 -1.8670 -1.0041 -0.9473
15505TIP3   OH267929   0.011   3.967   0.972 -0.0440  0.1244  0.1802
15505TIP3    H167930  -0.082   3.951   0.960  0.1743 -2.1247  1.0070
15505TIP3    H267931   0.029   4.047   0.923 -2.7121  1.5216  1.3195
15506TIP3   OH267932   2.214   0.788   6.119  0.0664  0.6133 -0.2576
15506TIP3    H167933   2.228   0.876   6.085  0.8948  1.4297  2.0161
15506TIP3    H267934   2.290   0.739   6.089 -0.5465  0.5291 -1.7902
15507TIP3   OH267935   1.605   3.829   6.311 -0.5618  0.0413  0.0678
15507TIP3    H167936   1.659   3.908   6.309  0.4844 -0.6402 -2.8492
15507TIP3    H267937   1.559   3.834   6.395 -0.6050  3.7820 -0.0049
15508TIP3   OH267938   0.641   2.915  13.347  0.6965  0.6151 -0.4388
15508TIP3    H167939   0.708   2.975  13.381  1.0884  0.3267 -0.6910
15508TIP3    H267940   0.597   2.881  13.425  1.7913 -0.2747 -0.1888
15509TIP3   OH267941   2.706   4.269  14.849  0.0779  0.0789 -0.3738
15509TIP3    H167942   2.691   4.184  14.889 -2.3252  1.2138  1.4389
15509TIP3    H267943   2.785   4.303  14.893 -0.0961 -0.4210  0.3323
15510TIP3   OH267944   1.123   1.395  12.664  0.2088 -0.9159 -0.2864
15510TIP3    H167945   1.207   1.362  12.695  0.7023 -0.5594 -1.1980
15510TIP3    H267946   1.146   1.468  12.607 -0.8137  0.3418  0.8638
15511TIP3   OH267947   3.130   1.195  15.009 -0.0442  0.0387 -0.1867
15511TIP3    H167948   3.138   1.129  15.078  0.1487  1.2100  0.9539
15511TIP3    H267949   3.036   1.205  14.996 -0.1186  0.4269  0.5564
15512TIP3   OH267950   1.741   0.737  16.317 -0.3348  0.2412 -0.3025
15512TIP3    H167951   1.758   0.811  16.374  2.3466 -1.1992  0.9442
15512TIP3    H267952   1.664   0.695  16.354 -0.8963  1.4456 -0.0617
15513TIP3   OH267953   6.267   3.659   1.240 -0.0220  0.0469 -0.2155
15513TIP3    H167954   6.196   3.596   1.251 -0.8923  1.1511  0.6538
15513TIP3    H267955   6.229   3.744   1.263  0.8372  1.0862 -2.3618
15514TIP3   OH267956   2.392   0.128  17.126 -1.0734 -0.4691 -0.2681
15514TIP3    H167957   2.309   0.085  17.143 -1.5028  0.4145 -0.0763
15514TIP3    H267958   2.420   0.095  17.040  0.3190 -3.7486  1.2644
15515TIP3   OH267959   1.257   4.347   1.231 -0.1222  0.3873 -0.4093
15515TIP3    H167960   1.315   4.336   1.305 -0.9484  0.3220  0.2475
15515TIP3    H267961   1.192   4.277   1.242  0.2565 -0.1961 -1.6889
15516TIP3   OH267962   1.935   3.351  12.710 -0.2094 -0.5902  0.1667
15516TIP3    H167963   2.023   3.340  12.748  0.2909 -0.7227 -0.9725
15516TIP3    H267964   1.940   3.433  12.661 -0.5815 -0.8202 -0.2668
15517TIP3   OH267965   3.161   3.225  12.659 -0.2705  0.1518 -0.1026
15517TIP3    H167966   3.197   3.240  12.746  1.4680  2.7399 -1.1281
15517TIP3    H267967   3.169   3.310  12.615 -0.1015 -1.2995 -3.1300
15518TIP3   OH267968   5.921   0.219  15.753 -0.2679 -0.1827  0.2479
15518TIP3    H167969   5.902   0.208  15.660 -1.1154 -0.8552  0.4881
15518TIP3    H267970   5.869   0.151  15.797 -1.4346  1.3533  1.3671
15519TIP3   OH267971   4.029   2.133   6.027  0.4502  0.3941  0.3837
15519TIP3    H167972   4.006   2.124   6.119 -0.1569 -0.4004  0.1634
15519TIP3    H267973   4.124   2.134   6.026  0.4737 -0.5635  0.9391
15520TIP3   OH267974   1.919   0.896  12.829 -0.0486 -0.1888 -0.6284
15520TIP3    H167975   1.997   0.933  12.786 -0.3513 -0.0256 -1.0404
15520TIP3    H267976   1.845   0.936  12.783 -0.3929  0.8660  0.8079
15521TIP3   OH267977   5.891   0.070   2.522 -0.3419  0.0873 -0.1957
15521TIP3    H167978   5.813   0.017   2.506 -1.3964  0.9712  1.6991
15521TIP3    H267979   5.959   0.006   2.544 -1.2075 -0.5619  0.6462
15522TIP3   OH267980   6.679   2.743   0.037  0.5090 -0.8220  0.0175
15522TIP3    H167981   6.638   2.807   0.097 -1.3963 -2.2820  0.3910
15522TIP3    H267982   6.639   2.761  -0.048 -0.9474 -2.1835  0.3595
15523TIP3   OH267983   4.789   1.770  10.950  0.4276 -0.3314 -0.4670
15523TIP3    H167984   4.854   1.810  10.893  1.6292  1.7215  2.1287
15523TIP3    H267985   4.839   1.712  11.007 -0.1567  0.2875  0.7222
15524TIP3   OH267986   0.725   5.067   2.675  1.3131  0.4138  0.7125
15524TIP3    H167987   0.734   5.028   2.762  1.8953 -1.9617 -0.3096
15524TIP3    H267988   0.803   5.122   2.666  1.1524  0.8322  1.7489
15525TIP3   OH267989   5.154   5.203   6.196 -0.5978  0.4530 -0.2731
15525TIP3    H167990   5.124   5.181   6.107 -1.7409  0.0075  0.2091
15525TIP3    H267991   5.102   5.147   6.253 -1.7076  2.5149  0.8426
15526TIP3   OH267992   1.290   1.638   0.192  0.2118  0.1306  0.0409
15526TIP3    H167993   1.203   1.626   0.155 -1.4755  0.8285  3.3239
15526TIP3    H267994   1.303   1.561   0.247  1.4068  0.3395  0.0718
15527TIP3   OH267995   5.659   3.753   2.179 -0.1806 -0.0284 -0.1391
15527TIP3    H167996   5.680   3.748   2.272 -1.1002 -0.2941  0.0682
15527TIP3    H267997   5.739   3.726   2.134 -0.0938 -1.0327  0.6022
15528TIP3   OH267998   2.600   0.912   5.295  0.5881  0.1747  0.4100
15528TIP3    H167999   2.667   0.898   5.362  1.0531 -0.7274 -0.2271
15528TIP3    H268000   2.549   0.831   5.294  0.9520 -0.0596 -0.7206
15529TIP3   OH268001   2.979   3.718   1.590 -0.1893 -0.4979  0.3024
15529TIP3    H168002   3.046   3.778   1.557  0.7360 -2.0383 -0.7944
15529TIP3    H268003   2.911   3.720   1.523 -0.2008 -0.5698  0.3118
15530TIP3   OH268004   2.674   3.153   0.947 -0.2434 -0.9542  0.6424
15530TIP3    H168005   2.681   3.205   1.027 -0.7233 -2.6902  1.8696
15530TIP3    H268006   2.672   3.217   0.877  1.9804  0.5865  1.8724
15531TIP3   OH268007   4.917   1.445   1.816 -0.1275  0.2130  0.0630
15531TIP3    H168008   4.988   1.491   1.770  1.6412 -0.9055  1.5086
15531TIP3    H268009   4.963   1.387   1.877 -2.3328 -0.4684  1.1554
15532TIP3   OH268010   4.893   0.857   0.283  0.0495 -0.1900 -0.5409
15532TIP3    H168011   4.818   0.899   0.325  1.2386  2.5046 -0.8769
15532TIP3    H268012   4.930   0.925   0.226  2.2632 -1.6713 -1.0125
15533TIP3   OH268013   3.712   1.539   6.070 -0.4415  0.4172 -0.0846
15533TIP3    H168014   3.737   1.477   6.139  1.1441 -0.2240 -1.1737
15533TIP3    H268015   3.746   1.623   6.100  0.5064  0.0862 -0.2012
15534TIP3   OH268016   1.117   6.513  16.807  0.8986 -0.0404 -0.3940
15534TIP3    H168017   1.088   6.594  16.847 -1.0590 -0.3920 -0.9988
15534TIP3    H268018   1.205   6.498  16.843  0.3249  1.0725  1.5712
15535TIP3   OH268019   6.757   4.362   3.704 -0.0190  0.0243  0.1636
15535TIP3    H168020   6.771   4.449   3.741 -0.4274  0.3842 -0.5227
15535TIP3    H268021   6.698   4.376   3.630  1.9859 -0.4632 -1.6165
15536TIP3   OH268022   4.762   2.836  14.339  0.0525 -0.2973  0.7836
15536TIP3    H168023   4.742   2.920  14.297 -1.8248 -0.4751  1.2498
15536TIP3    H268024   4.834   2.856  14.398  2.5037  0.0728 -2.0564
15537TIP3   OH268025   5.743   1.966   0.675  0.6174 -0.1673  0.2685
15537TIP3    H168026   5.726   1.934   0.586  1.8625 -0.6699  0.1909
15537TIP3    H268027   5.719   1.894   0.732  0.6727 -0.1816  0.2742
15538TIP3   OH268028   5.916   3.068   3.202 -0.4848 -0.2704 -0.9275
15538TIP3    H168029   5.820   3.062   3.205 -0.6165  1.3986 -0.1239
15538TIP3    H268030   5.935   3.156   3.235  1.3288 -0.5003 -1.2443
15539TIP3   OH268031   2.274   0.502  16.893 -0.0211 -0.7714 -0.4792
15539TIP3    H168032   2.261   0.577  16.835 -1.2046 -0.4026  0.2152
15539TIP3    H268033   2.237   0.428  16.846 -0.2423 -0.6246 -0.5369
15540TIP3   OH268034   5.773   1.579   5.088  0.0796 -0.5771 -0.0375
15540TIP3    H168035   5.696   1.523   5.078 -0.4828 -0.4703  2.8173
15540TIP3    H268036   5.847   1.518   5.084 -0.2887 -0.9962 -0.6058
15541TIP3   OH268037   0.213   5.435  16.864  0.4465 -0.2536  1.0397
15541TIP3    H168038   0.254   5.407  16.782  0.3084  0.1460  0.8285
15541TIP3    H268039   0.157   5.361  16.889  0.0865 -0.1798  0.4929
15542TIP3   OH268040   0.114   1.827  12.858 -0.1126  0.3043  0.5870
15542TIP3    H168041   0.115   1.738  12.895  2.5182  0.3323  0.7449
15542TIP3    H268042   0.025   1.858  12.875 -1.7572 -2.9192 -1.1325
15543TIP3   OH268043   5.623   6.004  16.705 -0.3522  0.0445 -0.1049
15543TIP3    H168044   5.672   5.923  16.716  4.1899  2.3667 -0.7796
15543TIP3    H268045   5.616   6.040  16.794  2.0837  1.0565 -0.2408
15544TIP3   OH268046   3.106   6.627  11.832 -0.2187  0.0969 -0.0932
15544TIP3    H168047   3.105   6.721  11.848 -0.6442  0.2656 -1.0263
15544TIP3    H268048   3.051   6.590  11.900 -1.7301  0.7456 -0.9187
15545TIP3   OH268049   4.446   1.183  14.813  0.4662 -0.0564  0.2502
15545TIP3    H168050   4.355   1.165  14.838  1.2712 -1.6132  2.3688
15545TIP3    H268051   4.447   1.276  14.791 -1.5324  0.0975  0.6134
15546TIP3   OH268052   5.587   0.114   2.180 -0.0425 -0.1425 -0.5322
15546TIP3    H168053   5.570   0.047   2.245 -0.2467 -0.5282 -0.9744
15546TIP3    H268054   5.568   0.196   2.224  1.9405 -0.2259  0.5978
15547TIP3   OH268055   2.698   1.920   5.692  0.1695 -0.0393 -0.2248
15547TIP3    H168056   2.769   1.967   5.649  0.6628  0.3315  0.9806
15547TIP3    H268057   2.692   1.837   5.644  3.1071 -1.2023  1.2035
15548TIP3   OH268058   1.635   1.023   1.533  0.1237  0.7191  0.0970
15548TIP3    H168059   1.665   1.106   1.496 -0.0772  1.4747  1.5561
15548TIP3    H268060   1.714   0.969   1.536  0.6386  1.4879  0.7559
15549TIP3   OH268061   4.734   5.627  13.447  0.2114  0.6244  0.1685
15549TIP3    H168062   4.732   5.566  13.373  2.1710  0.2473  0.3821
15549TIP3    H268063   4.647   5.668  13.446 -0.5806 -0.9552 -0.9841
15550TIP3   OH268064   1.086   1.575  12.474  0.3811  1.0338  0.0013
15550TIP3    H168065   1.096   1.627  12.394 -0.2634  0.7503 -0.2771
15550TIP3    H268066   0.992   1.557  12.478  0.7325 -1.4108 -0.7668
15551TIP3   OH268067   5.103   0.946  16.745  0.5148  0.5102 -0.7745
15551TIP3    H168068   5.126   1.031  16.784  1.5523  0.2255 -0.7288
15551TIP3    H268069   5.063   0.897  16.817 -1.2421  1.3700 -1.1138
15552TIP3   OH268070   4.509   1.834   4.509 -0.4897 -0.2403  0.3830
15552TIP3    H168071   4.419   1.833   4.542 -0.5344  0.5127  0.2987
15552TIP3    H268072   4.527   1.743   4.485 -1.3098 -0.3529  0.1738
15553TIP3   OH268073   3.165   2.729   3.828 -0.7623 -0.2565 -0.6566
15553TIP3    H168074   3.089   2.782   3.804 -0.4190  0.7171  0.3511
15553TIP3    H268075   3.236   2.763   3.773 -1.1472 -1.5942 -2.0743
15554TIP3   OH268076   4.292   1.181  11.097  0.5297 -0.8676 -0.4398
15554TIP3    H168077   4.260   1.099  11.059  0.5157 -1.8085  1.4569
15554TIP3    H268078   4.349   1.153  11.169  0.1068  0.7825  0.5821
15555TIP3   OH268079   6.421   3.059  12.566 -0.3627 -0.2482  0.3944
15555TIP3    H168080   6.489   3.105  12.615 -1.0026 -0.0271  1.0834
15555TIP3    H268081   6.455   2.969  12.557 -0.1190 -0.2196  0.9912
15556TIP3   OH268082   6.768   5.769  14.513  0.9577  0.3487  0.3522
15556TIP3    H168083   6.749   5.798  14.602  3.4037 -0.6872  1.2981
15556TIP3    H268084   6.817   5.840  14.474  1.0888  0.2377  0.3149
15557TIP3   OH268085   0.205   6.473   5.498 -0.7481 -0.2825  0.1111
15557TIP3    H168086   0.199   6.428   5.582 -0.1349  0.7429  0.7337
15557TIP3    H268087   0.234   6.406   5.436  0.7483 -0.6382  1.1302
15558TIP3   OH268088   6.252   3.196   3.092  0.2195 -0.3906 -0.2154
15558TIP3    H168089   6.288   3.187   3.004  0.6627  3.3457 -0.6044
15558TIP3    H268090   6.325   3.177   3.150  0.1087 -2.2030 -0.6178
15559TIP3   OH268091   2.554   2.242   1.539 -0.1521 -0.3743  0.1242
15559TIP3    H168092   2.577   2.233   1.446 -1.1758  0.1670 -0.1938
15559TIP3    H268093   2.602   2.320   1.567  1.0036 -1.1356  0.3496
15560TIP3   OH268094   2.995   1.439  13.623 -0.3519  0.6038 -0.4804
15560TIP3    H168095   2.968   1.493  13.549 -0.3217  1.1529 -0.0920
15560TIP3    H268096   2.915   1.427  13.674 -0.1376  1.1222 -0.0310
15561TIP3   OH268097   5.359   6.740   4.019 -0.3292 -0.0155  0.6188
15561TIP3    H168098   5.431   6.711   4.075 -0.4624  0.2381  0.9288
15561TIP3    H268099   5.378   6.832   4.002  1.4193 -0.8170 -2.4123
15562TIP3   OH268100   6.107   4.664  12.446  0.1370  0.1135  0.4795
15562TIP3    H168101   6.071   4.753  12.445 -0.3382 -0.0780  0.3315
15562TIP3    H268102   6.045   4.613  12.498  1.1254  0.1502  1.7511
15563TIP3   OH268103   0.518   3.912   5.991 -0.2589 -0.3755  0.5539
15563TIP3    H168104   0.487   3.940   6.077 -0.3285 -0.9108  0.7017
15563TIP3    H268105   0.440   3.877   5.948 -0.4673  0.8613 -0.1353
15564TIP3   OH268106   1.726   2.333  12.088  0.2882  0.1568 -0.4299
15564TIP3    H168107   1.772   2.250  12.104 -1.1737 -0.6854 -0.4468
15564TIP3    H268108   1.649   2.329  12.144  0.2276  1.5520 -0.3829
15565TIP3   OH268109   0.442   6.544   5.791  0.5983 -0.0690  0.6443
15565TIP3    H168110   0.501   6.475   5.762 -1.0444 -1.3843  0.3053
15565TIP3    H268111   0.355   6.510   5.774 -0.2901  2.4227 -0.3085
15566TIP3   OH268112   1.601   5.004   4.524  0.4793 -0.6119  0.0956
15566TIP3    H168113   1.600   4.927   4.581 -2.7971 -0.5777  0.2964
15566TIP3    H268114   1.622   4.969   4.437 -1.2726 -1.8959  0.1164
15567TIP3   OH268115   1.673   1.442  17.145 -0.2727 -0.2989 -0.5892
15567TIP3    H168116   1.659   1.514  17.206  0.7960  0.9373 -1.7343
15567TIP3    H268117   1.600   1.382  17.161 -1.5560  1.3373 -0.0389
15568TIP3   OH268118   4.299   1.806  15.288 -0.2450  0.1780 -0.0218
15568TIP3    H168119   4.349   1.886  15.304 -0.7937 -0.0950  4.0419
15568TIP3    H268120   4.217   1.837  15.250  0.3580  1.2946 -0.4738
15569TIP3   OH268121   1.277   0.977  13.708 -0.0318  0.6031 -0.6817
15569TIP3    H168122   1.256   0.884  13.712  1.7261  0.1826 -0.0419
15569TIP3    H268123   1.350   0.982  13.646 -0.2190  1.5822 -0.8421
15570TIP3   OH268124   4.503   3.144  15.124  0.3288  0.0585 -0.2785
15570TIP3    H168125   4.590   3.168  15.092  0.0526 -0.4516 -1.4340
15570TIP3    H268126   4.450   3.134  15.045 -0.2663 -1.6275  0.2949
15571TIP3   OH268127   0.663   1.873  13.496  0.1451  0.5810  0.2851
15571TIP3    H168128   0.675   1.945  13.558  0.9374  0.2227  0.5589
15571TIP3    H268129   0.742   1.873  13.443  0.8301 -1.0027  1.2404
15572TIP3   OH268130   6.291   6.433  15.695  0.0861  0.0178  0.2247
15572TIP3    H168131   6.284   6.521  15.731  1.1964  0.3997 -0.4601
15572TIP3    H268132   6.376   6.401  15.726  0.2393 -0.3474 -0.5560
15573TIP3   OH268133   5.348   2.201  11.507 -0.4013  0.2671  0.5114
15573TIP3    H168134   5.345   2.257  11.584 -2.7173  0.9706 -0.0005
15573TIP3    H268135   5.321   2.115  11.538 -0.7150  0.3998  0.6120
15574TIP3   OH268136   3.900   5.589   1.851  0.1866  0.2098 -0.2177
15574TIP3    H168137   3.954   5.519   1.888 -0.4516  0.0994  0.5305
15574TIP3    H268138   3.938   5.605   1.765 -0.3882 -1.9162 -0.9240
15575TIP3   OH268139   6.719   3.333  15.399 -0.5837 -0.4370  0.0859
15575TIP3    H168140   6.658   3.302  15.332  1.9972 -2.8737 -1.3088
15575TIP3    H268141   6.769   3.402  15.356  1.2088 -2.1350 -0.7122
15576TIP3   OH268142   0.959   2.067  11.332 -0.2970  0.3642 -0.6559
15576TIP3    H168143   0.964   1.972  11.326 -0.8226  0.3693 -1.2048
15576TIP3    H268144   0.926   2.083  11.421  1.4760  0.1049  0.0950
15577TIP3   OH268145   3.626   2.933  15.632 -0.0624  0.4789 -0.1253
15577TIP3    H168146   3.636   3.009  15.689  0.7559 -0.1709  0.6443
15577TIP3    H268147   3.656   2.962  15.546  0.7022  0.8969  0.2726
15578TIP3   OH268148   2.169   6.478  11.500 -0.1376  0.0092 -0.1624
15578TIP3    H168149   2.264   6.468  11.489  0.1062  1.9933 -0.3187
15578TIP3    H268150   2.157   6.571  11.517 -2.1610  0.0015 -1.2332
15579TIP3   OH268151   2.299   6.181  15.406  0.0882 -0.0387 -0.5189
15579TIP3    H168152   2.237   6.240  15.449  1.0622 -0.2300  1.2448
15579TIP3    H268153   2.279   6.095  15.440  1.2169 -0.1235 -0.0144
15580TIP3   OH268154   1.615   0.238  14.729 -0.0606  0.0110 -0.4803
15580TIP3    H168155   1.628   0.250  14.823 -1.2688 -0.0416 -0.2849
15580TIP3    H268156   1.554   0.308  14.705  0.0669 -0.1173 -1.1789
15581TIP3   OH268157   1.974   2.289  13.126 -0.1499  0.0107  0.1553
15581TIP3    H168158   1.985   2.374  13.084 -1.0506  0.1846  0.2510
15581TIP3    H268159   1.879   2.275  13.128 -0.0421 -0.7250  0.6746
15582TIP3   OH268160   5.386   1.743  13.174 -0.4427  0.0142  0.6969
15582TIP3    H168161   5.442   1.786  13.110  0.9543 -1.6905  0.6898
15582TIP3    H268162   5.359   1.814  13.233 -1.0802  1.4621 -1.2345
15583TIP3   OH268163   2.685   4.217   1.622  0.5498  0.1462 -0.2174
15583TIP3    H168164   2.689   4.194   1.715  2.2527  2.4294  0.3609
15583TIP3    H268165   2.777   4.230   1.597  0.0066  1.3945 -1.7112
15584TIP3   OH268166   2.817   6.693   6.302  0.1334 -0.0886  0.1004
15584TIP3    H168167   2.798   6.779   6.339  0.3014 -0.6457  1.5617
15584TIP3    H268168   2.766   6.689   6.221 -2.1841  0.3002  1.4506
15585TIP3   OH268169   3.505   2.005   2.802 -0.1656  0.0103  0.1638
15585TIP3    H168170   3.486   2.081   2.858  0.4322 -0.2313  0.7121
15585TIP3    H268171   3.475   1.930   2.853 -0.0512 -0.1756 -0.0434
15586TIP3   OH268172   3.731   2.775  12.071 -0.0975 -0.1709 -0.2784
15586TIP3    H168173   3.796   2.814  12.012 -0.8521  0.2877 -0.8322
15586TIP3    H268174   3.668   2.846  12.088 -0.8047 -0.7832 -0.2817
15587TIP3   OH268175   3.486   2.470  11.614 -0.1427  0.4190 -0.3312
15587TIP3    H168176   3.459   2.425  11.534 -0.9535 -1.0055  0.6957
15587TIP3    H268177   3.579   2.489  11.601 -0.0903 -0.4320 -1.3277
15588TIP3   OH268178   3.820   1.943   2.776  0.2772 -0.1809  0.2414
15588TIP3    H168179   3.790   1.992   2.700  0.6634 -1.1865 -0.5741
15588TIP3    H268180   3.748   1.884   2.798  1.3754 -2.2683 -1.4373
15589TIP3   OH268181   2.656   4.844   2.556  0.6291  0.0789 -0.3347
15589TIP3    H168182   2.622   4.795   2.631  0.1270  1.3167  0.2683
15589TIP3    H268183   2.580   4.858   2.500  0.8873 -0.3189 -0.8002
15590TIP3   OH268184   2.997   5.833  14.286  0.3087 -0.1043  0.5478
15590TIP3    H168185   3.015   5.804  14.197  0.1053  0.7124  0.2281
15590TIP3    H268186   2.926   5.896  14.277  0.6458  0.3890  1.2245
15591TIP3   OH268187   4.097   2.357  13.106  0.2009  0.0652 -0.7063
15591TIP3    H168188   4.083   2.452  13.109  1.5151  0.3292  3.2805
15591TIP3    H268189   4.013   2.321  13.078 -0.1685  2.3351 -2.9134
15592TIP3   OH268190   1.484   0.321  13.600  0.2690  0.6443 -0.7335
15592TIP3    H168191   1.536   0.400  13.611  0.1101  0.7219 -0.5516
15592TIP3    H268192   1.398   0.352  13.570  0.0847  0.5689 -0.2885
15593TIP3   OH268193   6.570   1.014   2.858  0.1408 -0.2604  0.1528
15593TIP3    H168194   6.538   0.978   2.775  2.1580 -1.8393 -0.0287
15593TIP3    H268195   6.525   0.963   2.925 -0.0909 -0.2867 -0.0217
15594TIP3   OH268196   5.653   1.659  16.781  0.4198 -0.4810 -0.6001
15594TIP3    H168197   5.594   1.733  16.797 -1.5269 -2.0493 -0.1334
15594TIP3    H268198   5.686   1.673  16.693 -1.3027  0.0850 -1.2024
15595TIP3   OH268199   4.599   0.752   5.144 -0.5818  0.0113  0.2741
15595TIP3    H168200   4.592   0.715   5.056  0.0176  1.1793 -0.2992
15595TIP3    H268201   4.674   0.707   5.183  2.5773  3.0202 -1.7665
15596TIP3   OH268202   1.856   4.804  17.269  0.3207 -0.0788 -0.2961
15596TIP3    H168203   1.838   4.800  17.363 -0.0780  2.3151 -0.2090
15596TIP3    H268204   1.874   4.713  17.244 -0.1943 -0.8626  1.9518
15597TIP3   OH268205   0.227   2.280  14.990 -0.6067  0.0799  0.5501
15597TIP3    H168206   0.219   2.365  14.945 -0.3533 -0.4689 -0.5814
15597TIP3    H268207   0.232   2.303  15.083 -0.0015  1.3465  0.2392
15598TIP3   OH268208   1.071   4.842  17.064  0.8218 -0.7335 -0.5141
15598TIP3    H168209   1.003   4.791  17.108  0.4394 -0.6339 -0.9672
15598TIP3    H268210   1.069   4.810  16.973  2.2853 -1.6521 -0.2475
15599TIP3   OH268211   5.960   4.410   0.980 -0.2102 -0.0408 -0.0212
15599TIP3    H168212   6.023   4.345   0.947 -1.0856 -1.1618  0.4272
15599TIP3    H268213   6.014   4.486   1.002  1.1933 -1.3244  1.3308
15600TIP3   OH268214   4.725   5.740   0.180 -0.1999  0.1987 -0.3265
15600TIP3    H168215   4.815   5.741   0.213  0.2118 -0.8378 -1.3763
15600TIP3    H268216   4.705   5.832   0.162  1.3308  0.2791 -1.8399
15601TIP3   OH268217   1.202   2.906   5.262 -0.3189  0.2471  0.3797
15601TIP3    H168218   1.162   2.909   5.349 -0.7137  0.9557  0.1776
15601TIP3    H268219   1.225   2.997   5.243  1.2581 -0.1116  0.4253
15602TIP3   OH268220   5.017   5.801   5.544 -0.1873 -0.2821  0.0413
15602TIP3    H168221   4.986   5.721   5.586 -1.4243  0.7414  1.2025
15602TIP3    H268222   5.081   5.838   5.605  0.0237 -0.1554 -0.2546
15603TIP3   OH268223   3.229   4.314  14.369  0.1589  0.0278  0.3949
15603TIP3    H168224   3.144   4.347  14.340 -0.3307 -1.2413  0.3340
15603TIP3    H268225   3.220   4.305  14.464  0.3251  0.1893  0.4246
15604TIP3   OH268226   3.305   0.882  16.937  0.0052 -0.0115 -0.0401
15604TIP3    H168227   3.334   0.953  16.881  0.1302  0.4620  0.6105
15604TIP3    H268228   3.385   0.836  16.963 -0.0305 -0.0756 -0.0399
15605TIP3   OH268229   5.444   5.083   1.347 -0.5188 -0.5985 -0.0137
15605TIP3    H168230   5.387   5.109   1.419  0.0199  0.8520 -0.0812
15605TIP3    H268231   5.516   5.036   1.388 -0.8126 -0.8156  0.2588
15606TIP3   OH268232   2.665   4.529  12.484  0.2017  0.1617  0.5382
15606TIP3    H168233   2.688   4.587  12.411  2.3537 -1.3265 -0.0640
15606TIP3    H268234   2.592   4.477  12.450  0.4224  0.2791 -0.1401
15607TIP3   OH268235   1.848   5.826   6.575  0.0050  0.2863  0.2906
15607TIP3    H168236   1.889   5.740   6.564  0.8792  0.7992 -0.6595
15607TIP3    H268237   1.911   5.888   6.538 -0.7953  1.2982  0.5642
15608TIP3   OH268238   5.015   2.293   3.653 -0.0880  0.1068  0.6519
15608TIP3    H168239   5.024   2.201   3.630 -0.2103  0.5381 -1.3471
15608TIP3    H268240   5.077   2.338   3.595 -1.2824  1.4244  0.3533
15609TIP3   OH268241   2.588   5.554  12.072 -1.2654  0.1121  0.8317
15609TIP3    H168242   2.659   5.617  12.082  0.5537 -1.8155  0.6332
15609TIP3    H268243   2.551   5.573  11.985  0.5974 -0.3314 -0.1119
15610TIP3   OH268244   2.672   5.318   4.062  0.0668 -0.4918 -0.4255
15610TIP3    H168245   2.612   5.304   4.135 -0.5776  1.6976 -0.4666
15610TIP3    H268246   2.625   5.283   3.986  0.0608 -1.3216 -0.0510
15611TIP3   OH268247   4.635   2.430  12.942 -0.0474  0.4428  0.5734
15611TIP3    H168248   4.706   2.479  12.901  0.2249 -0.5819 -0.2400
15611TIP3    H268249   4.561   2.491  12.944  0.7525  1.4127  1.1432
15612TIP3   OH268250   3.025   2.752   1.080  0.2765 -0.3280 -0.3069
15612TIP3    H168251   3.023   2.847   1.069 -3.3884 -0.1198  0.8233
15612TIP3    H268252   2.963   2.719   1.015  0.6471 -1.8431  0.0732
15613TIP3   OH268253   2.307   4.863   5.095  0.3439 -0.7696  0.3209
15613TIP3    H168254   2.250   4.877   5.020  2.1227  0.5870 -0.8711
15613TIP3    H268255   2.338   4.773   5.086 -2.3435 -1.9233  1.6101
15614TIP3   OH268256   1.931   1.801   3.719  0.0586 -0.6487  0.2330
15614TIP3    H168257   1.977   1.824   3.800  1.0225 -1.6206 -0.0142
15614TIP3    H268258   1.883   1.721   3.740 -0.8188 -0.1300  0.2312
15615TIP3   OH268259   2.309   2.224   1.145  0.1035  0.0643  0.0262
15615TIP3    H168260   2.243   2.156   1.135 -1.5363  1.2864  1.8310
15615TIP3    H268261   2.385   2.178   1.182 -0.5369 -0.9947  0.0773
15616TIP3   OH268262   1.336   6.446  15.746 -0.1709 -0.4660  0.0024
15616TIP3    H168263   1.291   6.477  15.824 -0.4966 -1.3873  0.1933
15616TIP3    H268264   1.425   6.426  15.776 -0.1188 -0.2363  0.0009
15617TIP3   OH268265   1.324   2.131   3.748 -0.0259 -0.4192  0.4053
15617TIP3    H168266   1.287   2.218   3.739  0.3366 -0.4277 -1.8494
15617TIP3    H268267   1.249   2.073   3.758 -0.3415 -0.0017  0.4684
15618TIP3   OH268268   5.847   3.077  12.044 -0.4410  0.3684 -0.5493
15618TIP3    H168269   5.876   3.143  11.981 -1.6386  1.2299 -0.2397
15618TIP3    H268270   5.824   3.127  12.122  2.1499 -0.7627  1.0921
15619TIP3   OH268271   3.072   0.839   4.507  0.1601  0.0310 -0.1146
15619TIP3    H168272   2.985   0.852   4.544 -0.8289 -1.8877 -1.5893
15619TIP3    H268273   3.129   0.831   4.584 -1.1094  0.2632  0.8959
15620TIP3   OH268274   4.093   2.190   2.251 -0.5944 -0.2131  0.6090
15620TIP3    H168275   4.093   2.120   2.185 -0.6631 -0.3151  0.7178
15620TIP3    H268276   4.000   2.211   2.262 -0.5571  0.0768  0.3833
15621TIP3   OH268277   1.155   4.958  12.115 -0.3452 -0.4008 -0.4534
15621TIP3    H168278   1.098   4.883  12.133  0.3869 -0.7812  0.4014
15621TIP3    H268279   1.243   4.920  12.111 -0.0809  0.2651 -1.0738
15622TIP3   OH268280   5.564   3.888   0.373  0.2773 -0.5965  0.1725
15622TIP3    H168281   5.554   3.973   0.416 -1.2536 -1.7581  2.3004
15622TIP3    H268282   5.484   3.878   0.322  0.5732 -0.6539 -0.2809
15623TIP3   OH268283   5.040   3.183   1.827 -0.1827  0.3102 -0.2989
15623TIP3    H168284   5.117   3.232   1.799 -0.4368  0.7258 -0.2666
15623TIP3    H268285   5.047   3.099   1.781  1.2453 -0.3858  1.0762
15624TIP3   OH268286   4.992   5.061  12.641  0.6045 -0.0216 -0.3010
15624TIP3    H168287   4.910   5.051  12.689 -0.5981 -2.5248 -2.5869
15624TIP3    H268288   5.060   5.060  12.708 -1.1074 -0.4863  1.4993
15625TIP3   OH268289   4.300   3.538  12.865 -0.1775  0.7116 -0.5400
15625TIP3    H168290   4.224   3.546  12.807  0.2239 -1.1662 -1.3920
15625TIP3    H268291   4.338   3.625  12.867 -1.7611  1.4513 -0.9126
15626TIP3   OH268292   6.618   6.546   6.564 -0.0490 -0.2791 -0.2285
15626TIP3    H168293   6.662   6.489   6.500  0.8538 -1.0871  1.0547
15626TIP3    H268294   6.531   6.507   6.574 -1.4268  1.6577 -3.2125
15627TIP3   OH268295   0.592   1.360   6.265 -0.3871 -0.2056 -1.3223
15627TIP3    H168296   0.675   1.384   6.308 -1.4161 -0.9620  1.2516
15627TIP3    H268297   0.594   1.265   6.261 -0.9455 -0.2024 -1.6598
15628TIP3   OH268298   0.957   1.809   6.725  0.2094 -0.4226  0.4143
15628TIP3    H168299   1.023   1.836   6.662 -0.0963 -0.0026  0.2630
15628TIP3    H268300   0.936   1.890   6.773 -1.4239 -0.1309 -0.6928
15629TIP3   OH268301   0.262   5.211  17.263 -0.3035  0.3097 -0.3921
15629TIP3    H168302   0.330   5.196  17.329  0.2128  1.1278 -0.7323
15629TIP3    H268303   0.281   5.147  17.194  1.1192  1.5862 -1.2422
15630TIP3   OH268304   4.934   5.566   2.934  0.0137 -0.0362 -0.1852
15630TIP3    H168305   4.952   5.473   2.920  0.2863  0.0902 -0.6634
15630TIP3    H268306   4.996   5.612   2.878  0.1733  0.4470  0.3763
15631TIP3   OH268307   1.712   3.606   3.275  0.1007 -0.3022 -0.2406
15631TIP3    H168308   1.734   3.636   3.186 -3.5945  1.5128 -0.7328
15631TIP3    H268309   1.754   3.670   3.333  0.0030  0.3157 -0.8408
15632TIP3   OH268310   6.010   5.007   2.698 -0.7990  0.6103  0.0082
15632TIP3    H168311   5.936   4.994   2.757 -0.3026 -1.1304  0.2881
15632TIP3    H268312   6.073   5.058   2.749  0.0366 -1.6907  1.4138
15633TIP3   OH268313   1.146   3.637  14.034 -1.3329  0.9598  0.0069
15633TIP3    H168314   1.176   3.615  13.946  0.6282  0.0622  0.8287
15633TIP3    H268315   1.152   3.732  14.039  0.8401  0.8848 -0.1332
15634TIP3   OH268316   3.410   1.826  16.651 -0.4169 -0.9709  0.0806
15634TIP3    H168317   3.420   1.835  16.746 -0.2673 -1.2870  0.0942
15634TIP3    H268318   3.463   1.897  16.614 -1.6330  0.0720  0.2620
15635TIP3   OH268319   4.263   0.258   0.999  0.5686  0.1673  0.0497
15635TIP3    H168320   4.287   0.222   0.914 -0.3628  0.1579 -0.2153
15635TIP3    H268321   4.345   0.258   1.048  1.2415  0.6835 -1.0261
15636TIP3   OH268322   5.936   1.121   2.070 -0.5795 -0.0695  0.0666
15636TIP3    H168323   5.874   1.189   2.045 -0.2005  0.0913 -0.4441
15636TIP3    H268324   5.953   1.137   2.163  3.0031  3.4577 -0.8920
15637TIP3   OH268325   4.318   5.321   4.957  0.2292  0.1529 -0.1076
15637TIP3    H168326   4.398   5.268   4.958 -0.3825 -0.8139 -0.6734
15637TIP3    H268327   4.347   5.408   4.985  1.3728 -0.3147  0.2460
15638TIP3   OH268328   2.667   0.916  11.998  0.0203 -0.2599 -0.3152
15638TIP3    H168329   2.762   0.906  12.008 -0.1803 -0.5138  1.5438
15638TIP3    H268330   2.642   0.977  12.067 -1.2425 -0.5240 -0.5223
15639TIP3   OH268331   0.787   0.472   2.752  0.0241 -0.0230 -0.4026
15639TIP3    H168332   0.781   0.521   2.670  0.3897  0.4656 -0.1530
15639TIP3    H268333   0.866   0.419   2.743 -0.4753 -0.7206 -0.7468
15640TIP3   OH268334   0.256   0.339   3.400 -0.0031  0.4571  0.6054
15640TIP3    H168335   0.231   0.431   3.390  0.2527  0.3809 -1.1169
15640TIP3    H268336   0.245   0.302   3.313 -0.8498 -1.3636  1.4492
15641TIP3   OH268337   6.323   0.028  14.790  0.0107  0.2173 -0.2583
15641TIP3    H168338   6.390   0.078  14.838 -1.7931  0.3016  2.3748
15641TIP3    H268339   6.348  -0.063  14.801  0.0520  0.2763  0.1359
15642TIP3   OH268340   0.839   4.976  14.504  0.1246 -0.2815  0.2963
15642TIP3    H168341   0.780   4.901  14.510  0.1452 -0.2428  1.1238
15642TIP3    H268342   0.916   4.950  14.556  0.1127  0.3237  0.6270
15643TIP3   OH268343   4.486   3.659   3.374  0.4624 -0.6761 -0.1427
15643TIP3    H168344   4.545   3.587   3.400  0.4611 -0.7609 -0.3665
15643TIP3    H268345   4.462   3.701   3.456  0.4173 -0.9687 -0.0043
15644TIP3   OH268346   0.100   0.124  16.243 -0.8100  0.0679  0.3472
15644TIP3    H168347   0.149   0.172  16.310 -1.1433 -2.3855  2.5253
15644TIP3    H268348   0.016   0.105  16.284 -1.6151 -0.3005 -1.3708
15645TIP3   OH268349   4.623   5.781  16.493  0.0406 -0.0856 -0.1470
15645TIP3    H168350   4.615   5.857  16.551 -0.4630  0.1416 -0.5091
15645TIP3    H268351   4.714   5.754  16.501 -0.3412 -0.9588  1.8868
15646TIP3   OH268352   4.550   2.555   3.500  0.0827  0.1739 -0.4357
15646TIP3    H168353   4.507   2.470   3.497  1.0985 -0.3600 -0.4358
15646TIP3    H268354   4.629   2.540   3.553  0.8683  0.8199 -1.3716
15647TIP3   OH268355   2.360   3.117   4.026 -0.3175  0.0835 -0.5325
15647TIP3    H168356   2.404   3.067   3.958 -0.0167 -2.0083  1.0966
15647TIP3    H268357   2.288   3.161   3.980 -0.6977 -1.9816 -2.0693
15648TIP3   OH268358   6.003   5.094   1.773  0.4217  0.0362 -0.2467
15648TIP3    H168359   5.942   5.166   1.759 -0.8964 -0.4485  2.3451
15648TIP3    H268360   6.077   5.133   1.819  0.4723  0.0199 -0.3139
15649TIP3   OH268361   4.471   6.596   4.405  0.2977 -0.0550 -0.2952
15649TIP3    H168362   4.450   6.608   4.312  0.6443  1.4505 -0.2061
15649TIP3    H268363   4.426   6.668   4.449 -0.3751 -1.1099  0.7963
15650TIP3   OH268364   0.797   2.029  13.679  0.3176  0.1802 -0.4369
15650TIP3    H168365   0.891   2.018  13.666  0.6574  0.0814  1.7158
15650TIP3    H268366   0.782   2.123  13.664  0.8479  0.2809 -0.3713
15651TIP3   OH268367   5.474   4.514   5.655  0.2137  0.1022 -0.4781
15651TIP3    H168368   5.443   4.425   5.670  0.9507 -0.1430 -0.3861
15651TIP3    H268369   5.564   4.514   5.687  0.6885  0.5060 -1.7451
15652TIP3   OH268370   4.095   1.162   3.247  0.0573  0.3438 -0.2912
15652TIP3    H168371   4.149   1.205   3.313  1.1409  0.0976 -0.9727
15652TIP3    H268372   4.030   1.112   3.297  0.1356  1.0600  0.5444
15653TIP3   OH268373   3.310   2.382   4.860  0.0892 -0.0498 -0.1921
15653TIP3    H168374   3.281   2.342   4.943  0.2727  1.4153  0.6179
15653TIP3    H268375   3.266   2.467   4.859  2.0979  1.0537 -0.3157
15654TIP3   OH268376   5.748   0.497  11.525 -0.0372  0.0882  0.1773
15654TIP3    H168377   5.807   0.458  11.590  1.4876 -1.3133 -1.9231
15654TIP3    H268378   5.790   0.480  11.441 -1.0837  3.2954 -1.1518
15655TIP3   OH268379   5.335   4.949   0.673 -0.1901  0.4856  0.3483
15655TIP3    H168380   5.392   4.998   0.732  1.9722 -4.3449  2.9241
15655TIP3    H268381   5.395   4.887   0.629 -2.7060 -0.6525 -1.7694
15656TIP3   OH268382   6.766   3.519  17.241 -0.3488  0.3684  0.0980
15656TIP3    H168383   6.749   3.427  17.222  0.4463  0.2711 -0.1946
15656TIP3    H268384   6.765   3.525  17.336  0.5115 -0.1351  0.1488
15657TIP3   OH268385   4.464   3.318  12.885 -0.0460 -0.3166 -0.1918
15657TIP3    H168386   4.527   3.358  12.826  0.1265  0.2427  0.3634
15657TIP3    H268387   4.385   3.372  12.876  0.0996 -0.0116  0.3605
15658TIP3   OH268388   3.212   4.606  12.726  0.7137 -0.1321  0.0339
15658TIP3    H168389   3.259   4.550  12.787  1.0263  0.1838  0.0825
15658TIP3    H268390   3.133   4.632  12.773  0.3422 -0.8928 -0.1515
15659TIP3   OH268391   2.928   6.608   0.195  0.4519  0.5236 -0.4486
15659TIP3    H168392   2.987   6.638   0.125 -0.1772 -0.8804 -1.6319
15659TIP3    H268393   2.986   6.594   0.270  1.0719  2.5319 -0.4892
15660TIP3   OH268394   6.067   5.676   1.627 -0.2005  0.7777  0.3536
15660TIP3    H168395   6.110   5.627   1.557 -1.0375  1.0993 -0.4086
15660TIP3    H268396   6.074   5.620   1.704 -2.2623 -1.1843 -0.7701
15661TIP3   OH268397   5.101   6.500  11.390  0.1868 -0.1994  0.3791
15661TIP3    H168398   5.189   6.540  11.388  0.1618 -0.0636  1.7038
15661TIP3    H268399   5.074   6.499  11.298  2.9371 -3.3039 -0.6095
15662TIP3   OH268400   1.452   3.845  13.770 -0.1436 -0.3431 -0.4657
15662TIP3    H168401   1.371   3.896  13.770 -0.2907 -0.1396  3.7840
15662TIP3    H268402   1.424   3.755  13.752 -1.1617 -0.0848 -0.2614
15663TIP3   OH268403   5.762   0.923   1.976  0.4426  0.6939  0.0973
15663TIP3    H168404   5.800   0.903   1.891  1.2709 -0.6691  0.7700
15663TIP3    H268405   5.829   0.975   2.020 -0.8359  3.3098 -0.8275
15664TIP3   OH268406   4.151   5.029  14.301 -0.4986  0.8738  0.3130
15664TIP3    H168407   4.130   4.952  14.249 -0.9365  0.0757  1.6157
15664TIP3    H268408   4.211   5.079  14.247  1.2355 -1.2727  0.1098
15665TIP3   OH268409   3.001   4.700  11.933  0.2556 -0.2627  0.2495
15665TIP3    H168410   2.985   4.718  11.841  1.6918 -0.5999 -0.0852
15665TIP3    H268411   3.046   4.615  11.934 -0.5200 -0.7032  1.3327
15666TIP3   OH268412   6.283   5.011   5.708  0.1902  0.2142  0.3944
15666TIP3    H168413   6.330   5.040   5.629 -0.1786 -0.0856  0.0569
15666TIP3    H268414   6.281   4.915   5.700 -1.6552  0.2639 -0.3079
15667TIP3   OH268415   5.477   6.677   2.943  0.2483  0.1369 -0.0735
15667TIP3    H168416   5.555   6.731   2.928  0.7094 -0.4011  0.3038
15667TIP3    H268417   5.504   6.616   3.012 -1.1701  1.3022  1.5868
15668TIP3   OH268418   0.128   0.230  15.693  0.3499 -0.4213  0.8232
15668TIP3    H168419   0.068   0.305  15.705  0.0887  0.1938 -3.0225
15668TIP3    H268420   0.083   0.157  15.736 -0.4361  1.0949  2.7967
15669TIP3   OH268421   5.883   1.553   1.527 -0.2985 -0.0301 -0.4567
15669TIP3    H168422   5.884   1.618   1.598 -0.5337 -0.4361 -0.0747
15669TIP3    H268423   5.792   1.551   1.498 -0.0114  0.8672 -1.4665
15670TIP3   OH268424   0.022   3.129  12.465  0.2901 -0.3538 -0.1715
15670TIP3    H168425   0.116   3.138  12.481  0.3076  0.9441 -0.8853
15670TIP3    H268426   0.016   3.108  12.372 -0.1299 -0.7282 -0.0650
15671TIP3   OH268427   1.759   3.333   1.732  0.0090  0.0591 -0.0995
15671TIP3    H168428   1.793   3.353   1.645  1.3087 -1.5631 -0.0108
15671TIP3    H268429   1.664   3.324   1.719  0.0075  1.2285 -1.0450
15672TIP3   OH268430   0.187   3.518  16.838  0.1425  0.1134  0.2896
15672TIP3    H168431   0.259   3.560  16.790 -0.3637 -0.6500 -1.2092
15672TIP3    H268432   0.229   3.458  16.898  0.8005  1.0582  0.8038
15673TIP3   OH268433   6.696   4.120  12.977  0.8830  0.1854 -0.0391
15673TIP3    H168434   6.749   4.115  12.897 -1.0637  1.6767 -1.5115
15673TIP3    H268435   6.606   4.113  12.947  0.1159 -1.2269  2.2913
15674TIP3   OH268436   5.336   4.298  11.091 -0.2395  0.0671  0.4827
15674TIP3    H168437   5.369   4.231  11.032 -0.1234  0.6523 -0.1293
15674TIP3    H268438   5.381   4.281  11.174  0.2315 -0.2486  0.1703
15675TIP3   OH268439   3.259   1.064   2.801 -0.0728  0.2320  0.0928
15675TIP3    H168440   3.241   0.996   2.865  0.3742  1.0902  1.1515
15675TIP3    H268441   3.352   1.083   2.812 -0.0315  0.5237 -0.6862
15676TIP3   OH268442   2.096   6.398  17.014  0.0744 -0.3384  0.1457
15676TIP3    H168443   2.052   6.441  17.088 -1.2657 -0.0960 -0.7546
15676TIP3    H268444   2.041   6.323  16.994 -0.4019  0.4211 -1.5199
15677TIP3   OH268445   0.103   2.052   2.879 -0.1303  0.7952 -0.1903
15677TIP3    H168446   0.046   1.999   2.824  0.5845  0.1183 -0.2878
15677TIP3    H268447   0.142   1.990   2.940  0.1042  1.3366  0.2177
15678TIP3   OH268448   4.949   2.142   3.123  0.4442  0.0092 -0.6546
15678TIP3    H168449   4.957   2.073   3.189 -0.0349 -0.0209 -0.6291
15678TIP3    H268450   5.038   2.152   3.089  0.5624 -0.4527 -0.4894
15679TIP3   OH268451   2.019   2.370   1.966  0.0915 -0.5898  0.1666
15679TIP3    H168452   1.923   2.374   1.958  0.0041  0.2941  1.4271
15679TIP3    H268453   2.050   2.394   1.878 -0.8435 -0.1770 -0.0737
15680TIP3   OH268454   6.769   0.117   5.426 -0.5605  0.0339 -0.2562
15680TIP3    H168455   6.767   0.023   5.438 -1.9955  0.2633  1.8686
15680TIP3    H268456   6.686   0.138   5.383 -0.9339  0.4442  0.6332
15681TIP3   OH268457   4.268   2.979   4.984  0.3256 -1.0436 -0.1074
15681TIP3    H168458   4.253   2.920   5.058 -0.7463 -1.3221 -0.5248
15681TIP3    H268459   4.193   3.038   4.985  1.7099  0.7673  0.6932
15682TIP3   OH268460   1.755   3.442  13.077  0.2118  0.3027 -0.3421
15682TIP3    H168461   1.685   3.474  13.135  0.7934  0.1173  0.4908
15682TIP3    H268462   1.748   3.497  12.999 -1.5079 -0.3803 -0.7194
15683TIP3   OH268463   2.958   5.751   4.884  0.2464 -0.0414  0.4609
15683TIP3    H168464   2.902   5.811   4.935 -2.3197  0.0878 -2.2037
15683TIP3    H268465   3.032   5.805   4.858 -1.2122  1.5951 -0.5500
15684TIP3   OH268466   6.711   0.063  12.091 -0.0603 -0.0787  0.4439
15684TIP3    H168467   6.687   0.130  12.156 -0.3181  0.5643 -0.2953
15684TIP3    H268468   6.673   0.095  12.009 -0.7241 -1.4510  0.1894
15685TIP3   OH268469   3.422   2.858  15.111 -0.5490  0.4308 -0.9075
15685TIP3    H168470   3.448   2.935  15.061  1.5073  1.2735  1.2866
15685TIP3    H268471   3.488   2.850  15.180 -2.5588 -1.3137  0.9902
15686TIP3   OH268472   5.145   2.501   4.522 -0.5681  0.4505 -0.4687
15686TIP3    H168473   5.187   2.579   4.487  1.1912  0.6425  1.8220
15686TIP3    H268474   5.137   2.518   4.616  1.9071 -2.8947  0.5336
15687TIP3   OH268475   1.684   6.680   0.849  0.3696  0.4732  0.8616
15687TIP3    H168476   1.610   6.631   0.812 -0.6289  0.1811  3.1105
15687TIP3    H268477   1.749   6.614   0.871  0.3679  0.4927  0.9259
15688TIP3   OH268478   0.134   4.033  10.674 -0.4172 -0.7656  0.0730
15688TIP3    H168479   0.127   3.947  10.715  0.1460 -0.8835 -0.0617
15688TIP3    H268480   0.050   4.075  10.690 -0.8230 -1.4769 -0.1614
15689TIP3   OH268481   0.225   5.363   0.311  0.1968  0.2135  0.0068
15689TIP3    H168482   0.180   5.281   0.330 -0.1479  0.0351 -1.4582
15689TIP3    H268483   0.161   5.431   0.333  0.4246  0.0988  1.0660
15690TIP3   OH268484   2.767   6.213   0.805  0.0535  0.0905  0.6814
15690TIP3    H168485   2.857   6.228   0.777 -0.9121  3.6051 -1.1782
15690TIP3    H268486   2.716   6.219   0.724 -2.0824  1.1051  2.0046
15691TIP3   OH268487   4.515   5.594  13.986 -0.1855  0.6141  0.2446
15691TIP3    H168488   4.467   5.512  13.970 -1.6244  1.4181  0.3619
15691TIP3    H268489   4.595   5.584  13.934 -0.1640 -1.0199  0.5390
15692TIP3   OH268490   1.603   4.781   0.862 -0.4567  0.4184 -0.1652
15692TIP3    H168491   1.598   4.801   0.768 -2.7681 -0.4992 -0.3038
15692TIP3    H268492   1.653   4.854   0.899 -0.2438  1.2571 -1.9724
15693TIP3   OH268493   4.485   6.300   5.040  0.6190  0.0542 -0.2322
15693TIP3    H168494   4.434   6.312   5.120  2.3877  0.3145  0.9158
15693TIP3    H268495   4.504   6.207   5.037  1.5103  0.1994  0.3143
15694TIP3   OH268496   5.281   3.678  13.120  0.9290 -0.4501 -0.3231
15694TIP3    H168497   5.334   3.756  13.128 -0.6679  0.8101 -1.3393
15694TIP3    H268498   5.265   3.650  13.210  0.7076  0.9822  0.1010
15695TIP3   OH268499   0.285   2.788  12.112  0.3180 -0.4248  0.1547
15695TIP3    H168500   0.282   2.833  12.027  1.3611  2.7894  1.6501
15695TIP3    H268501   0.363   2.732  12.106  1.0249  0.6022 -0.6692
15696TIP3   OH268502   3.363   1.064  13.668 -0.0457  0.0513  0.5017
15696TIP3    H168503   3.401   1.043  13.583 -2.4936 -1.6155 -0.2955
15696TIP3    H268504   3.328   1.152  13.658  2.0786  1.0013  0.7742
15697TIP3   OH268505   3.983   4.774   3.330  0.1325 -0.2610  0.3097
15697TIP3    H168506   3.989   4.716   3.405  1.3050 -0.4440  0.1060
15697TIP3    H268507   3.905   4.746   3.283 -0.1290 -0.7071  1.0017
15698TIP3   OH268508   4.496   2.727  13.656  0.7605  0.6544 -0.1240
15698TIP3    H168509   4.486   2.637  13.625  1.1301  1.2739 -2.2421
15698TIP3    H268510   4.590   2.744  13.651  0.6525  1.2842 -0.1332
15699TIP3   OH268511   1.460   2.625   0.497  0.3197  0.0743 -0.0100
15699TIP3    H168512   1.430   2.557   0.558  1.9097  0.4214  1.2504
15699TIP3    H268513   1.427   2.598   0.412 -2.8188  0.0636  1.0914
15700TIP3   OH268514   5.778   4.535   1.616  0.3994 -0.4062 -0.3131
15700TIP3    H168515   5.786   4.625   1.586 -1.2924 -0.1603 -0.1553
15700TIP3    H268516   5.824   4.534   1.700 -0.6160  0.6515  0.2830
15701TIP3   OH268517   2.775   4.853   0.783  0.1237 -0.5104  0.0590
15701TIP3    H168518   2.711   4.784   0.800  1.0986 -1.3531  0.3948
15701TIP3    H268519   2.748   4.891   0.700 -0.4548 -1.2594 -0.1038
15702TIP3   OH268520   5.810   3.381   0.434 -0.4999 -0.3075 -0.2414
15702TIP3    H168521   5.761   3.299   0.441 -1.4711  0.2190 -0.6648
15702TIP3    H268522   5.814   3.398   0.340  0.5772 -0.3794 -0.2129
15703TIP3   OH268523   2.176   0.603   5.302 -0.2819 -0.5138 -0.2697
15703TIP3    H168524   2.137   0.516   5.290  0.2951 -0.4340 -3.8057
15703TIP3    H268525   2.102   0.664   5.301 -0.4524 -0.7166 -1.8842
15704TIP3   OH268526   4.559   3.412  12.641 -1.0970  0.0851  0.4448
15704TIP3    H168527   4.472   3.397  12.603 -0.4953 -2.4124 -0.1310
15704TIP3    H268528   4.615   3.429  12.565 -1.1486  2.4346  0.8679
15705TIP3   OH268529   3.795   6.203  12.950  0.8693 -0.0064  0.1474
15705TIP3    H168530   3.851   6.165  13.018 -0.3565  0.1207  1.2666
15705TIP3    H268531   3.721   6.241  12.998 -0.4129 -0.5531 -1.2870
15706TIP3   OH268532   3.799   1.451  14.403  0.0810  0.0871 -0.2294
15706TIP3    H168533   3.709   1.438  14.372  0.5291 -2.1649 -0.7133
15706TIP3    H268534   3.798   1.538  14.442 -2.2151  0.2688 -0.5631
15707TIP3   OH268535   2.664   1.815   1.190  0.1966 -0.2076  0.2715
15707TIP3    H168536   2.729   1.869   1.145  0.8802 -1.0391  0.2316
15707TIP3    H268537   2.614   1.773   1.120  0.8995 -1.0705  0.2627
15708TIP3   OH268538   3.671   4.113   4.255 -0.2943 -0.4250  0.0362
15708TIP3    H168539   3.757   4.130   4.295  0.3242  0.7788 -1.6590
15708TIP3    H268540   3.678   4.152   4.168 -2.9664  0.7018  0.2436
15709TIP3   OH268541   4.389   2.068  10.985 -0.7172  0.5595 -0.2732
15709TIP3    H168542   4.427   2.094  11.069  0.4942  0.4445 -0.7701
15709TIP3    H268543   4.314   2.013  11.009 -0.6502  0.8791  0.7289
15710TIP3   OH268544   1.870   3.247   1.207 -0.4058  0.0323  0.2346
15710TIP3    H168545   1.919   3.172   1.174 -1.4306  0.3513 -2.2405
15710TIP3    H268546   1.901   3.321   1.154 -0.6542  1.0437  1.4386
15711TIP3   OH268547   5.082   6.193  11.212 -0.6122 -0.2665  0.0799
15711TIP3    H168548   5.147   6.245  11.259 -1.9475  1.3046  0.3069
15711TIP3    H268549   5.088   6.223  11.121 -0.6384 -0.5216 -0.0070
15712TIP3   OH268550   6.077   1.756   1.507 -0.0852 -0.0188 -0.5243
15712TIP3    H168551   6.032   1.677   1.478  1.8490 -1.1580 -0.6470
15712TIP3    H268552   6.060   1.762   1.601  2.2150 -2.4306  0.1702
15713TIP3   OH268553   1.498   1.312  15.168  0.7718 -0.2911 -0.4739
15713TIP3    H168554   1.427   1.309  15.232  1.2160  0.0362  0.0464
15713TIP3    H268555   1.455   1.329  15.085  0.1801 -0.7564 -0.2701
15714TIP3   OH268556   5.987   1.211   3.882 -0.2723 -0.1420 -1.3537
15714TIP3    H168557   5.973   1.125   3.842  0.2637 -0.5847 -0.5931
15714TIP3    H268558   6.074   1.207   3.920  0.3167  1.2033 -2.4594
15715TIP3   OH268559   1.342   1.975   5.700  0.6979 -0.2393 -0.1703
15715TIP3    H168560   1.355   1.961   5.606 -0.3320  0.4964 -0.4499
15715TIP3    H268561   1.248   1.991   5.708  1.1482  2.6271  0.5518
15716TIP3   OH268562   3.774   3.174   5.970  0.2833 -0.1247  0.1439
15716TIP3    H168563   3.834   3.200   5.900 -1.0267  0.4949 -0.7927
15716TIP3    H268564   3.782   3.078   5.974  2.1969  0.0310  0.8777
15717TIP3   OH268565   6.483   4.818   3.422 -0.0714 -0.7853 -0.0546
15717TIP3    H168566   6.523   4.742   3.379 -0.7092 -1.5115  0.6076
15717TIP3    H268567   6.394   4.791   3.441  0.0851 -0.3778  1.4109
15718TIP3   OH268568   2.452   0.218   4.609 -0.1444 -0.0815  0.0234
15718TIP3    H168569   2.415   0.194   4.525 -1.0614  0.3330  0.2989
15718TIP3    H268570   2.376   0.228   4.667  0.2451  2.2790  0.2323
15719TIP3   OH268571   2.744   5.925  13.456  0.5230 -0.1051 -0.7674
15719TIP3    H168572   2.688   5.862  13.500 -1.1530  0.1401 -2.4206
15719TIP3    H268573   2.714   5.924  13.365  1.4258  2.0066 -1.1396
15720TIP3   OH268574   6.102   3.916  15.631  0.0082 -0.3781  0.3347
15720TIP3    H168575   6.127   3.889  15.719  1.1971 -0.6964 -0.0876
15720TIP3    H268576   6.066   3.836  15.591 -0.5365 -0.2325  0.5175
15721TIP3   OH268577   0.207   3.926  16.886  0.2449 -0.2561 -0.6300
15721TIP3    H168578   0.112   3.917  16.890  0.2142  0.0493 -0.6446
15721TIP3    H268579   0.240   3.858  16.945 -0.0061  0.0745 -0.0997
15722TIP3   OH268580   4.750   3.002  12.524  0.1455  0.0471  0.5201
15722TIP3    H168581   4.697   3.056  12.582  0.1444  2.6549 -1.7285
15722TIP3    H268582   4.689   2.936  12.490 -0.8578  1.0239  0.3929
15723TIP3   OH268583   1.453   5.494   0.821 -0.2033  0.3547 -0.3685
15723TIP3    H168584   1.401   5.471   0.743 -0.4006  1.1011 -0.4615
15723TIP3    H268585   1.538   5.520   0.786 -0.2082  0.4428 -0.3140
15724TIP3   OH268586   0.169   5.316  11.568 -0.0208 -0.3724 -0.2829
15724TIP3    H168587   0.146   5.223  11.566  1.0453 -0.7064  0.9089
15724TIP3    H268588   0.212   5.327  11.653 -1.9669  1.6750  0.5297
15725TIP3   OH268589   6.695   5.320  13.446 -0.3197 -0.0120  0.0574
15725TIP3    H168590   6.691   5.410  13.415 -1.7652  0.2626  0.9554
15725TIP3    H268591   6.764   5.320  13.513 -0.2149  0.3813 -0.0470
15726TIP3   OH268592   4.415   5.848   1.295 -0.6225  0.3210  0.6556
15726TIP3    H168593   4.433   5.923   1.238  1.5861 -0.7694 -0.2073
15726TIP3    H268594   4.423   5.884   1.384  4.9705  0.4949  0.4660
15727TIP3   OH268595   5.085   3.453  12.387 -0.2699  0.2020  0.0402
15727TIP3    H168596   5.076   3.358  12.394  2.8442 -0.0505  2.3118
15727TIP3    H268597   5.043   3.487  12.466  0.1874  0.5832  0.1169
15728TIP3   OH268598   4.772   4.483  14.851 -1.2881 -0.6730 -0.2989
15728TIP3    H168599   4.831   4.520  14.785 -0.7584 -0.6100  0.1954
15728TIP3    H268600   4.684   4.499  14.817 -1.0337 -0.0995 -0.7012
15729TIP3   OH268601   0.115   3.553   5.840 -0.1222  0.4193 -0.3787
15729TIP3    H168602   0.167   3.549   5.760 -0.9185  0.2331 -0.9037
15729TIP3    H268603   0.076   3.466   5.847  1.2099 -0.1031  1.1057
15730TIP3   OH268604   4.272   1.270   5.000 -0.2524  0.1182  0.4535
15730TIP3    H168605   4.361   1.261   5.033 -0.6614 -1.0970  1.2803
15730TIP3    H268606   4.246   1.358   5.026  0.1641 -0.0809  1.6034
15731TIP3   OH268607   2.745   6.593  11.750 -0.3155  0.3888  0.0423
15731TIP3    H168608   2.803   6.669  11.753  0.2618 -0.0031 -0.9771
15731TIP3    H268609   2.787   6.532  11.690 -0.0377 -1.3680  1.8923
15732TIP3   OH268610   0.859   0.818   1.706 -0.0498  0.0045  0.4283
15732TIP3    H168611   0.807   0.892   1.740 -0.4331  0.4860 -1.1085
15732TIP3    H268612   0.793   0.755   1.677  0.2228  0.2153 -0.6777
15733TIP3   OH268613   0.230   3.215  13.200 -0.9864 -0.4427 -0.6284
15733TIP3    H168614   0.201   3.144  13.143  0.6571 -1.5783 -0.1307
15733TIP3    H268615   0.296   3.174  13.257 -0.5987  1.3027  0.2316
15734TIP3   OH268616   4.423   1.908  16.092 -0.2161 -0.0598  0.1290
15734TIP3    H168617   4.347   1.866  16.052 -0.6673  0.8970 -0.0591
15734TIP3    H268618   4.498   1.864  16.054 -0.6632 -1.0300  0.3181
15735TIP3   OH268619   0.682   3.789   4.087 -0.0636 -0.3243  0.3970
15735TIP3    H168620   0.724   3.757   4.167  0.4913 -0.8779 -0.1094
15735TIP3    H268621   0.647   3.711   4.045  0.7454 -0.2104 -0.5326
15736TIP3   OH268622   0.592   4.035  17.254  0.6763  0.3996  0.2352
15736TIP3    H168623   0.679   4.075  17.248  1.5478 -1.6291 -1.9995
15736TIP3    H268624   0.532   4.106  17.231  1.6557  1.8384  1.8081
15737TIP3   OH268625   1.331   3.882   3.531 -0.5710 -0.9858 -0.1738
15737TIP3    H168626   1.363   3.796   3.559 -1.9123 -1.3213  0.3723
15737TIP3    H268627   1.237   3.881   3.550 -0.5382  0.7815  0.2752
15738TIP3   OH268628   0.186   0.221  16.857 -0.1752 -0.6642  0.0882
15738TIP3    H168629   0.275   0.228  16.821 -0.7443 -2.1015 -1.7553
15738TIP3    H268630   0.167   0.127  16.856 -1.6503 -0.4013  0.6433
15739TIP3   OH268631   0.896   6.552  16.650  0.2104 -0.4853  0.3655
15739TIP3    H168632   0.961   6.521  16.713 -1.3747 -1.5898  1.5560
15739TIP3    H268633   0.877   6.642  16.676  0.2407 -0.6309  0.8942
15740TIP3   OH268634   6.352   1.590  15.408  0.1450  0.0296 -0.8428
15740TIP3    H168635   6.446   1.588  15.393  0.6218 -0.4152  1.8155
15740TIP3    H268636   6.327   1.498  15.415 -0.0506  0.1831  0.7065
15741TIP3   OH268637   0.674   4.816  10.879 -0.1809 -0.1843 -0.4027
15741TIP3    H168638   0.623   4.736  10.861 -0.9348  0.1724  0.0942
15741TIP3    H268639   0.757   4.784  10.915 -1.2631 -0.7290  1.7586
15742TIP3   OH268640   0.924   0.184   0.027  0.2549  0.2705  0.0850
15742TIP3    H168641   0.907   0.255  -0.034 -1.2757 -1.4872 -1.6595
15742TIP3    H268642   0.853   0.189   0.091 -1.8561 -1.5568 -1.9438
15743TIP3   OH268643   4.510   0.637  17.246  0.0795 -0.0990  0.1492
15743TIP3    H168644   4.559   0.713  17.279 -1.6593  0.3180  1.9650
15743TIP3    H268645   4.469   0.600  17.324 -1.7466 -0.9598 -1.1650
15744TIP3   OH268646   6.688   2.365  13.198  0.1554  0.7052  0.1667
15744TIP3    H168647   6.652   2.409  13.121  0.2131 -0.3008 -0.4624
15744TIP3    H268648   6.611   2.348  13.253 -0.0852  0.2314 -0.3037
15745TIP3   OH268649   1.031   1.902   4.483 -0.4328  0.0328  0.4188
15745TIP3    H168650   1.087   1.973   4.450 -0.8415  1.1725  2.0508
15745TIP3    H268651   1.038   1.834   4.417  2.1505  0.5007  0.0775
15746TIP3   OH268652   5.957   5.994  14.368  0.4286  0.1358  0.2060
15746TIP3    H168653   5.879   6.039  14.402  0.7627  0.3759  0.6692
15746TIP3    H268654   5.962   5.914  14.420  0.0784 -0.2281 -0.3233
15747TIP3   OH268655   0.676   4.071  12.396  0.2854 -0.4413  0.4457
15747TIP3    H168656   0.584   4.074  12.420  0.4405 -0.1411  1.0163
15747TIP3    H268657   0.715   4.147  12.439  0.6420 -0.0741 -0.4837
15748TIP3   OH268658   4.130   1.127  16.873 -0.2419  0.1552 -0.5175
15748TIP3    H168659   4.159   1.066  16.805 -2.1202 -1.8601  0.3434
15748TIP3    H268660   4.040   1.100  16.892 -0.4762  1.9962  1.2905
15749TIP3   OH268661   3.851   3.868   5.787 -0.2360 -0.3545 -0.3905
15749TIP3    H168662   3.806   3.952   5.776  0.9103  0.5002  1.1345
15749TIP3    H268663   3.869   3.839   5.697 -2.0429  0.2277 -0.9751
15750TIP3   OH268664   2.129   3.773  15.042  0.3654 -0.2162  0.0773
15750TIP3    H168665   2.180   3.826  14.980  0.2082  0.3222  0.4052
15750TIP3    H268666   2.050   3.823  15.057 -0.2065 -0.9826 -0.3068
15751TIP3   OH268667   0.507   6.345   5.565 -0.2943  0.3568 -0.4750
15751TIP3    H168668   0.518   6.256   5.598  0.2082  0.9207  0.9166
15751TIP3    H268669   0.440   6.336   5.497 -1.8409 -0.7701  1.0966
15752TIP3   OH268670   2.711   2.667   2.170 -0.2668  0.3508  0.1809
15752TIP3    H168671   2.618   2.687   2.155 -0.2709  1.3258  1.3581
15752TIP3    H268672   2.746   2.653   2.082 -1.5684 -0.2482 -0.2740
15753TIP3   OH268673   5.228   1.139  13.206  0.2947  0.2934  0.1472
15753TIP3    H168674   5.266   1.206  13.262 -1.4370  2.1792 -0.8099
15753TIP3    H268675   5.291   1.129  13.135 -0.3734  2.5927 -0.8580
15754TIP3   OH268676   2.170   3.493   5.454 -0.1842  0.0702  0.2491
15754TIP3    H168677   2.138   3.406   5.431  0.0669  0.2474 -0.8341
15754TIP3    H268678   2.156   3.499   5.548 -3.8011  0.3194 -0.1535
15755TIP3   OH268679   4.148   5.375   1.608 -0.0275 -0.4534 -0.2066
15755TIP3    H168680   4.225   5.354   1.555 -1.5726 -1.5101 -2.1897
15755TIP3    H268681   4.139   5.470   1.602 -0.7401 -0.5993 -2.8615
15756TIP3   OH268682   2.390   0.559  14.882 -0.8125 -0.2337  0.7117
15756TIP3    H168683   2.449   0.553  14.807 -0.3444  3.3405  0.6244
15756TIP3    H268684   2.389   0.470  14.919  0.5637 -1.6168 -2.2514
15757TIP3   OH268685   3.975   3.933   2.449  0.6133  0.3478 -0.0288
15757TIP3    H168686   3.928   3.871   2.392 -1.1635 -0.1830  1.8512
15757TIP3    H268687   4.055   3.886   2.474 -1.1309 -1.7773  2.1227
15758TIP3   OH268688   4.248   5.997  13.726  0.4952  0.6288  0.3457
15758TIP3    H168689   4.331   6.042  13.713  1.0709 -0.2459  0.8611
15758TIP3    H268690   4.209   5.992  13.638  2.0058 -0.8419 -0.2992
15759TIP3   OH268691   0.329   3.740   4.029  0.3087  0.1952 -0.4372
15759TIP3    H168692   0.311   3.746   4.123 -1.2432  1.9329 -0.8046
15759TIP3    H268693   0.351   3.829   4.003  0.5163 -0.2298 -1.7834
15760TIP3   OH268694   1.934   0.932   0.411  0.1393  0.3773 -0.3441
15760TIP3    H168695   1.925   0.862   0.347  2.2383 -1.6719  1.4242
15760TIP3    H268696   1.912   0.892   0.494  2.1426  1.5320  0.8312
15761TIP3   OH268697   6.435   2.287  10.995  0.0849 -0.5749  0.0070
15761TIP3    H168698   6.479   2.231  10.931  0.3959  0.0811 -0.3626
15761TIP3    H268699   6.344   2.291  10.964  0.2335 -0.2625 -0.3918
15762TIP3   OH268700   5.584   5.172   4.229 -0.3424 -0.3159 -0.4147
15762TIP3    H168701   5.574   5.234   4.301  2.5393  1.8754 -1.6621
15762TIP3    H268702   5.634   5.100   4.266  1.1437  0.8045 -0.1517
15763TIP3   OH268703   1.187   3.154  15.458 -0.2365  0.1749 -0.0876
15763TIP3    H168704   1.158   3.078  15.408  0.2393 -0.2116  0.2230
15763TIP3    H268705   1.113   3.216  15.452 -1.0750 -0.7289  0.5704
15764TIP3   OH268706   1.889   1.580  13.699 -0.5321  0.1560 -0.2555
15764TIP3    H168707   1.885   1.492  13.736  1.4499  0.5636  1.0499
15764TIP3    H268708   1.959   1.576  13.634  1.3002  1.3000  1.5433
15765TIP3   OH268709   6.508   5.152   1.475  0.2810 -0.3361 -0.0032
15765TIP3    H168710   6.548   5.098   1.543  0.5709 -0.5238 -0.3233
15765TIP3    H268711   6.447   5.093   1.430 -0.2245 -0.1002  0.3648
15766TIP3   OH268712   1.319   1.781   1.692 -0.2953  0.5672 -0.4725
15766TIP3    H168713   1.401   1.782   1.642  0.5579 -2.6154  0.6210
15766TIP3    H268714   1.252   1.759   1.627  0.3437 -0.6196 -0.7563
15767TIP3   OH268715   4.703   3.317  15.768 -1.0477 -0.1126  0.0171
15767TIP3    H168716   4.703   3.224  15.745  1.0968  0.3337 -2.2462
15767TIP3    H268717   4.750   3.322  15.851 -1.5539 -1.0723  0.3650
15768TIP3   OH268718   1.467   5.662  14.984  0.0881 -0.0368  0.0450
15768TIP3    H168719   1.490   5.607  15.060  0.0861  0.0867  0.1350
15768TIP3    H268720   1.426   5.739  15.022  0.5558  0.2636 -0.0539
15769TIP3   OH268721   1.333   0.576  12.936 -0.4328 -0.4007  0.4154
15769TIP3    H168722   1.241   0.549  12.935  0.1310 -2.5675  1.0939
15769TIP3    H268723   1.379   0.501  12.974  1.6791  0.4382 -0.3577
15770TIP3   OH268724   5.771   4.799   5.635 -0.3981  0.0118 -0.3953
15770TIP3    H168725   5.765   4.717   5.685 -0.6825 -0.3268 -0.9792
15770TIP3    H268726   5.692   4.800   5.582 -0.3138  0.5915 -0.5143
15771TIP3   OH268727   1.968   5.398  14.154 -0.0376 -0.3566 -0.5017
15771TIP3    H168728   1.890   5.365  14.110 -0.6726 -1.0309  1.0566
15771TIP3    H268729   1.952   5.492  14.162  0.2178 -0.1758 -1.9203
15772TIP3   OH268730   6.218   2.422  16.706 -0.2788  0.1012  0.0020
15772TIP3    H168731   6.264   2.499  16.739 -0.2982  0.1072  0.0163
15772TIP3    H268732   6.183   2.449  16.621 -0.1727  0.0653 -0.0524
15773TIP3   OH268733   5.840   5.996  10.674  0.4282 -0.3458 -0.2130
15773TIP3    H168734   5.844   5.900  10.677 -0.0522 -0.3830 -0.7997
15773TIP3    H268735   5.760   6.016  10.625  1.8351  0.3229 -2.3957
15774TIP3   OH268736   5.306   5.634  16.650  0.8174  0.4232  0.5272
15774TIP3    H168737   5.352   5.703  16.602  1.0702  0.4290  0.7718
15774TIP3    H268738   5.374   5.571  16.673  0.3203 -0.8142 -1.2147
15775TIP3   OH268739   0.720   3.654  11.594 -0.1740 -0.4838 -0.0554
15775TIP3    H168740   0.727   3.562  11.621  3.3111 -0.2356  0.4209
15775TIP3    H268741   0.783   3.662  11.522  1.6110  2.0294  1.6153
15776TIP3   OH268742   1.892   3.418   6.175 -0.4935  1.0057 -0.2588
15776TIP3    H168743   1.867   3.504   6.141 -1.8528  0.6544 -0.2204
15776TIP3    H268744   1.816   3.389   6.226 -0.9286 -1.0677 -1.9060
15777TIP3   OH268745   1.808   1.723   1.781 -0.0008  0.2830 -0.0813
15777TIP3    H168746   1.813   1.628   1.784 -0.1070  0.2638 -0.5374
15777TIP3    H268747   1.722   1.744   1.816 -0.3577  0.1611 -0.8713
15778TIP3   OH268748   3.606   1.782  13.673  0.2062  0.4290 -0.0960
15778TIP3    H168749   3.640   1.789  13.762 -1.2724 -0.1392  0.5431
15778TIP3    H268750   3.684   1.768  13.619  0.8979 -2.6780  1.5011
15779TIP3   OH268751   5.847   6.216   3.891  0.8064  0.0978  0.3940
15779TIP3    H168752   5.799   6.234   3.972  1.0159 -0.8071  0.7370
15779TIP3    H268753   5.922   6.274   3.894  0.9123 -0.0607  0.9466
15780TIP3   OH268754   2.639   3.365  16.203 -0.2109 -0.8485 -0.5126
15780TIP3    H168755   2.610   3.354  16.293 -2.2429  0.4471 -0.9607
15780TIP3    H268756   2.664   3.276  16.175 -1.6078 -1.6507  0.6409
15781TIP3   OH268757   3.394   2.170   0.554 -0.6623 -0.5991 -0.3183
15781TIP3    H168758   3.403   2.092   0.499  0.8119  0.0563 -1.0701
15781TIP3    H268759   3.428   2.241   0.500  3.4512 -0.3008  2.2325
15782TIP3   OH268760   4.693   4.079  13.821  0.3680 -0.3969  0.6154
15782TIP3    H168761   4.709   4.173  13.819 -1.6605  0.0075 -1.2985
15782TIP3    H268762   4.753   4.043  13.756 -0.7588  0.0022 -0.6889
15783TIP3   OH268763   4.249   4.870   1.315 -0.2504 -0.3005 -0.6552
15783TIP3    H168764   4.343   4.866   1.335 -0.2602  0.6470 -0.3391
15783TIP3    H268765   4.246   4.886   1.221  0.0973  3.6154 -0.2040
15784TIP3   OH268766   4.781   2.878   0.545 -0.3007  0.4555  0.2511
15784TIP3    H168767   4.762   2.844   0.632  1.3301 -0.0375  0.4477
15784TIP3    H268768   4.716   2.947   0.531 -2.3655 -1.2956  0.6913
15785TIP3   OH268769   2.288   5.942  17.140  0.5214 -0.0832 -0.2646
15785TIP3    H168770   2.287   6.021  17.194  0.1203 -0.3028  0.0598
15785TIP3    H268771   2.344   5.964  17.066  1.3088  0.1278  0.3863
15786TIP3   OH268772   0.586   0.222   3.253 -0.7099 -0.1551  0.6905
15786TIP3    H168773   0.680   0.230   3.268 -0.9453  2.3049  1.3738
15786TIP3    H268774   0.578   0.170   3.173  1.1927 -0.6921  0.8045
15787TIP3   OH268775   5.872   3.201  14.173 -0.5725  0.1376 -0.3460
15787TIP3    H168776   5.824   3.158  14.102 -1.1608 -0.6454  0.5138
15787TIP3    H268777   5.928   3.132  14.209  2.2480  1.2848 -2.1286
15788TIP3   OH268778   1.931   1.966   1.264  0.1616 -0.0878  0.4665
15788TIP3    H168779   1.964   2.032   1.325  0.2145 -1.6047  2.1700
15788TIP3    H268780   1.836   1.981   1.261  0.2040  0.2245  0.6695
15789TIP3   OH268781   2.083   6.653   3.956  0.3926 -0.5338  0.2405
15789TIP3    H168782   2.054   6.744   3.964  0.8458  0.0847 -3.2427
15789TIP3    H268783   2.158   6.646   4.015 -0.2541  1.0201  1.3124
15790TIP3   OH268784   3.307   4.773  14.205 -0.2603  0.2001 -0.4198
15790TIP3    H168785   3.308   4.851  14.149 -1.1350  1.3338  1.0570
15790TIP3    H268786   3.400   4.753  14.219  0.0465  1.8974  0.3287
15791TIP3   OH268787   3.226   3.991   4.101  0.5560  0.2449  0.3604
15791TIP3    H168788   3.164   3.934   4.147  0.3885  0.3735  0.2934
15791TIP3    H268789   3.311   3.948   4.113  0.3221 -0.4624 -0.3699
15792TIP3   OH268790   0.868   1.712   6.300 -0.4900  0.4695 -0.1545
15792TIP3    H168791   0.917   1.779   6.252 -0.5197  1.9030  1.6939
15792TIP3    H268792   0.777   1.741   6.296 -1.0339 -1.2711 -2.1166
15793TIP3   OH268793   0.281   6.105   4.316 -0.1966  0.2493  0.3660
15793TIP3    H168794   0.286   6.042   4.388  3.0764  1.0391  0.9507
15793TIP3    H268795   0.260   6.188   4.358  0.5121  0.4855  0.2560
15794TIP3   OH268796   4.224   2.285  15.961  0.3502  0.1519 -0.7066
15794TIP3    H168797   4.273   2.341  16.021  1.3366 -0.1038 -1.2557
15794TIP3    H268798   4.159   2.242  16.016  1.8007 -0.7472  0.3655
15795TIP3   OH268799   0.257   1.838   0.724  0.4116 -0.5983 -0.3187
15795TIP3    H168800   0.329   1.902   0.722  1.5672 -1.8332 -0.1312
15795TIP3    H268801   0.208   1.860   0.804  2.2094 -1.3627  1.0786
15796TIP3   OH268802   4.102   3.939   3.900 -0.0723  0.1640 -0.3489
15796TIP3    H168803   4.120   3.890   3.820 -1.5929  0.8808 -1.1899
15796TIP3    H268804   4.163   3.904   3.964 -0.5278 -2.2336 -1.1219
15797TIP3   OH268805   2.239   1.056   6.097  0.3917  1.0480  0.1742
15797TIP3    H168806   2.277   1.107   6.026 -1.1752 -1.4186 -2.6611
15797TIP3    H268807   2.148   1.086   6.103  0.2294  0.5223  0.4287
15798TIP3   OH268808   3.683   5.388  13.968  0.4825 -0.0718 -0.2758
15798TIP3    H168809   3.719   5.436  14.043 -0.6263  0.4292 -0.0358
15798TIP3    H268810   3.740   5.312  13.958  2.5065  1.4345 -0.8732
15799TIP3   OH268811   6.605   1.079  14.654 -0.1383  0.2172  0.3983
15799TIP3    H168812   6.554   1.037  14.584 -0.5282 -0.2358  0.9415
15799TIP3    H268813   6.680   1.021  14.666 -1.0362 -0.7566  1.6334
15800TIP3   OH268814   4.239   4.011  12.098  0.4819 -0.2574  0.3109
15800TIP3    H168815   4.319   4.062  12.085  0.5536 -0.7732 -1.5335
15800TIP3    H268816   4.181   4.069  12.149  0.2888  2.0075 -2.2345
15801TIP3   OH268817   1.669   2.655  12.010 -0.4829  0.1128  0.5568
15801TIP3    H168818   1.619   2.698  11.940 -0.0295  1.2985  0.9357
15801TIP3    H268819   1.602   2.612  12.063 -0.8915 -0.2153 -0.2076
15802TIP3   OH268820   5.627   3.159   3.738 -0.1158  0.1170  0.5952
15802TIP3    H168821   5.594   3.213   3.809  0.8897  0.6060  0.7070
15802TIP3    H268822   5.617   3.069   3.769 -0.0519  0.3125  1.1879
15803TIP3   OH268823   0.196   4.252   1.212 -0.0792  0.1579 -0.0173
15803TIP3    H168824   0.200   4.202   1.131 -0.7906  1.2571 -0.7626
15803TIP3    H268825   0.280   4.299   1.215 -0.2733  0.5469 -0.4278
15804TIP3   OH268826   0.177   0.981   1.866  0.6226 -0.2534 -0.2066
15804TIP3    H168827   0.146   0.915   1.928 -0.1904 -0.9854 -1.3444
15804TIP3    H268828   0.144   0.951   1.781  1.1315  1.0739 -0.9012
15805TIP3   OH268829   3.683   5.754  11.297  0.3440 -0.0318 -0.5966
15805TIP3    H168830   3.662   5.735  11.206  1.3458  1.0941 -1.0816
15805TIP3    H268831   3.778   5.765  11.298  0.1961  1.3656  0.3132
15806TIP3   OH268832   1.465   5.758   4.306 -0.0592 -1.1505  0.3029
15806TIP3    H168833   1.455   5.668   4.275 -1.2511 -0.5906 -1.0091
15806TIP3    H268834   1.390   5.772   4.364 -1.4370 -0.1974 -1.5907
15807TIP3   OH268835   2.778   0.129  16.237  1.2189 -0.0877  0.1684
15807TIP3    H168836   2.716   0.091  16.176  1.8280 -0.7576 -0.0406
15807TIP3    H268837   2.838   0.058  16.259  0.7295 -0.0004  1.9242
15808TIP3   OH268838   2.043   6.069  11.941  0.0000 -0.0168 -0.2746
15808TIP3    H168839   2.104   6.142  11.932 -0.7058  0.6140  0.0213
15808TIP3    H268840   1.999   6.084  12.024 -0.7311 -0.3310 -0.5972
15809TIP3   OH268841   3.763   5.272   3.431 -0.1061  0.4939 -0.4756
15809TIP3    H168842   3.682   5.324   3.430 -0.5617 -0.1839 -2.0920
15809TIP3    H268843   3.755   5.217   3.509 -1.5397 -0.0508 -0.9678
15810TIP3   OH268844   4.021   6.321  15.220 -0.2875 -0.1006 -0.3157
15810TIP3    H168845   3.968   6.383  15.171 -0.4388 -0.1431 -0.2070
15810TIP3    H268846   4.049   6.370  15.298  0.8238  0.3058 -0.9495
15811TIP3   OH268847   5.816   5.600  11.513  0.3213  0.3633  0.2529
15811TIP3    H168848   5.816   5.651  11.594  0.7164  0.0180  0.4719
15811TIP3    H268849   5.840   5.663  11.445  3.1967  0.0315  0.8178
15812TIP3   OH268850   0.856   1.743   4.639 -0.8103 -0.2532 -0.3042
15812TIP3    H168851   0.895   1.785   4.563  0.5905 -1.1619 -0.1278
15812TIP3    H268852   0.871   1.805   4.711 -1.6523  0.3626 -0.6440
15813TIP3   OH268853   1.130   2.580  12.539 -0.6244 -0.7322 -0.2925
15813TIP3    H168854   1.069   2.654  12.544  0.0006 -0.2748  0.7588
15813TIP3    H268855   1.073   2.503  12.542 -1.3055 -0.3219 -1.7375
15814TIP3   OH268856   2.652   1.220  11.773  0.6148  0.2912 -0.0571
15814TIP3    H168857   2.686   1.152  11.716 -0.7948  0.0732 -0.6691
15814TIP3    H268858   2.679   1.302  11.732  1.8436  0.1292  0.3890
15815TIP3   OH268859   3.910   0.397  16.535 -0.1390  0.1509  0.5890
15815TIP3    H168860   3.986   0.345  16.509 -0.8786 -0.7752  0.1958
15815TIP3    H268861   3.911   0.396  16.631  1.1440  1.3781  0.6116
15816TIP3   OH268862   2.801   6.123   4.407  0.4658  0.4480 -0.3000
15816TIP3    H168863   2.722   6.133   4.460  0.5621 -0.5114  0.0516
15816TIP3    H268864   2.799   6.031   4.378  2.2580 -0.0968  1.0636
15817TIP3   OH268865   2.394   0.270  15.961 -0.0149  0.0698 -0.2404
15817TIP3    H168866   2.485   0.300  15.962 -0.1113  0.4780  1.8542
15817TIP3    H268867   2.347   0.335  15.909  0.5088  1.1964  0.6500
15818TIP3   OH268868   5.457   2.125   6.194  0.5987 -1.4230  0.1281
15818TIP3    H168869   5.513   2.049   6.208  0.0744 -2.1780 -1.5413
15818TIP3    H268870   5.463   2.142   6.100  1.6947  1.4277  0.6267
15819TIP3   OH268871   1.397   6.229   2.115 -0.2300 -0.7322  0.6308
15819TIP3    H168872   1.346   6.309   2.110 -0.6754 -1.0944 -0.9706
15819TIP3    H268873   1.488   6.258   2.100 -0.2380 -0.4001  1.1795
15820TIP3   OH268874   2.869   1.158  14.403 -0.1723 -0.2855 -0.5877
15820TIP3    H168875   2.910   1.155  14.317 -0.4141 -1.1999 -0.6784
15820TIP3    H268876   2.933   1.120  14.462 -0.1915 -0.0899 -0.4418
15821TIP3   OH268877   4.454   3.881  14.705 -0.1925 -0.0057 -0.8435
15821TIP3    H168878   4.376   3.937  14.703  0.6122  1.1742 -0.6773
15821TIP3    H268879   4.440   3.823  14.779 -0.4733  0.8904 -0.1716
15822TIP3   OH268880   4.572   2.185  15.745  0.2535 -0.1987 -0.3208
15822TIP3    H168881   4.569   2.178  15.840  0.0874  0.5406 -0.2609
15822TIP3    H268882   4.534   2.103  15.713 -0.9356  0.0970  0.2645
15823TIP3   OH268883   0.710   5.407  11.020 -0.2686  0.2658 -0.0208
15823TIP3    H168884   0.707   5.407  11.115 -1.1681  1.5479 -0.0205
15823TIP3    H268885   0.794   5.448  10.998  0.6100 -1.3265  0.1772
15824TIP3   OH268886   6.380   5.299  15.682  0.3649 -0.2172  0.4926
15824TIP3    H168887   6.426   5.359  15.624 -1.7653 -2.1236 -3.5737
15824TIP3    H268888   6.288   5.323  15.674 -0.2819 -2.4121  0.6685
15825TIP3   OH268889   1.504   5.473   2.470 -0.2650  0.0127  0.3902
15825TIP3    H168890   1.586   5.522   2.470 -0.8744  1.0941  1.1219
15825TIP3    H268891   1.438   5.538   2.494 -1.1166 -1.1545  1.3206
15826TIP3   OH268892   5.128   3.839  10.840  0.4754  0.1389 -0.4253
15826TIP3    H168893   5.054   3.792  10.878  1.1893 -0.7725 -0.1172
15826TIP3    H268894   5.089   3.894  10.772 -0.4936 -0.2117 -0.1757
15827TIP3   OH268895   5.128   4.363  13.057 -0.5747 -0.0612  0.1498
15827TIP3    H168896   5.067   4.420  13.103 -0.0587  2.2673 -1.8048
15827TIP3    H268897   5.209   4.367  13.110 -1.3881 -1.4121  1.5747
15828TIP3   OH268898   6.599   0.678   3.081 -0.5400  0.4699  0.1826
15828TIP3    H168899   6.540   0.752   3.067  0.5245  1.2057 -0.5544
15828TIP3    H268900   6.543   0.609   3.118 -1.6848  1.4046  0.2432
15829TIP3   OH268901   0.812   2.669  17.127 -0.2283 -0.5064 -0.1357
15829TIP3    H168902   0.769   2.620  17.197  0.7896 -1.4097 -0.1154
15829TIP3    H268903   0.883   2.716  17.171  0.1454 -0.7345 -0.4892
15830TIP3   OH268904   0.905   5.644  16.993  0.1369  0.2004  0.3427
15830TIP3    H168905   0.843   5.606  17.055 -1.2133 -0.9773 -1.6138
15830TIP3    H268906   0.969   5.574  16.977  0.4479  0.4773  0.3707
15831TIP3   OH268907   4.509   4.855   1.415  0.4052  0.2664  0.0966
15831TIP3    H168908   4.482   4.861   1.506  1.4973 -1.5946  0.5837
15831TIP3    H268909   4.588   4.801   1.416  1.3661  1.5204 -1.7885
15832TIP3   OH268910   6.036   6.188  12.936  0.6152 -0.2809 -0.3449
15832TIP3    H168911   6.044   6.112  12.993  1.0880  0.6483  0.8727
15832TIP3    H268912   6.117   6.188  12.885  0.4482 -0.7929 -0.6180
15833TIP3   OH268913   2.151   2.847  16.117 -0.0254 -0.3087 -0.5875
15833TIP3    H168914   2.110   2.769  16.156  0.2168 -0.0189  0.2716
15833TIP3    H268915   2.142   2.834  16.023 -1.6320 -0.4951 -0.4425
15834TIP3   OH268916   4.332   2.646   2.739 -0.5656 -0.2322 -0.1531
15834TIP3    H168917   4.293   2.691   2.814  0.2264 -0.1690  0.2228
15834TIP3    H268918   4.350   2.715   2.675 -1.3184 -0.2964 -0.4526
15835TIP3   OH268919   2.547   6.244  11.955 -0.2146 -0.1968 -0.6071
15835TIP3    H168920   2.550   6.321  11.897 -1.5306 -0.6027 -1.2647
15835TIP3    H268921   2.487   6.270  12.025 -2.1246 -1.2019 -1.7914
15836TIP3   OH268922   6.002   4.876   0.128  0.2663 -0.0782  0.6196
15836TIP3    H168923   6.074   4.818   0.102 -0.3918  0.0801 -1.7782
15836TIP3    H268924   6.043   4.960   0.145  0.7652 -0.2404  0.2314
15837TIP3   OH268925   3.194   4.232   5.582 -0.2938 -0.5989  0.6399
15837TIP3    H168926   3.106   4.204   5.609 -0.1738 -0.4736  1.1709
15837TIP3    H268927   3.221   4.167   5.517 -0.9970 -0.3294  0.0716
15838TIP3   OH268928   6.602   6.527   1.962 -0.5481 -0.0376  0.2097
15838TIP3    H168929   6.577   6.461   2.027 -1.2491  0.8165  0.8347
15838TIP3    H268930   6.520   6.550   1.918 -0.6423  1.5840  1.1341
15839TIP3   OH268931   0.974   4.813   4.312  0.1087 -0.2037 -0.1305
15839TIP3    H168932   0.936   4.783   4.394 -2.5462  1.5835 -0.5864
15839TIP3    H268933   1.008   4.733   4.271 -1.3250 -1.6322  1.2936
15840TIP3   OH268934   4.706   2.383  16.092 -0.5570  0.4105 -0.1272
15840TIP3    H168935   4.681   2.314  16.031  0.0959  1.9565 -2.2382
15840TIP3    H268936   4.750   2.336  16.163  0.5873 -1.3228 -1.8624
15841TIP3   OH268937   1.962   6.448   3.822  0.3521 -0.0277  0.1716
15841TIP3    H168938   2.000   6.514   3.880  0.1596 -1.1555  1.6399
15841TIP3    H268939   1.916   6.499   3.755 -0.0557  1.3329  1.4327
15842TIP3   OH268940   0.501   3.303   1.174 -0.9087  0.0102  0.2023
15842TIP3    H168941   0.554   3.341   1.104 -3.9933  0.8182 -1.9093
15842TIP3    H268942   0.505   3.367   1.245 -0.0638  0.6237 -0.3794
15843TIP3   OH268943   3.685   3.709   4.477 -0.0306 -0.3041 -0.1347
15843TIP3    H168944   3.778   3.703   4.453 -0.1684 -2.5438 -0.3652
15843TIP3    H268945   3.686   3.723   4.572  0.6277 -2.4024  0.2428
15844TIP3   OH268946   0.426   0.741   1.093 -0.3852 -0.0132 -0.0978
15844TIP3    H168947   0.478   0.742   1.173 -0.3437 -0.4405 -0.1196
15844TIP3    H268948   0.453   0.662   1.047 -1.2835 -0.4133  0.0468
15845TIP3   OH268949   3.074   0.742   3.599 -0.4324  0.2424 -0.4168
15845TIP3    H168950   3.042   0.774   3.683 -0.3051 -0.6911 -0.0036
15845TIP3    H268951   3.000   0.695   3.561 -0.9969  1.9344 -1.5445
15846TIP3   OH268952   5.772   4.659  13.179 -0.2677  0.1641  0.0169
15846TIP3    H168953   5.715   4.733  13.201 -0.8357 -0.3855  0.4088
15846TIP3    H268954   5.837   4.697  13.119  0.4977  1.3818  1.5338
15847TIP3   OH268955   0.006   0.871   4.821  0.2388  0.0452  0.0982
15847TIP3    H168956  -0.008   0.863   4.916 -1.5977  0.2916 -0.1164
15847TIP3    H268957   0.011   0.965   4.805  2.2626 -0.0138  0.1282
15848TIP3   OH268958   0.449   4.831   0.882  0.0405 -0.0150 -0.4235
15848TIP3    H168959   0.386   4.900   0.906  0.6805 -0.3257  2.4752
15848TIP3    H268960   0.488   4.804   0.965  2.2389 -1.5732 -1.8562
15849TIP3   OH268961   5.578   0.708   0.010 -0.5579  0.7952 -0.2611
15849TIP3    H168962   5.594   0.614  -0.006  2.9731  1.6328 -3.0497
15849TIP3    H268963   5.517   0.733  -0.059 -0.7134  0.7348 -0.1461
15850TIP3   OH268964   1.494   4.504   4.779 -0.2152 -0.3112 -0.0663
15850TIP3    H168965   1.551   4.455   4.720 -1.1431  0.5512 -1.7703
15850TIP3    H268966   1.497   4.594   4.746 -1.9559 -0.1010  0.2205
15851TIP3   OH268967   4.520   5.820   7.006 -0.1795  0.0712  0.1311
15851TIP3    H168968   4.581   5.877   6.959 -0.7759  0.8487  0.2785
15851TIP3    H268969   4.568   5.739   7.020  0.2916  0.1346 -1.0854
15852TIP3   OH268970   1.593   4.942   1.889 -0.1188 -0.8208  0.0460
15852TIP3    H168971   1.545   4.919   1.809  1.2850  0.9343 -1.3744
15852TIP3    H268972   1.645   4.864   1.908 -1.2485 -1.6477 -0.1083
15853TIP3   OH268973   1.858   4.140  11.941  0.2519 -0.2599 -0.6087
15853TIP3    H168974   1.788   4.184  11.892  1.1994  1.4685 -0.4744
15853TIP3    H268975   1.812   4.080  12.000 -0.9652 -1.7133 -2.8868
15854TIP3   OH268976   1.920   2.799  11.796 -0.5384 -0.1431  0.5217
15854TIP3    H168977   1.922   2.761  11.884  0.2141  2.8587  1.9342
15854TIP3    H268978   1.828   2.817  11.780 -0.6465 -0.4510  0.7823
15855TIP3   OH268979   4.512   3.216  11.558 -0.6600 -0.3031 -0.0912
15855TIP3    H168980   4.467   3.215  11.473  1.5284 -0.5421 -1.3484
15855TIP3    H268981   4.550   3.304  11.563 -0.1381 -0.5441  0.2558
15856TIP3   OH268982   1.871   1.870   5.808 -0.0541 -0.6675 -0.5500
15856TIP3    H168983   1.957   1.844   5.841  0.7228  0.7664 -1.3537
15856TIP3    H268984   1.840   1.935   5.871 -0.6541 -1.3431 -0.1438
15857TIP3   OH268985   4.238   0.572   1.690  0.3582  0.4387 -0.4547
15857TIP3    H168986   4.272   0.546   1.776 -0.0634  0.0772 -0.3930
15857TIP3    H268987   4.150   0.605   1.708 -0.1238 -0.5810 -0.8634
15858TIP3   OH268988   3.787   0.186  16.058 -0.4003  0.0780 -0.1914
15858TIP3    H168989   3.793   0.178  15.963 -0.3139  0.7075 -0.2423
15858TIP3    H268990   3.791   0.096  16.090  3.8183 -0.0906 -0.5366
15859TIP3   OH268991   1.604   3.089   0.971 -0.2410  0.0784 -0.0478
15859TIP3    H168992   1.521   3.055   0.936 -0.5135  0.1997  0.4757
15859TIP3    H268993   1.627   3.028   1.041  0.7014 -0.6055 -0.9256
15860TIP3   OH268994   1.997   5.792   0.458  1.0509  0.2939  0.0905
15860TIP3    H168995   2.085   5.755   0.455  1.3830  1.1250 -1.5989
15860TIP3    H268996   1.995   5.856   0.386 -1.5985 -1.2524 -1.3791
15861TIP3   OH268997   4.755   2.082  16.108  0.5240  0.0553 -0.8902
15861TIP3    H168998   4.779   2.001  16.063 -0.7394 -0.4601 -0.6983
15861TIP3    H268999   4.670   2.106  16.071  1.6818  2.3460 -2.2819
15862TIP3   OH269000   4.007   3.068  12.443 -0.1153 -0.1797 -0.5219
15862TIP3    H169001   3.960   2.986  12.453  0.0986 -0.4320 -1.4390
15862TIP3    H269002   4.098   3.042  12.427  0.1685  0.2733  0.2946
15863TIP3   OH269003   3.662   4.176  15.308  0.0747  0.5676  0.5355
15863TIP3    H169004   3.639   4.246  15.247 -1.3950 -0.0550  0.3365
15863TIP3    H269005   3.666   4.097  15.254  1.6577  0.4572  0.7685
15864TIP3   OH269006   1.991   4.123   5.664  1.0584 -0.1611 -0.5432
15864TIP3    H169007   1.913   4.110   5.610  0.1201 -0.2995  0.8013
15864TIP3    H269008   2.043   4.045   5.650  0.3210 -0.6807 -0.4538
15865TIP3   OH269009   5.567   2.700   3.605  0.1283  0.4344  0.5191
15865TIP3    H169010   5.642   2.652   3.640  0.1102 -0.0475 -0.0846
15865TIP3    H269011   5.600   2.743   3.527 -0.0481  0.8074  0.6461
15866TIP3   OH269012   5.989   5.495   5.529  0.2132  0.3242  0.0261
15866TIP3    H169013   6.068   5.444   5.547  0.9727  1.2037 -0.7041
15866TIP3    H269014   5.991   5.565   5.595  1.8243  2.2527 -1.9137
15867TIP3   OH269015   2.522   4.941  10.956 -0.1501  0.0453  0.2552
15867TIP3    H169016   2.523   5.035  10.969 -1.2737  0.2874 -1.1996
15867TIP3    H269017   2.607   4.911  10.989 -0.5421  1.2592  2.5786
15868TIP3   OH269018   4.836   1.077   2.665 -0.1098 -0.3087  0.2694
15868TIP3    H169019   4.899   1.018   2.624 -1.6052 -1.6001 -0.3059
15868TIP3    H269020   4.888   1.150   2.698  1.2870  0.4482 -3.2268
15869TIP3   OH269021   5.954   3.644  15.712  0.1701 -0.3877  0.7082
15869TIP3    H169022   6.002   3.635  15.630  1.4945 -0.2124  1.4415
15869TIP3    H269023   5.865   3.615  15.691 -0.7635  3.5115 -1.9104
15870TIP3   OH269024   5.826   3.524   3.192  0.3958  0.5115 -0.4424
15870TIP3    H169025   5.858   3.473   3.118 -0.4714 -0.1224 -0.3984
15870TIP3    H269026   5.731   3.526   3.179 -0.0904 -1.8233  1.9982
15871TIP3   OH269027   0.131   6.412   3.485 -0.0391  0.1605 -0.2817
15871TIP3    H169028   0.166   6.325   3.468  2.0778  1.0589 -0.8468
15871TIP3    H269029   0.132   6.421   3.580 -2.3579 -1.1821 -0.0623
15872TIP3   OH269030   5.728   5.269  16.512 -0.4967 -0.2100 -0.3381
15872TIP3    H169031   5.658   5.324  16.478 -0.3675  0.6975  0.7719
15872TIP3    H269032   5.808   5.320  16.495 -0.5160  0.8311  2.2047
15873TIP3   OH269033   0.277   1.759  11.514  0.6324  0.2989  0.0067
15873TIP3    H169034   0.246   1.693  11.576  1.2711  1.2346  1.3791
15873TIP3    H269035   0.329   1.710  11.450  1.0018 -0.5511  0.9409
15874TIP3   OH269036   4.173   2.606   1.328 -0.0187  0.2807  0.0442
15874TIP3    H169037   4.095   2.658   1.348 -0.2967  0.6514 -1.8781
15874TIP3    H269038   4.227   2.613   1.407 -2.6432 -1.4346  2.1769
15875TIP3   OH269039   4.519   0.718  10.888  0.0300  0.0782  0.4302
15875TIP3    H169040   4.605   0.737  10.925  0.9657  0.5773 -1.8434
15875TIP3    H269041   4.521   0.623  10.872  0.9025  0.3421 -1.2444
15876TIP3   OH269042   4.824   2.656  11.946 -0.1288 -0.3464  0.4607
15876TIP3    H169043   4.887   2.690  11.882 -0.6166 -0.2804  0.0006
15876TIP3    H269044   4.789   2.577  11.904 -0.3729 -0.3631  0.6991
15877TIP3   OH269045   1.867   6.663   2.191  0.2357  0.2836 -0.2116
15877TIP3    H169046   1.774   6.669   2.170  0.6781  2.9176 -1.7541
15877TIP3    H269047   1.891   6.574   2.163 -1.6359 -0.2099 -0.4359
15878TIP3   OH269048   5.181   0.053   4.271  0.0739 -0.0602 -0.4123
15878TIP3    H169049   5.161   0.137   4.228  1.2302 -0.4841 -1.8705
15878TIP3    H269050   5.276   0.044   4.263 -0.0751 -1.7196 -0.7029
15879TIP3   OH269051   6.212   0.875   5.575 -0.0001 -0.5044 -0.1260
15879TIP3    H169052   6.154   0.884   5.499  0.8189 -0.9208 -0.8194
15879TIP3    H269053   6.296   0.849   5.538  1.0768  1.5316  0.7013
15880TIP3   OH269054   1.087   2.572   4.326 -0.0382 -0.3380  0.0672
15880TIP3    H169055   1.037   2.594   4.247  0.3814 -1.5917 -0.5739
15880TIP3    H269056   1.132   2.653   4.349 -1.2234  0.4204 -0.1873
15881TIP3   OH269057   5.096   6.708  14.161  0.5249  0.7463 -0.4039
15881TIP3    H169058   5.051   6.762  14.096 -2.5186  0.4137  1.2443
15881TIP3    H269059   5.115   6.626  14.115 -1.6019  0.4961 -0.9589
15882TIP3   OH269060   4.810   3.504   6.407  0.2197 -0.3486  0.7765
15882TIP3    H169061   4.895   3.503   6.363 -0.3234 -1.0490 -0.2995
15882TIP3    H269062   4.746   3.505   6.336 -0.6816 -0.4305  1.5649
15883TIP3   OH269063   1.976   1.976  13.645  0.0207 -0.2090  0.8685
15883TIP3    H169064   1.929   2.041  13.592  0.7956 -0.7106 -0.4974
15883TIP3    H269065   1.919   1.960  13.720 -2.6269 -1.6555 -1.2669
15884TIP3   OH269066   3.664   0.323  10.166  0.1172 -0.3528 -0.6187
15884TIP3    H169067   3.645   0.238  10.207  0.6195 -0.3503 -0.3737
15884TIP3    H269068   3.723   0.367  10.227  0.0247  0.0901 -0.8438
15885TIP3   OH269069   4.146   3.171   4.304 -0.1579  0.0377 -0.2764
15885TIP3    H169070   4.103   3.221   4.234 -0.8596 -0.1367  0.0254
15885TIP3    H269071   4.235   3.207   4.307  0.0458 -0.3183 -1.6100
15886TIP3   OH269072   2.699   1.991   4.680 -0.2781  0.7267 -0.3359
15886TIP3    H169073   2.668   2.076   4.650 -1.0262  1.0046  1.1108
15886TIP3    H269074   2.646   1.927   4.634 -0.1331  1.0628 -0.9711
15887TIP3   OH269075   5.733   4.654   3.527  0.0539 -0.5674 -0.4500
15887TIP3    H169076   5.649   4.682   3.564 -0.0119  0.8662 -1.5592
15887TIP3    H269077   5.784   4.625   3.602 -0.2753  1.6863  0.7347
15888TIP3   OH269078   3.927   5.910   2.803 -0.2998 -0.1456 -0.8691
15888TIP3    H169079   3.861   5.872   2.861 -0.8379  2.0925  0.0966
15888TIP3    H269080   3.996   5.843   2.797 -0.3914 -0.6346  2.0804
15889TIP3   OH269081   5.034   5.942   3.098 -0.2459 -0.1594 -0.2705
15889TIP3    H169082   4.952   5.982   3.128 -1.4666 -1.9573 -1.0607
15889TIP3    H269083   5.069   5.897   3.176  0.7212  1.6647  0.4102
15890TIP3   OH269084   3.899   4.757  13.489  0.5149 -0.4998 -0.2243
15890TIP3    H169085   3.867   4.788  13.404  0.0974 -2.8589 -0.9972
15890TIP3    H269086   3.820   4.755  13.544  0.8000  1.1124  0.3076
15891TIP3   OH269087   4.878   0.593  13.503  0.2113  0.2090 -0.5775
15891TIP3    H169088   4.931   0.668  13.475  2.0633  0.3051  2.6411
15891TIP3    H269089   4.942   0.524  13.521 -1.3206 -1.6284 -1.7827
15892TIP3   OH269090   6.691   1.775  13.151  0.0776 -0.2200 -0.3287
15892TIP3    H169091   6.667   1.716  13.079  0.0885 -0.5902 -0.0295
15892TIP3    H269092   6.609   1.792  13.196  0.1590 -0.4364 -0.0951
15893TIP3   OH269093   5.292   0.207   5.983  0.4344  0.9048  0.1553
15893TIP3    H169094   5.238   0.229   6.059  0.7838  0.6342  0.4893
15893TIP3    H269095   5.247   0.133   5.943 -0.2884  1.6701 -0.4849
15894TIP3   OH269096   4.979   0.558   2.022  0.1897 -0.4105  0.1453
15894TIP3    H169097   4.932   0.560   1.939  0.8280  0.5268 -0.2137
15894TIP3    H269098   4.957   0.474   2.061 -1.7349 -0.0288 -0.0301
15895TIP3   OH269099   5.162   1.275  12.969  0.2775  0.4043  0.2104
15895TIP3    H169100   5.088   1.326  13.004  0.6799  1.6671 -0.6901
15895TIP3    H269101   5.173   1.203  13.031 -1.5127  0.3518  0.5228
15896TIP3   OH269102   3.068   4.747   2.216  0.1036  0.7395  0.6617
15896TIP3    H169103   3.092   4.786   2.300 -0.2257 -0.8337  1.5251
15896TIP3    H269104   3.148   4.753   2.163  0.8232  0.2842  1.6657
15897TIP3   OH269105   2.805   0.528   0.542 -0.1877 -0.6976  0.3606
15897TIP3    H169106   2.709   0.523   0.542 -0.3822  1.7127 -0.3629
15897TIP3    H269107   2.831   0.492   0.458 -0.7740  1.5008 -0.8528
15898TIP3   OH269108   5.628   1.043   5.243 -0.5106  0.7416 -0.7255
15898TIP3    H169109   5.555   1.015   5.298  0.3628 -0.1438  0.0505
15898TIP3    H269110   5.675   1.107   5.296  0.1052  0.1886 -0.5814
15899TIP3   OH269111   1.863   3.507   1.925  0.7053 -0.7153 -0.0892
15899TIP3    H169112   1.801   3.446   1.883  0.9474 -1.6316  0.8413
15899TIP3    H269113   1.922   3.533   1.854  0.3822 -1.3001 -0.5868
15900TIP3   OH269114   3.994   1.277  14.888  0.5997  0.3251 -0.4748
15900TIP3    H169115   3.962   1.273  14.979  1.7665  0.5961 -0.0303
15900TIP3    H269116   3.916   1.297  14.836 -0.1351 -0.0915  0.4384
15901TIP3   OH269117   0.630   2.302  12.500 -1.0493 -0.2829  0.4018
15901TIP3    H169118   0.604   2.211  12.504  2.4529 -1.3957  1.8728
15901TIP3    H269119   0.643   2.328  12.591  0.9351  0.6333 -0.0751
15902TIP3   OH269120   6.573   0.222  16.689  0.3488  0.1715  0.3643
15902TIP3    H169121   6.577   0.139  16.736  2.1935  0.6511  1.1429
15902TIP3    H269122   6.582   0.289  16.757 -0.3932  0.9976 -0.3272
15903TIP3   OH269123   3.006   6.478  12.101  0.4793  0.3092  0.3940
15903TIP3    H169124   3.078   6.431  12.059  0.1377 -1.2564  1.4613
15903TIP3    H269125   2.946   6.409  12.128 -0.4805  1.4520  1.2596
15904TIP3   OH269126   4.352   1.684   0.417  0.2099  0.1288  0.0004
15904TIP3    H169127   4.409   1.653   0.347 -0.7574 -2.5068  0.2460
15904TIP3    H269128   4.402   1.752   0.461  2.3085 -0.6565 -1.0241
15905TIP3   OH269129   1.321   3.731  16.295  0.2187 -0.8486  0.2961
15905TIP3    H169130   1.266   3.754  16.220 -0.6605  0.4898  1.3043
15905TIP3    H269131   1.372   3.656  16.266 -1.8298 -1.8750 -0.8492
15906TIP3   OH269132   3.010   1.044   5.246  0.9719  0.0486  0.1499
15906TIP3    H169133   2.977   1.086   5.166  0.4585 -0.9402 -0.1721
15906TIP3    H269134   2.948   1.070   5.314 -0.7984 -2.1274 -0.5301
15907TIP3   OH269135   5.591   4.373  16.449  0.0394 -0.4840  0.2232
15907TIP3    H169136   5.531   4.406  16.516  1.2232  0.1145  1.0007
15907TIP3    H269137   5.655   4.443  16.436  0.1807 -0.8218 -1.1253
15908TIP3   OH269138   4.648   5.643  14.386 -0.2225  0.7455 -0.0119
15908TIP3    H169139   4.595   5.568  14.360  1.3757 -0.9542  1.3780
15908TIP3    H269140   4.584   5.713  14.402 -1.6122  0.4738 -3.5349
15909TIP3   OH269141   4.734   1.804  16.030 -0.0104  0.0173  0.1766
15909TIP3    H169142   4.675   1.738  15.993  0.2763  0.1992 -0.6325
15909TIP3    H269143   4.819   1.760  16.035  0.0780  0.1772  0.0837
15910TIP3   OH269144   3.562   5.247   0.339 -0.0970 -0.1610 -0.3089
15910TIP3    H169145   3.627   5.298   0.388 -0.3434 -0.5923  0.4735
15910TIP3    H269146   3.484   5.248   0.394 -0.5292 -0.2596 -0.9108
15911TIP3   OH269147   5.733   0.549   0.488 -0.4054 -0.0372  0.1290
15911TIP3    H169148   5.696   0.544   0.576  1.2478  0.0388  0.8783
15911TIP3    H269149   5.658   0.539   0.429 -1.4538 -0.7691  1.5344
15912TIP3   OH269150   2.024   5.830   4.640  0.1233 -0.7515 -0.5476
15912TIP3    H169151   2.071   5.808   4.720  0.8020 -1.9006 -1.2437
15912TIP3    H269152   1.933   5.805   4.657  0.5922 -2.7632 -0.7616
15913TIP3   OH269153   4.999   2.895  15.242 -0.4338  0.1058 -0.0676
15913TIP3    H169154   5.087   2.862  15.228  0.9986  2.8575  1.6289
15913TIP3    H269155   4.949   2.864  15.166  1.9681 -1.5015 -1.0867
15914TIP3   OH269156   5.872   5.583  13.835  0.4058 -0.1228 -0.0186
15914TIP3    H169157   5.912   5.670  13.834  1.1598 -0.4521  0.3265
15914TIP3    H269158   5.888   5.548  13.748  0.6610 -0.1576  0.0419
15915TIP3   OH269159   2.008   0.016  12.259 -0.1075  0.3507 -0.4450
15915TIP3    H169160   2.009   0.013  12.163 -1.3792  0.8469 -0.4932
15915TIP3    H269161   2.084   0.070  12.282  0.0011  0.5259 -1.1929
15916TIP3   OH269162   6.354   3.093   4.624  0.0333  0.4153 -0.1627
15916TIP3    H169163   6.284   3.056   4.570  0.4508 -0.3830 -0.1700
15916TIP3    H269164   6.412   3.138   4.562  0.0124  0.2973 -0.2676
15917TIP3   OH269165   4.506   2.860   0.178  0.3243 -0.0888 -0.0438
15917TIP3    H169166   4.577   2.796   0.186 -0.4540 -1.0686 -0.7116
15917TIP3    H269167   4.428   2.807   0.164 -0.4655  0.9937  0.1930
15918TIP3   OH269168   0.291   2.457  14.161  0.0830  0.3054 -0.2517
15918TIP3    H169169   0.251   2.440  14.076  0.1047  0.9566 -0.3985
15918TIP3    H269170   0.311   2.370  14.196  1.4424  0.0308 -1.5712
15919TIP3   OH269171   4.499   1.978   1.822 -0.6025  0.5733 -0.2097
15919TIP3    H169172   4.411   1.957   1.854 -0.1088  1.4457  1.8790
15919TIP3    H269173   4.506   2.073   1.832  1.5465  0.2470  2.4562
15920TIP3   OH269174   1.500   3.128   4.646  0.0040 -0.4555 -0.2687
15920TIP3    H169175   1.561   3.148   4.717 -1.3130 -1.1950  1.1419
15920TIP3    H269176   1.550   3.072   4.587  0.3165 -2.3056  1.6218
15921TIP3   OH269177   2.019   4.827   3.329  0.2928  0.1760  0.0254
15921TIP3    H169178   1.939   4.879   3.336  0.9060  1.5076 -1.9054
15921TIP3    H269179   2.011   4.782   3.245  1.6797  0.5558 -0.3398
15922TIP3   OH269180   2.476   4.764  14.054  0.4884  0.0239 -0.1925
15922TIP3    H169181   2.465   4.812  13.972  0.8070  1.2862  0.4794
15922TIP3    H269182   2.551   4.706  14.039  0.5287  0.2301 -0.7955
15923TIP3   OH269183   5.015   3.627  14.455 -0.5998  0.0846  0.6244
15923TIP3    H169184   5.088   3.647  14.397 -1.1325 -0.0473 -0.1044
15923TIP3    H269185   5.038   3.541  14.492 -1.0117 -0.6257 -0.6740
15924TIP3   OH269186   6.032   3.502   1.258  0.6979  0.2721  0.2813
15924TIP3    H169187   5.961   3.442   1.279  0.5913  0.3734  0.2160
15924TIP3    H269188   5.995   3.589   1.274 -0.3554  0.5563 -2.8964
15925TIP3   OH269189   5.484   5.131  14.602 -0.3019 -0.0792  0.2072
15925TIP3    H169190   5.505   5.137  14.509  1.2445 -2.1795  0.3345
15925TIP3    H269191   5.557   5.176  14.646 -0.9122  0.7148  0.4258
15926TIP3   OH269192   2.928   4.457   6.581 -0.2023 -0.0418  0.2829
15926TIP3    H169193   2.983   4.385   6.611 -0.6289 -0.3813  0.2487
15926TIP3    H269194   2.866   4.418   6.521  0.8201  0.6847 -1.3085
15927TIP3   OH269195   5.899   3.637  16.440  0.4794  0.0365  0.4640
15927TIP3    H169196   5.894   3.730  16.418  0.2557  0.3106  1.6042
15927TIP3    H269197   5.811   3.615  16.469  0.3841 -0.6886 -0.3414
15928TIP3   OH269198   0.520   0.553  14.143 -0.3965 -0.4392 -0.0892
15928TIP3    H169199   0.493   0.631  14.094 -0.5450 -1.0191 -0.9580
15928TIP3    H269200   0.608   0.534  14.110 -0.4181 -0.7194  0.0143
15929TIP3   OH269201   6.087   2.443  15.667  0.4350  0.2097  0.2208
15929TIP3    H169202   6.135   2.524  15.652  0.5439  0.0950 -0.0571
15929TIP3    H269203   6.142   2.374  15.629  1.0763 -0.1994  1.7862
15930TIP3   OH269204   6.070   5.701   0.663 -0.2083 -0.4063 -0.5812
15930TIP3    H169205   6.084   5.608   0.680 -1.1330 -0.8780 -2.1548
15930TIP3    H269206   5.982   5.719   0.699 -0.3066 -0.3092 -0.8646
15931TIP3   OH269207   0.825   0.748  13.220 -0.1975  0.0495 -0.1089
15931TIP3    H169208   0.893   0.689  13.251 -0.9423 -1.3643 -1.0434
15931TIP3    H269209   0.856   0.779  13.135 -0.1484  0.4326  0.0455
15932TIP3   OH269210   2.306   2.442  15.555  0.1119 -0.1553  0.1171
15932TIP3    H169211   2.232   2.482  15.509  0.5304  0.9049  0.3244
15932TIP3    H269212   2.273   2.358  15.586 -0.3946 -0.5981 -1.5237
15933TIP3   OH269213   2.443   2.771  12.826  0.4944  0.2747  0.1523
15933TIP3    H169214   2.517   2.781  12.886  0.5468  0.0890  0.1183
15933TIP3    H269215   2.436   2.856  12.783  1.0493  0.1129 -0.2649
15934TIP3   OH269216   0.537   2.000  16.365  0.1240  0.0540 -0.1827
15934TIP3    H169217   0.515   1.909  16.384 -0.0905  0.2356  0.4744
15934TIP3    H269218   0.630   2.008  16.388  0.4402 -0.2705 -1.2929
15935TIP3   OH269219   1.117   3.449   0.153  0.7306  0.1555  0.3883
15935TIP3    H169220   1.068   3.532   0.153  0.7905  0.2831 -2.0486
15935TIP3    H269221   1.188   3.464   0.090  1.8621 -1.1557  1.3063
15936TIP3   OH269222   0.838   4.291  15.520  0.2570 -0.5906 -0.1298
15936TIP3    H169223   0.851   4.303  15.426 -0.1382  0.3713 -0.0710
15936TIP3    H269224   0.805   4.375  15.551  2.3009 -0.2346  1.2431
15937TIP3   OH269225   5.090   3.710   6.336  0.3472  0.0566  0.0727
15937TIP3    H169226   5.104   3.804   6.337  1.4916 -0.1034  0.9955
15937TIP3    H269227   5.117   3.682   6.249 -1.4120  0.7478 -0.7477
15938TIP3   OH269228   5.681   2.153  13.633  0.4514  0.2716 -0.1098
15938TIP3    H169229   5.770   2.122  13.648  0.1003 -0.7526 -0.0756
15938TIP3    H269230   5.677   2.170  13.539  0.6972  0.3574 -0.1055
15939TIP3   OH269231   6.327   5.733  16.785  0.4414  0.3039 -0.1852
15939TIP3    H169232   6.279   5.650  16.796  0.1303  0.5513  0.3299
15939TIP3    H269233   6.415   5.706  16.760  0.1887 -0.1714 -0.5893
15940TIP3   OH269234   1.338   3.738  11.850 -0.1299 -0.3805 -0.4073
15940TIP3    H169235   1.267   3.676  11.834  0.8467 -1.6530  0.0613
15940TIP3    H269236   1.330   3.802  11.780 -2.2470 -0.0094  0.0944
15941TIP3   OH269237   1.019   3.415   4.670 -0.1259  0.3934  1.2052
15941TIP3    H169238   1.011   3.491   4.612 -3.7425 -1.5021 -1.1512
15941TIP3    H269239   1.094   3.367   4.636 -0.5921  0.6652 -0.3095
15942TIP3   OH269240   1.573   4.083  10.949  0.4529  0.2870  0.6398
15942TIP3    H169241   1.502   4.051  10.892  2.0960 -1.6971 -0.4411
15942TIP3    H269242   1.613   4.003  10.983  3.9347  1.1332 -1.0544
15943TIP3   OH269243   1.007   1.798   0.064 -0.0351 -0.2664 -0.1904
15943TIP3    H169244   0.914   1.778   0.073  0.0566 -0.8195 -0.3715
15943TIP3    H269245   1.045   1.716   0.031  0.3390  0.2836 -1.1772
15944TIP3   OH269246   3.365   2.324  13.101  0.4433  0.5162  0.4383
15944TIP3    H169247   3.314   2.271  13.040 -1.8087  1.0708  1.7226
15944TIP3    H269248   3.430   2.263  13.137 -0.7014 -0.8318  0.2946
15945TIP3   OH269249   1.949   1.826   4.624  0.1423 -0.0932 -0.5057
15945TIP3    H169250   1.928   1.913   4.588 -1.7258 -0.1073  0.4487
15945TIP3    H269251   1.875   1.771   4.600  0.2046 -0.8273  0.8894
15946TIP3   OH269252   5.465   6.765   5.542  0.2997  0.8056 -0.1443
15946TIP3    H169253   5.421   6.831   5.596  0.9404  0.8607  0.3337
15946TIP3    H269254   5.405   6.748   5.470 -0.2580  1.2683  0.2025
15947TIP3   OH269255   2.050   5.923  16.884 -0.1607  0.2061  0.7100
15947TIP3    H169256   2.051   5.853  16.818  0.9859  1.1599 -0.3204
15947TIP3    H269257   2.095   5.996  16.843 -0.4212  1.2226  2.1526
15948TIP3   OH269258   6.507   4.507   3.436  0.1985  0.3707  0.4225
15948TIP3    H169259   6.602   4.514   3.441  0.3851 -0.7617 -0.9925
15948TIP3    H269260   6.490   4.461   3.354 -1.6622  2.2771 -0.3545
15949TIP3   OH269261   3.600   2.804  13.517  0.3403 -0.0664  0.3819
15949TIP3    H169262   3.641   2.871  13.572 -0.2621 -0.3841  1.2394
15949TIP3    H269263   3.589   2.847  13.432 -0.6197  1.1487  1.0916
15950TIP3   OH269264   5.124   4.288   4.661  0.2864  0.0603 -0.0763
15950TIP3    H169265   5.171   4.244   4.590 -0.6136  0.0330 -0.6678
15950TIP3    H269266   5.174   4.369   4.676  0.9481 -0.3228 -0.1728
15951TIP3   OH269267   0.640   5.575  15.601  0.1126 -0.2653 -0.5504
15951TIP3    H169268   0.593   5.651  15.566  1.8291  0.3235 -1.7765
15951TIP3    H269269   0.577   5.504  15.599 -1.2120  0.8654 -0.4637
15952TIP3   OH269270   1.324   4.967  13.709  0.7136 -0.3887  0.1384
15952TIP3    H169271   1.293   5.026  13.640 -0.1945 -0.1531  0.7266
15952TIP3    H269272   1.268   4.987  13.784  1.5494 -0.7851  0.8878
15953TIP3   OH269273   2.419   2.827   1.167 -0.2943  0.1151  0.4343
15953TIP3    H169274   2.436   2.740   1.131 -1.0015  0.0905  0.1338
15953TIP3    H269275   2.429   2.886   1.092 -1.9716  0.0435  0.1102
15954TIP3   OH269276   1.673   5.802  13.466 -0.0352 -0.3945 -0.6111
15954TIP3    H169277   1.708   5.830  13.550  1.3665 -2.1347 -0.5637
15954TIP3    H269278   1.712   5.861  13.402  2.4222 -1.7225 -0.4572
15955TIP3   OH269279   6.191   0.816   2.489 -0.3521 -0.1437 -0.0666
15955TIP3    H169280   6.109   0.851   2.524 -0.2746  0.1535 -0.1843
15955TIP3    H269281   6.204   0.863   2.406 -0.0077 -0.1144  0.0041
15956TIP3   OH269282   2.341   4.913   1.800  0.4818  0.5718  0.3841
15956TIP3    H169283   2.422   4.939   1.843  1.0190 -0.4863  0.0650
15956TIP3    H269284   2.326   4.823   1.829  0.4333  0.1126 -0.9822
15957TIP3   OH269285   6.563   4.539  14.801 -0.0375  0.4129 -0.2105
15957TIP3    H169286   6.549   4.578  14.715  2.9264  1.8024 -0.2239
15957TIP3    H269287   6.613   4.459  14.783  1.1947  1.0633  0.1816
15958TIP3   OH269288   1.819   2.282   3.317  0.7398  0.3903 -0.2472
15958TIP3    H169289   1.817   2.378   3.314  0.1432  0.4607  1.2017
15958TIP3    H269290   1.739   2.256   3.273  0.8157  0.5693 -0.4938
15959TIP3   OH269291   3.667   2.204   3.761 -0.6719 -0.4426 -0.0830
15959TIP3    H169292   3.646   2.196   3.668 -0.8636  2.3756 -0.3661
15959TIP3    H269293   3.701   2.118   3.785  0.5346 -0.9209 -3.0531
15960TIP3   OH269294   1.385   1.707  11.323 -0.0813  0.4444 -0.0837
15960TIP3    H169295   1.323   1.635  11.326  0.0623  0.3076 -0.3271
15960TIP3    H269296   1.451   1.685  11.389 -0.4297  0.7226  0.3643
15961TIP3   OH269297   3.805   1.099  11.468 -0.1654  0.0767  0.0775
15961TIP3    H169298   3.804   1.078  11.562 -0.5768 -0.4492 -0.0400
15961TIP3    H269299   3.819   1.194  11.465 -0.2269  0.1094  0.6749
15962TIP3   OH269300   6.451   5.144  12.131  0.3237  0.3984 -0.6101
15962TIP3    H169301   6.361   5.126  12.158 -0.0927  1.9941 -0.8179
15962TIP3    H269302   6.467   5.085  12.058 -1.0505  1.0484 -1.4697
15963TIP3   OH269303   3.546   0.522  15.800 -0.0768  0.3401  0.6629
15963TIP3    H169304   3.558   0.438  15.845  1.2326  0.3644  0.4157
15963TIP3    H269305   3.635   0.557  15.792 -0.2657  0.4580 -1.6709
15964TIP3   OH269306   5.105   2.382   2.617 -0.0922  0.1438 -0.2092
15964TIP3    H169307   5.062   2.300   2.641  2.0523 -1.1433 -0.5309
15964TIP3    H269308   5.039   2.450   2.634 -2.1731 -1.6803 -0.5908
15965TIP3   OH269309   5.734   6.722   4.370  0.7133 -0.2135  0.2418
15965TIP3    H169310   5.812   6.681   4.409  1.8607  0.7048 -1.0151
15965TIP3    H269311   5.759   6.739   4.279 -1.1883 -0.4538 -0.3652
15966TIP3   OH269312   5.373   3.735  11.209 -0.3588  0.5204  1.0845
15966TIP3    H169313   5.366   3.827  11.183  1.7150  0.6837  0.9327
15966TIP3    H269314   5.346   3.686  11.131  1.1826  1.0194  0.1945
15967TIP3   OH269315   4.945   0.377   3.837 -0.1611  0.4593  0.1817
15967TIP3    H169316   4.931   0.424   3.919  2.6900 -2.0536  2.3197
15967TIP3    H269317   5.013   0.427   3.792 -0.0366  0.5810  0.5022
15968TIP3   OH269318   4.879   4.059  13.626 -0.5114  0.6358 -0.1761
15968TIP3    H169319   4.956   4.112  13.647  1.3017 -2.2802  1.1669
15968TIP3    H269320   4.913   3.991  13.567 -1.1223 -2.6523  2.9218
15969TIP3   OH269321   6.623   0.438  13.230  0.0882 -0.5180 -0.6635
15969TIP3    H169322   6.700   0.493  13.213 -0.9868  1.1457 -0.3607
15969TIP3    H269323   6.553   0.500  13.250 -1.0474 -2.0334  0.2973
15970TIP3   OH269324   2.263   4.642   1.170  0.0061 -0.0407  0.0444
15970TIP3    H169325   2.222   4.556   1.159  1.4353 -0.6773 -0.5547
15970TIP3    H269326   2.238   4.670   1.258 -1.2110 -0.6594 -0.0845
15971TIP3   OH269327   1.410   4.709   3.096  0.0426  0.2413 -0.3021
15971TIP3    H169328   1.389   4.784   3.040  0.3379 -0.1288 -0.9327
15971TIP3    H269329   1.420   4.745   3.184 -1.7535  0.6353 -0.2396
15972TIP3   OH269330   4.852   3.189   3.432 -0.0181  0.5362 -0.2047
15972TIP3    H169331   4.854   3.119   3.367 -1.6485  0.0925  0.1647
15972TIP3    H269332   4.931   3.175   3.485 -0.0688 -0.7421 -0.4370
15973TIP3   OH269333   3.364   0.328   0.436 -0.0796 -0.0288 -0.2029
15973TIP3    H169334   3.284   0.289   0.470  0.2936 -1.3909 -0.7814
15973TIP3    H269335   3.335   0.401   0.382 -0.7392  1.3452  1.8963
15974TIP3   OH269336   6.428   4.385   3.664  0.2825 -0.0269 -0.8506
15974TIP3    H169337   6.490   4.313   3.668  1.2278  0.7493 -0.9843
15974TIP3    H269338   6.459   4.439   3.591  0.5872  1.3619  0.2613
15975TIP3   OH269339   0.558   1.583   4.509 -0.2826  0.0604 -0.1249
15975TIP3    H169340   0.533   1.672   4.531  0.5422  0.3408 -0.2792
15975TIP3    H269341   0.544   1.533   4.589  2.8344  1.0874  1.2136
15976TIP3   OH269342   6.146   4.327  14.306  0.6785  0.1367 -0.0743
15976TIP3    H169343   6.113   4.368  14.227  0.7972  0.4954  0.0622
15976TIP3    H269344   6.241   4.335  14.301  0.6763  0.3762  0.2189
15977TIP3   OH269345   2.055   2.323  10.990  0.6871 -0.1391  0.2502
15977TIP3    H169346   2.111   2.301  10.916 -0.4955 -1.6926 -0.2273
15977TIP3    H269347   2.085   2.410  11.017  1.4280  0.2836 -1.7623
15978TIP3   OH269348   0.396   0.817   5.237 -0.2369  0.0401  0.2281
15978TIP3    H169349   0.312   0.816   5.283 -0.5628  1.0640 -0.3189
15978TIP3    H269350   0.424   0.909   5.238 -1.2269  0.5323 -3.3057
15979TIP3   OH269351   6.301   0.076   2.601  0.3037  0.0935  0.3270
15979TIP3    H169352   6.230   0.024   2.641  0.7548 -1.6026 -0.9831
15979TIP3    H269353   6.281   0.166   2.627 -2.4609 -0.2744 -0.1349
15980TIP3   OH269354   2.406   4.311   6.694 -0.1055  0.0064  0.0759
15980TIP3    H169355   2.422   4.318   6.600 -2.0857  0.7662 -0.2598
15980TIP3    H269356   2.491   4.326   6.734  0.4012  1.8116 -1.5350
15981TIP3   OH269357   5.449   4.246   5.739  0.1659 -0.5147  0.1367
15981TIP3    H169358   5.376   4.206   5.788  0.2502 -1.0521 -0.1645
15981TIP3    H269359   5.525   4.236   5.798  0.0675 -0.2798  0.3019
15982TIP3   OH269360   1.152   4.968   5.488  0.7608  0.0240  0.4715
15982TIP3    H169361   1.138   4.992   5.396  3.0152 -0.8747 -0.1959
15982TIP3    H269362   1.209   4.891   5.484 -0.3432 -0.9922  2.6318
15983TIP3   OH269363   4.034   5.625  16.447 -0.2691  0.5370 -0.2686
15983TIP3    H169364   4.008   5.630  16.355  0.4380  3.7201 -0.4116
15983TIP3    H269365   4.123   5.660  16.449  0.3158 -0.8833  1.4765
15984TIP3   OH269366   5.167   3.984  12.058 -0.2952  0.3273  0.4719
15984TIP3    H169367   5.184   4.042  11.983  1.9192 -0.1206  0.5538
15984TIP3    H269368   5.148   3.899  12.018  0.6901  0.1344  0.3919
15985TIP3   OH269369   1.540   6.016  15.135  0.2801 -0.2225 -0.1208
15985TIP3    H169370   1.606   5.973  15.080 -0.1814  0.4972 -1.2772
15985TIP3    H269371   1.591   6.065  15.200  0.8305 -1.2740  0.2625
15986TIP3   OH269372   3.691   2.743   2.979 -0.5901 -0.0034  0.2562
15986TIP3    H169373   3.714   2.835   2.974  1.5783 -0.5245 -0.4852
15986TIP3    H269374   3.771   2.699   3.006 -0.8490 -1.8979 -1.7028
15987TIP3   OH269375   1.735   3.347  15.210 -0.0729  0.2421 -0.1458
15987TIP3    H169376   1.786   3.290  15.268 -0.9869 -0.8719 -0.4174
15987TIP3    H269377   1.671   3.388  15.268 -1.5668 -1.5362 -0.4275
15988TIP3   OH269378   3.909   4.326   6.195 -0.0981  0.1976  0.0302
15988TIP3    H169379   3.821   4.306   6.226 -0.2241 -1.6356 -1.3683
15988TIP3    H269380   3.919   4.276   6.114  2.2077  0.4034  0.1018
15989TIP3   OH269381   0.130   2.378  11.443  0.3150 -0.2250  0.0763
15989TIP3    H169382   0.067   2.440  11.480 -1.2899 -1.5750 -0.2686
15989TIP3    H269383   0.148   2.411  11.355  0.4288  0.3998  0.3292
15990TIP3   OH269384   3.917   3.485  13.358  0.3480  0.1533 -0.1763
15990TIP3    H169385   3.927   3.555  13.294  2.7098 -1.8005 -2.1515
15990TIP3    H269386   3.986   3.501  13.422 -1.2022  1.3741  1.2952
15991TIP3   OH269387   6.010   0.247   0.964  0.1857  0.1741 -0.1462
15991TIP3    H169388   5.969   0.332   0.978  0.2362  0.4851 -1.7044
15991TIP3    H269389   6.099   0.268   0.935  0.8539 -0.4646  1.3279
15992TIP3   OH269390   5.849   0.436  11.272  0.1904 -0.0835 -0.2451
15992TIP3    H169391   5.881   0.489  11.200  2.3835 -1.1954 -0.1652
15992TIP3    H269392   5.794   0.369  11.231  0.3300  0.0940 -0.7182
15993TIP3   OH269393   3.931   0.162  13.245  0.3115  0.3994  0.5157
15993TIP3    H169394   3.982   0.127  13.171 -0.6333  0.0900 -0.0044
15993TIP3    H269395   3.991   0.223  13.288  0.9358  0.4828 -0.4291
15994TIP3   OH269396   2.627   1.822   5.936 -0.2591  0.6320  0.4112
15994TIP3    H169397   2.635   1.874   5.857 -1.0682 -0.5114 -0.4492
15994TIP3    H269398   2.714   1.827   5.977  0.2933  0.9143 -0.7496
15995TIP3   OH269399   1.723   5.746  14.692  0.6028 -0.3950 -0.9500
15995TIP3    H169400   1.747   5.659  14.724 -0.2296 -0.1868  0.3161
15995TIP3    H269401   1.629   5.752  14.708  0.4121  0.2782 -2.1913
15996TIP3   OH269402   1.635   6.236   0.942  0.2197 -0.3702  0.4160
15996TIP3    H169403   1.666   6.247   0.852  0.4111 -2.0798  0.2322
15996TIP3    H269404   1.543   6.263   0.939  0.7179  1.4063  0.1696
15997TIP3   OH269405   5.270   3.804   3.967  0.3452 -0.0293 -0.4010
15997TIP3    H169406   5.298   3.847   3.886  1.3724  0.7534  0.3424
15997TIP3    H269407   5.341   3.821   4.029 -0.9421  0.3769  1.0185
15998TIP3   OH269408   1.740   1.764  14.179 -0.2986 -1.3882  0.5288
15998TIP3    H169409   1.745   1.778  14.084 -0.2058 -2.3414  0.3826
15998TIP3    H269410   1.830   1.778  14.210 -0.5305 -0.0552  0.6369
15999TIP3   OH269411   4.379   6.617   4.784  0.3132  0.2907 -0.3033
15999TIP3    H169412   4.424   6.551   4.731  0.3189  1.4571 -1.8076
15999TIP3    H269413   4.381   6.697   4.730 -2.3232  0.7622  0.1670
16000TIP3   OH269414   4.964   6.673  14.418  0.5752  0.3050  0.0865
16000TIP3    H169415   4.884   6.725  14.424 -1.5358 -2.4610 -1.7020
16000TIP3    H269416   4.998   6.690  14.330  1.1847  0.3601  0.3206
16001TIP3   OH269417   3.336   5.343   5.793  0.0959 -0.2371 -0.2818
16001TIP3    H169418   3.333   5.412   5.859  0.7989 -1.0525  0.6461
16001TIP3    H269419   3.429   5.325   5.780 -0.0513 -0.4523 -1.1177
16002TIP3   OH269420   4.285   2.548  14.576 -0.2605  0.0797 -0.3425
16002TIP3    H169421   4.355   2.599  14.618  0.5248 -1.2390  0.0073
16002TIP3    H269422   4.220   2.614  14.550  0.6911  1.2483  0.1235
16003TIP3   OH269423   6.264   5.497   1.074 -0.0922  0.0036 -0.1583
16003TIP3    H169424   6.332   5.490   1.008  0.7530 -0.8348  0.7626
16003TIP3    H269425   6.291   5.436   1.143 -1.6278 -0.1385  0.3622
16004TIP3   OH269426   0.652   3.147   3.655 -0.1831 -0.8068  0.2615
16004TIP3    H169427   0.562   3.179   3.656  0.8113  2.3274 -0.1197
16004TIP3    H269428   0.678   3.142   3.747 -0.0203  0.7730  0.3327
16005TIP3   OH269429   1.727   1.202  15.856 -0.7508 -0.1496  0.1280
16005TIP3    H169430   1.752   1.229  15.944 -1.0599 -0.4277  0.3014
16005TIP3    H269431   1.718   1.284  15.807  0.8268 -0.0477 -0.0356
16006TIP3   OH269432   2.079   2.062   3.013  0.6054  0.1923  0.1226
16006TIP3    H169433   1.996   2.107   2.995  0.3627 -1.6543 -4.9767
16006TIP3    H269434   2.053   1.972   3.033  1.3535  0.1039  0.7207
16007TIP3   OH269435   4.305   4.787  11.579  0.1711 -0.1303  0.3830
16007TIP3    H169436   4.257   4.840  11.515 -0.1341  0.7849  1.3324
16007TIP3    H269437   4.263   4.701  11.576 -1.8809  0.7515  1.4890
16008TIP3   OH269438   3.253   4.019   0.861 -0.1060  0.2848 -0.0911
16008TIP3    H169439   3.317   4.009   0.791 -0.0080  3.1441 -0.5338
16008TIP3    H269440   3.269   4.107   0.896 -1.2387 -0.4249  2.4419
16009TIP3   OH269441   4.899   6.455  15.478 -0.7416  0.0596  0.4806
16009TIP3    H169442   4.923   6.423  15.565  1.7787  0.9794  0.1884
16009TIP3    H269443   4.932   6.389  15.418  0.7918  1.1456  0.0813
16010TIP3   OH269444   2.618   0.433   4.567 -0.0157 -0.0172 -0.4634
16010TIP3    H169445   2.545   0.381   4.600  0.5860 -0.6416 -0.0833
16010TIP3    H269446   2.688   0.369   4.553  0.6055  0.6339 -0.3917
16011TIP3   OH269447   2.350   0.226   3.350  0.2169 -0.4285 -0.3243
16011TIP3    H169448   2.276   0.180   3.390  0.6230 -0.6081  0.2414
16011TIP3    H269449   2.375   0.170   3.277  1.0703 -1.4433  0.7044
16012TIP3   OH269450   4.148   4.506   4.921 -0.0790 -0.3034  0.6466
16012TIP3    H169451   4.233   4.470   4.894  0.5004  0.1204  1.8587
16012TIP3    H269452   4.102   4.432   4.959  0.0318 -0.3814  0.6299
16013TIP3   OH269453   3.765   2.394   3.956 -0.4028 -0.0300 -0.3463
16013TIP3    H169454   3.737   2.483   3.933  2.3466  0.3334 -2.8041
16013TIP3    H269455   3.722   2.339   3.891 -0.2968 -0.2299 -0.2444
16014TIP3   OH269456   2.694   3.045  17.242  0.2298 -0.6199  0.4654
16014TIP3    H169457   2.749   2.997  17.303 -0.2035 -1.9056 -0.1290
16014TIP3    H269458   2.620   2.987  17.225  0.4699 -0.4102 -1.4913
16015TIP3   OH269459   1.039   2.292   4.017 -0.4485  0.2148  0.4039
16015TIP3    H169460   0.962   2.253   3.976  0.0345  0.1609 -0.4602
16015TIP3    H269461   1.070   2.225   4.078 -1.6782  0.6314  1.5594
16016TIP3   OH269462   5.716   2.502  17.110  0.0653  0.1031 -0.0568
16016TIP3    H169463   5.692   2.576  17.055  1.3256  0.9144  0.4415
16016TIP3    H269464   5.809   2.516  17.131  0.1087 -1.1702  0.7380
16017TIP3   OH269465   6.031   6.175   5.474  0.1803 -0.7359  0.9148
16017TIP3    H169466   6.021   6.237   5.546 -0.7161  0.1371  0.0652
16017TIP3    H269467   6.052   6.092   5.517  1.8288  0.1939  2.0586
16018TIP3   OH269468   6.645   1.730  12.045 -0.3072 -0.0260 -0.3653
16018TIP3    H169469   6.560   1.695  12.072  0.5334 -0.8387  1.3997
16018TIP3    H269470   6.677   1.778  12.122  0.2913  1.3414 -1.4298
16019TIP3   OH269471   2.458   5.830  13.789  0.3322  0.0709 -0.1071
16019TIP3    H169472   2.395   5.790  13.848  0.7820 -2.5285 -1.2780
16019TIP3    H269473   2.542   5.823  13.835  0.2348  0.8542  0.2072
16020TIP3   OH269474   2.857   1.751  14.775  0.2438  0.0711  0.0509
16020TIP3    H169475   2.826   1.841  14.776  1.1910  0.4633  3.0744
16020TIP3    H269476   2.952   1.757  14.767  0.1750 -0.8825 -2.8225
16021TIP3   OH269477   2.396   4.037   3.936  0.6572 -0.2487 -0.0419
16021TIP3    H169478   2.471   4.039   3.996  0.4894  0.7674  0.1645
16021TIP3    H269479   2.360   3.949   3.945  0.0199  0.1760  2.1290
16022TIP3   OH269480   5.011   2.811  16.391  0.0485 -0.2058 -0.9998
16022TIP3    H169481   4.968   2.878  16.445  0.2477 -0.3137 -0.7033
16022TIP3    H269482   4.939   2.754  16.363 -0.3738  1.0416 -2.6225
16023TIP3   OH269483   6.364   2.203  15.031  0.7407  0.5396  0.2824
16023TIP3    H169484   6.310   2.155  15.094 -1.2823  2.8889  0.5096
16023TIP3    H269485   6.418   2.136  14.989  0.5600 -1.4049  2.9200
16024TIP3   OH269486   1.137   3.573  14.316  0.2043 -0.1620  0.4833
16024TIP3    H169487   1.158   3.519  14.239 -2.1077  0.6863 -0.8532
16024TIP3    H269488   1.042   3.567  14.324 -0.2914  4.0095 -0.0853
16025TIP3   OH269489   4.842   5.309  16.374  0.4632  0.1058  0.0775
16025TIP3    H169490   4.820   5.390  16.420 -0.6516 -0.5032  0.6491
16025TIP3    H269491   4.758   5.270  16.352  0.9703 -1.5419  0.9357
16026TIP3   OH269492   0.255   0.613  16.798 -0.0817  0.7554 -0.1062
16026TIP3    H169493   0.173   0.612  16.750  0.3203 -0.3798 -0.8144
16026TIP3    H269494   0.322   0.623  16.731  0.5670 -1.9716 -0.0093
16027TIP3   OH269495   2.691   4.127  15.386 -0.2975 -0.1978  0.3507
16027TIP3    H169496   2.684   4.043  15.429  1.5414 -1.0974 -0.9563
16027TIP3    H269497   2.601   4.152  15.365 -0.9247 -1.3858  1.5459
16028TIP3   OH269498   5.565   6.596   1.523 -0.0378 -0.1102 -0.4421
16028TIP3    H169499   5.521   6.632   1.600 -0.3611 -3.2937  1.0450
16028TIP3    H269500   5.632   6.660   1.501 -0.3409  1.2088  2.1075
16029TIP3   OH269501   1.836   2.278  13.900  0.1248 -0.3290 -0.5979
16029TIP3    H169502   1.869   2.367  13.891 -1.4532  0.2206 -1.1543
16029TIP3    H269503   1.752   2.287  13.945 -0.2867 -1.4807 -1.0880
16030TIP3   OH269504   4.431   1.052   2.301 -0.2846  0.0782  0.2274
16030TIP3    H169505   4.516   1.009   2.302  0.3807  1.3342  1.5108
16030TIP3    H269506   4.450   1.144   2.285 -1.1725  0.7165  2.4497
16031TIP3   OH269507   4.829   4.099   0.238  0.2799  0.8853  0.2220
16031TIP3    H169508   4.870   4.140   0.313 -0.8909  2.3255  0.1170
16031TIP3    H269509   4.735   4.107   0.254 -0.0533 -1.7635  0.1753
16032TIP3   OH269510   3.946   6.297   5.834 -0.3913  0.2277  0.4432
16032TIP3    H169511   3.966   6.390   5.845  1.7353 -0.3716  2.5009
16032TIP3    H269512   4.025   6.252   5.863  0.1046 -2.2358 -3.8228
16033TIP3   OH269513   1.513   6.032   0.358 -0.1023  0.1940 -0.4020
16033TIP3    H169514   1.435   6.049   0.411 -0.1425  0.5044 -0.5548
16033TIP3    H269515   1.585   6.069   0.410 -0.1295  0.4142 -0.5217
16034TIP3   OH269516   0.639   1.870  12.074 -0.0689 -0.3267 -0.6304
16034TIP3    H169517   0.637   1.840  11.983 -0.6517  0.6981 -0.9674
16034TIP3    H269518   0.559   1.921  12.085  0.6983  0.7832  0.0316
16035TIP3   OH269519   0.012   4.330  14.760 -0.1204 -0.2543 -0.5587
16035TIP3    H169520   0.026   4.246  14.805 -0.0834 -0.3805 -0.8072
16035TIP3    H269521   0.045   4.395  14.822 -1.6713 -0.2806  0.3677
16036TIP3   OH269522   4.811   2.124  12.094  0.4040 -0.0161  0.1040
16036TIP3    H169523   4.744   2.101  12.029  1.1273 -0.3631 -0.5432
16036TIP3    H269524   4.840   2.212  12.067 -0.0595  0.3029  0.6221
16037TIP3   OH269525   3.025   2.703  14.498  0.2069 -0.1506 -0.6724
16037TIP3    H169526   3.090   2.677  14.432  0.7770 -1.0293  0.2013
16037TIP3    H269527   3.023   2.629  14.559  0.0104  0.8136  0.5202
16038TIP3   OH269528   4.372   1.949  12.490  0.3732 -0.1683  0.2674
16038TIP3    H169529   4.334   1.903  12.565 -0.8559 -0.7171 -0.6614
16038TIP3    H269530   4.376   2.040  12.518  0.5311 -0.4543  1.2322
16039TIP3   OH269531   0.466   4.788  11.559  0.4536 -0.5028 -0.8838
16039TIP3    H169532   0.460   4.883  11.547  1.9266 -0.2356  0.2387
16039TIP3    H269533   0.541   4.775  11.617 -0.6378 -2.2668  0.2561
16040TIP3   OH269534   0.166   1.944   5.201  0.0410  0.1792  0.3048
16040TIP3    H169535   0.239   1.890   5.230 -0.6060 -0.2673  1.1335
16040TIP3    H269536   0.207   2.022   5.163  0.9929 -0.8594 -0.8860
16041TIP3   OH269537   1.362   3.946   1.710 -0.2394  0.0384 -0.0899
16041TIP3    H169538   1.348   3.855   1.736  3.4039 -0.3323  1.2136
16041TIP3    H269539   1.303   3.997   1.766 -0.3459 -1.4041  1.1642
16042TIP3   OH269540   0.978   3.555  12.633 -0.3224 -0.2064 -0.5680
16042TIP3    H169541   1.059   3.505  12.649 -1.5959 -2.3004 -0.2849
16042TIP3    H269542   0.982   3.626  12.696  1.2715 -0.2934 -0.5080
16043TIP3   OH269543   0.172   0.157   1.309 -0.2837  0.0525 -0.5208
16043TIP3    H169544   0.183   0.070   1.348 -0.6606 -0.6979 -2.0179
16043TIP3    H269545   0.241   0.209   1.348 -1.0521 -0.4456  1.6563
16044TIP3   OH269546   0.874   2.498  13.511  0.5799 -0.1930  0.5200
16044TIP3    H169547   0.863   2.414  13.554 -0.4190 -0.1546  0.3696
16044TIP3    H269548   0.785   2.534  13.506  0.8517  0.3778 -0.3936
16045TIP3   OH269549   4.438   0.051  12.230  0.6909 -0.5254 -0.2055
16045TIP3    H169550   4.424  -0.040  12.253  0.6312 -0.6614 -0.7589
16045TIP3    H269551   4.445   0.097  12.314  0.5988 -1.0170  0.0726
16046TIP3   OH269552   0.221   6.724   6.270 -0.0349 -0.3171 -0.2818
16046TIP3    H169553   0.152   6.668   6.236 -1.6967  1.8434 -0.6473
16046TIP3    H269554   0.299   6.698   6.221 -1.1748 -0.9629 -1.8238
16047TIP3   OH269555   6.716   1.748  12.535  0.1990  0.1682 -0.5213
16047TIP3    H169556   6.754   1.822  12.582  1.3684 -0.1936 -0.8828
16047TIP3    H269557   6.749   1.671  12.581 -0.9072 -0.1568 -0.2292
16048TIP3   OH269558   2.118   4.592   6.071  0.0387 -0.0795  0.4324
16048TIP3    H169559   2.074   4.588   5.986  1.7394 -2.0312 -0.4349
16048TIP3    H269560   2.182   4.663   6.062  0.9194 -0.9435 -0.3167
16049TIP3   OH269561   6.535   3.678  13.955  0.0384  0.1138  0.1126
16049TIP3    H169562   6.520   3.635  14.040 -0.0628 -0.4081 -0.1647
16049TIP3    H269563   6.625   3.712  13.961 -1.0169  2.9804  1.6649
16050TIP3   OH269564   5.827   3.604  15.056  0.3300  0.2972 -0.4595
16050TIP3    H169565   5.906   3.559  15.087  0.8818  0.9139 -0.9492
16050TIP3    H269566   5.770   3.607  15.133  0.8537 -0.0122 -0.0528
16051TIP3   OH269567   1.075   1.766  12.229 -0.5047  0.0223  0.1817
16051TIP3    H169568   0.992   1.781  12.273  0.6064 -0.4174  2.5998
16051TIP3    H269569   1.099   1.852  12.194 -0.9777  0.6502  1.3402
16052TIP3   OH269570   4.590   3.988   5.321 -0.7335 -0.2427 -0.0408
16052TIP3    H169571   4.535   4.029   5.389  0.9371 -0.1314  1.3264
16052TIP3    H269572   4.677   4.024   5.337 -0.4269  0.4305 -2.8308
16053TIP3   OH269573   2.274   3.004  12.273  0.7155  0.2686  0.0102
16053TIP3    H169574   2.198   2.946  12.266  1.2676 -0.4231 -0.4105
16053TIP3    H269575   2.236   3.091  12.291 -0.2636  0.1785 -1.3724
16054TIP3   OH269576   1.304   2.487   5.544  0.2219 -0.5370  0.0984
16054TIP3    H169577   1.208   2.481   5.535  0.2581 -1.5696  0.2117
16054TIP3    H269578   1.325   2.576   5.515 -0.7270 -0.4350 -0.3483
16055TIP3   OH269579   0.185   1.139   4.844 -0.6756 -0.3539  0.0449
16055TIP3    H169580   0.199   1.119   4.751  0.4899 -0.4693  0.2320
16055TIP3    H269581   0.223   1.065   4.890 -2.4747 -0.9588  0.6054
16056TIP3   OH269582   0.477   0.749   4.741 -0.3676  0.2722 -0.2372
16056TIP3    H169583   0.526   0.736   4.660  0.9010  2.6218  0.0499
16056TIP3    H269584   0.386   0.757   4.713 -0.0933 -0.0818 -1.2810
16057TIP3   OH269585   4.285   5.843   0.125  0.1211 -0.5150 -0.3538
16057TIP3    H169586   4.326   5.898   0.192 -0.4421  1.8763 -1.8684
16057TIP3    H269587   4.353   5.831   0.059  0.0117 -1.0748 -0.3710
16058TIP3   OH269588   2.902   1.042   4.242 -0.5098  0.0545 -0.0240
16058TIP3    H169589   2.985   1.030   4.197 -1.0915 -0.4343 -0.9868
16058TIP3    H269590   2.872   1.129   4.215  0.4411  0.9480  1.6115
16059TIP3   OH269591   5.390   3.166  11.721 -0.2651  0.1048 -0.3072
16059TIP3    H169592   5.469   3.156  11.668 -1.2681  0.7304 -1.9995
16059TIP3    H269593   5.382   3.261  11.735 -0.2456 -0.0217  0.6237
16060TIP3   OH269594   5.246   0.521  14.182 -0.0491 -0.0603  0.1384
16060TIP3    H169595   5.338   0.517  14.210  0.3115 -0.2998 -1.0295
16060TIP3    H269596   5.227   0.433  14.148 -0.2546  0.3870 -0.9533
16061TIP3   OH269597   1.811   2.629   4.864 -0.2728 -0.2594 -0.6813
16061TIP3    H169598   1.902   2.607   4.846  0.1791 -0.2913  1.4254
16061TIP3    H269599   1.783   2.679   4.788  1.5779 -0.0318 -1.2634
16062TIP3   OH269600   5.350   4.065  11.394  0.6149 -0.5603 -0.1202
16062TIP3    H169601   5.346   3.996  11.461  0.9123  0.2453  0.7614
16062TIP3    H269602   5.347   4.146  11.444 -2.3229  0.1444 -1.2767
16063TIP3   OH269603   3.714   3.282   2.789 -0.6911 -0.0136 -0.1648
16063TIP3    H169604   3.709   3.371   2.822  1.7674  0.8939 -1.9856
16063TIP3    H269605   3.625   3.262   2.760 -1.1804  2.0401 -0.1798
16064TIP3   OH269606   6.716   3.775   1.628  0.1975 -0.3300  0.0327
16064TIP3    H169607   6.629   3.810   1.649 -0.1248 -0.4786 -0.9812
16064TIP3    H269608   6.715   3.767   1.533  0.1757 -3.3391  0.2059
16065TIP3   OH269609   2.733   6.593   1.467  0.1533  0.5260  0.2316
16065TIP3    H169610   2.778   6.666   1.511  0.7203  0.6307 -0.4963
16065TIP3    H269611   2.717   6.626   1.379  0.7437 -0.3568 -0.2167
16066TIP3   OH269612   6.585   5.621  11.956 -0.2999  0.2355 -0.0242
16066TIP3    H169613   6.550   5.662  12.035  0.6920 -0.3333  0.7425
16066TIP3    H269614   6.561   5.528  11.964 -1.3823  0.4034 -1.0859
16067TIP3   OH269615   2.869   2.908   4.413 -0.1203 -0.4657 -0.1090
16067TIP3    H169616   2.957   2.881   4.388  0.4219  1.7844 -0.8323
16067TIP3    H269617   2.879   2.943   4.502 -0.3745 -0.6068 -0.0238
16068TIP3   OH269618   3.243   4.446  15.303  0.3570 -0.0022 -0.0969
16068TIP3    H169619   3.305   4.390  15.350 -0.6564 -0.7191  0.4329
16068TIP3    H269620   3.202   4.499  15.371  1.6158  1.7784 -0.6391
16069TIP3   OH269621   1.564   3.507  15.355  0.0839 -0.3612 -0.3827
16069TIP3    H169622   1.535   3.598  15.361 -0.9447 -0.5773 -1.4615
16069TIP3    H269623   1.570   3.477  15.445 -0.3118  0.5628 -0.0398
16070TIP3   OH269624   4.163   0.065  14.418 -0.1851  0.2172  0.1538
16070TIP3    H169625   4.152   0.145  14.470 -1.8984  0.0151  0.1565
16070TIP3    H269626   4.124  -0.004  14.472  1.5027 -0.6976  0.2660
16071TIP3   OH269627   2.940   0.675  15.575 -0.2627 -0.1716 -0.3106
16071TIP3    H169628   3.010   0.611  15.590  0.0995 -0.2838 -2.1960
16071TIP3    H269629   2.863   0.622  15.557 -0.0876 -0.0993 -1.3344
16072TIP3   OH269630   3.644   6.023   2.859  0.3537 -0.0959  0.1875
16072TIP3    H169631   3.654   6.105   2.907  2.2960 -0.6527  0.8257
16072TIP3    H269632   3.681   5.957   2.917  0.4455 -1.1605 -1.0451
16073TIP3   OH269633   2.864   4.349   5.631 -0.2918 -0.6743 -0.4808
16073TIP3    H169634   2.858   4.444   5.626 -0.4004 -0.5877  1.0116
16073TIP3    H269635   2.812   4.318   5.557 -0.1208  0.4204 -1.0815
16074TIP3   OH269636   0.366   0.759   5.943 -0.1713  0.3683  0.1634
16074TIP3    H169637   0.418   0.835   5.968 -0.3389  0.3717  0.4993
16074TIP3    H269638   0.294   0.757   6.005 -1.4134  1.2171 -1.1832
16075TIP3   OH269639   1.304   1.766  12.529  0.4383 -0.5158  0.1205
16075TIP3    H169640   1.251   1.687  12.525 -0.1743 -0.1521  0.9798
16075TIP3    H269641   1.297   1.804  12.441 -0.0263 -0.9163 -0.0172
16076TIP3   OH269642   2.343   0.517   5.040  0.3800  0.1304 -0.3830
16076TIP3    H169643   2.311   0.442   5.090  0.5600  0.6870  0.6098
16076TIP3    H269644   2.437   0.523   5.062  1.3760 -1.7216 -3.5584
16077TIP3   OH269645   0.199   6.714  16.568 -0.5131  0.4753 -0.0207
16077TIP3    H169646   0.227   6.625  16.548  0.6256  0.5715  1.0217
16077TIP3    H269647   0.114   6.702  16.611 -1.0550  0.0127 -1.1854
16078TIP3   OH269648   0.477   0.245  13.203 -0.2156 -0.0400 -0.1925
16078TIP3    H169649   0.483   0.150  13.193 -0.3143 -0.0512 -0.1511
16078TIP3    H269650   0.511   0.263  13.291 -1.7719 -0.2187  0.4804
16079TIP3   OH269651   0.704   2.251  14.408 -0.7191 -0.3313  0.1632
16079TIP3    H169652   0.691   2.169  14.456 -1.2676 -0.4698 -0.2146
16079TIP3    H269653   0.778   2.232  14.349 -0.8626 -0.5641  0.0556
16080TIP3   OH269654   3.371   3.268   3.099 -0.4770  0.2429  0.4889
16080TIP3    H169655   3.424   3.213   3.157 -0.7310 -0.8956 -0.3301
16080TIP3    H269656   3.362   3.216   3.019 -2.5940  0.5256  0.4970
16081TIP3   OH269657   3.358   0.711   0.460 -0.0556 -0.5923  0.2899
16081TIP3    H169658   3.289   0.664   0.412 -1.3889  2.0259 -0.5448
16081TIP3    H269659   3.418   0.740   0.392 -1.2406  1.9844  0.2200
16082TIP3   OH269660   2.055   5.304  13.699  0.1020 -0.3560 -0.3999
16082TIP3    H169661   2.076   5.379  13.755  3.0682 -0.2285 -1.5233
16082TIP3    H269662   2.089   5.229  13.747 -1.2515 -0.8214 -0.1137
16083TIP3   OH269663   2.597   4.237   5.114 -0.4515 -0.7500  0.5594
16083TIP3    H169664   2.582   4.160   5.059 -0.4220 -1.9854  2.2241
16083TIP3    H269665   2.587   4.206   5.204  1.2981  0.8024  1.3609
16084TIP3   OH269666   5.569   3.159   3.050  0.5454 -0.1076 -0.2628
16084TIP3    H169667   5.586   3.113   2.967 -1.4979  1.7809 -1.8536
16084TIP3    H269668   5.522   3.238   3.024 -1.4704 -0.1234  2.8615
16085TIP3   OH269669   2.088   1.081   4.407  0.0578  0.2021 -0.2248
16085TIP3    H169670   2.168   1.030   4.397  0.9948  1.6075 -0.1816
16085TIP3    H269671   2.035   1.031   4.469  0.4948 -1.2075 -0.9497
16086TIP3   OH269672   5.782   4.748   0.746 -0.2758 -0.0983 -0.0447
16086TIP3    H169673   5.691   4.775   0.735 -0.1776  0.2518 -0.0164
16086TIP3    H269674   5.786   4.660   0.708 -1.0223 -0.8484  1.5243
16087TIP3   OH269675   4.586   0.059   2.855 -0.0148 -0.1653 -0.5242
16087TIP3    H169676   4.623   0.091   2.772 -1.6494 -0.7672 -1.5229
16087TIP3    H269677   4.505   0.016   2.830 -1.1409  0.6341  1.5342
16088TIP3   OH269678   0.764   5.146   3.002  0.3670 -0.1323  0.4643
16088TIP3    H169679   0.859   5.155   2.994  0.1665  0.9722 -0.9952
16088TIP3    H269680   0.752   5.057   3.035  1.8602 -0.9878 -1.1093
16089TIP3   OH269681   6.423   1.203   1.961  0.3028 -0.3863  0.2002
16089TIP3    H169682   6.374   1.193   2.043  0.6842 -0.0943  0.4701
16089TIP3    H269683   6.388   1.136   1.904 -0.4580 -0.1485  0.3672
16090TIP3   OH269684   3.264   4.145   2.973 -0.1149  0.3689  0.1368
16090TIP3    H169685   3.261   4.094   2.892 -0.8113  0.0197  0.3711
16090TIP3    H269686   3.172   4.161   2.995  0.0859  2.1321 -0.1708
16091TIP3   OH269687   3.332   6.404   0.192 -0.0727  0.2214  0.2743
16091TIP3    H169688   3.339   6.468   0.263 -0.9417 -1.0634  1.5737
16091TIP3    H269689   3.262   6.439   0.136  0.7203  1.3197 -0.0663
16092TIP3   OH269690   3.332   3.136   5.327  0.2058 -0.0095 -0.0432
16092TIP3    H169691   3.351   3.173   5.240  0.1977 -1.5809 -0.7504
16092TIP3    H269692   3.281   3.204   5.371 -0.7916  0.3654 -1.6938
16093TIP3   OH269693   6.555   3.207   0.042 -0.5454  0.5552 -0.4005
16093TIP3    H169694   6.579   3.215   0.134  0.3191 -1.0081 -0.4491
16093TIP3    H269695   6.628   3.246  -0.006 -1.0419  1.4600 -0.4294
16094TIP3   OH269696   1.721   1.353  15.310  0.2856  0.2969 -0.4252
16094TIP3    H169697   1.635   1.330  15.275 -1.2706  0.4378  2.8733
16094TIP3    H269698   1.780   1.288  15.273 -1.6983 -1.3311 -0.9568
16095TIP3   OH269699   1.860   0.280  17.217  0.0524 -0.2453  0.6030
16095TIP3    H169700   1.788   0.219  17.232  2.3607 -2.9437  1.4212
16095TIP3    H269701   1.881   0.271  17.124  0.4487 -0.7809  0.7424
16096TIP3   OH269702   0.304   6.459  16.417  0.5525 -0.8789  0.0189
16096TIP3    H169703   0.225   6.409  16.441 -0.1410  0.7456  1.2879
16096TIP3    H269704   0.271   6.531  16.364  1.5510 -1.7088 -1.8269
16097TIP3   OH269705   6.619   2.141  13.051  0.7033  0.3672  0.0333
16097TIP3    H169706   6.682   2.163  13.120  0.3624 -0.7052  0.7059
16097TIP3    H269707   6.534   2.138  13.096  0.4945 -0.4488 -0.4058
16098TIP3   OH269708   5.213   4.703  13.826 -0.6736 -0.8208 -0.2513
16098TIP3    H169709   5.124   4.677  13.805 -0.5374 -1.7797  0.3209
16098TIP3    H269710   5.208   4.798  13.838 -1.0518 -0.3756 -3.0866
16099TIP3   OH269711   5.154   0.706   3.533 -0.4086  0.7749 -0.1135
16099TIP3    H169712   5.151   0.625   3.585  2.8925  0.0141 -0.8901
16099TIP3    H269713   5.062   0.726   3.516 -1.5165 -0.6709  3.2732
16100TIP3   OH269714   4.182   0.869   4.697 -0.3149 -0.6048 -0.8144
16100TIP3    H169715   4.196   0.921   4.775  2.0493 -2.0878 -0.1471
16100TIP3    H269716   4.171   0.780   4.729 -1.7618 -0.9212 -2.0635
16101TIP3   OH269717   4.524   2.678   4.683  0.0687 -0.0083 -0.1174
16101TIP3    H169718   4.474   2.619   4.627 -0.4364  0.6731 -0.4010
16101TIP3    H269719   4.466   2.752   4.698  0.4967  0.1895  0.6577
16102TIP3   OH269720   2.207   2.305  16.337  0.5320 -0.3314 -0.0012
16102TIP3    H169721   2.233   2.298  16.429  0.5902  0.0898  0.0153
16102TIP3    H269722   2.216   2.216  16.303  1.3694 -0.3180  0.1715
16103TIP3   OH269723   4.720   4.357  12.272  0.7700 -0.3290  0.3501
16103TIP3    H169724   4.740   4.264  12.261  0.6094 -0.2776 -0.3964
16103TIP3    H269725   4.656   4.359  12.343 -0.9897 -1.0235 -1.1316
16104TIP3   OH269726   4.646   1.350   0.418  0.5433 -0.0057 -0.0118
16104TIP3    H169727   4.579   1.370   0.483  0.3131  0.4107 -0.3729
16104TIP3    H269728   4.704   1.427   0.419  0.6000 -0.0450 -0.2216
16105TIP3   OH269729   2.275   4.990  10.652  0.7826 -0.0024  0.2921
16105TIP3    H169730   2.190   4.955  10.627  0.8939 -0.1925  0.1838
16105TIP3    H269731   2.283   4.970  10.745  0.4859  0.4682  0.4207
16106TIP3   OH269732   3.276   4.550   1.205  0.0655 -0.1853 -0.1738
16106TIP3    H169733   3.192   4.577   1.241 -0.4957 -0.1692 -1.4320
16106TIP3    H269734   3.324   4.514   1.279 -0.6230  0.8211  0.7827
16107TIP3   OH269735   0.511   3.120  12.280  0.3375 -0.4707  1.0577
16107TIP3    H169736   0.504   3.215  12.290  1.1352 -0.5254  2.4098
16107TIP3    H269737   0.595   3.107  12.237  0.2612 -0.5692  0.9384
16108TIP3   OH269738   3.743   5.415   0.477  0.2564  0.0846  0.4956
16108TIP3    H169739   3.691   5.478   0.526 -0.5041  0.3585 -0.6360
16108TIP3    H269740   3.799   5.468   0.420  0.5094 -0.2383  0.4351
16109TIP3   OH269741   2.367   5.339  13.997 -0.0016 -0.1855 -0.0074
16109TIP3    H169742   2.439   5.332  13.934  0.6546 -1.1141  0.8275
16109TIP3    H269743   2.390   5.414  14.052 -0.6683  0.7463 -0.9482
16110TIP3   OH269744   1.182   5.861   4.764  0.0441  0.1717 -0.2929
16110TIP3    H169745   1.197   5.767   4.748  2.1791  0.3596  0.2845
16110TIP3    H269746   1.244   5.883   4.834  0.9839  2.4270 -1.7276
16111TIP3   OH269747   0.958   6.009  16.623 -0.4221 -0.2144  0.4862
16111TIP3    H169748   0.973   6.090  16.670 -0.7752  0.9199 -1.2444
16111TIP3    H269749   1.041   5.992  16.577 -0.3621 -0.8152  0.8023
16112TIP3   OH269750   5.423   0.824  13.700  0.0661 -0.1253 -0.0139
16112TIP3    H169751   5.462   0.738  13.690 -0.2374 -0.0978 -1.8486
16112TIP3    H269752   5.494   0.879  13.734  0.7422 -0.7338 -0.4079
16113TIP3   OH269753   5.922   5.350   5.225  0.2275 -0.2070  0.6003
16113TIP3    H169754   5.930   5.365   5.131 -0.4339 -2.2790  0.1683
16113TIP3    H269755   6.005   5.308   5.250 -0.3276 -1.3556  0.5521
16114TIP3   OH269756   5.656   6.286   0.357 -0.0957  0.3617  0.0767
16114TIP3    H169757   5.668   6.337   0.437 -1.5159  0.5416  0.1918
16114TIP3    H269758   5.566   6.254   0.361 -0.4590  0.9867 -1.7719
16115TIP3   OH269759   6.469   1.368  14.994 -0.6143  0.7482 -0.3272
16115TIP3    H169760   6.421   1.315  14.930 -0.0973 -0.0586 -0.0668
16115TIP3    H269761   6.434   1.340  15.078  0.8889 -0.5057 -0.0682
16116TIP3   OH269762   0.336   1.595  11.099  0.2609 -0.2177  0.3412
16116TIP3    H169763   0.293   1.515  11.070 -1.2040 -0.0639  1.9154
16116TIP3    H269764   0.267   1.661  11.097  0.8939  0.4880  1.1681
16117TIP3   OH269765   6.211   0.685   2.784  0.4759 -0.1360  0.0024
16117TIP3    H169766   6.119   0.695   2.760  0.0200 -0.7976  1.3662
16117TIP3    H269767   6.253   0.766   2.754 -1.0357  1.2878  1.5625
16118TIP3   OH269768   1.030   1.279   1.482  0.4600  0.3595 -0.5828
16118TIP3    H169769   1.106   1.238   1.522 -0.1774  0.8152  1.1875
16118TIP3    H269770   1.042   1.373   1.497 -1.3444  0.3247  1.4933
16119TIP3   OH269771   5.007   0.267   5.656  0.2272  0.1885 -0.1949
16119TIP3    H169772   4.966   0.348   5.628 -0.0202  0.3209  0.5231
16119TIP3    H269773   5.013   0.275   5.751  1.6117  0.0216 -0.2596
16120TIP3   OH269774   6.090   2.969   0.837 -0.1272  0.4170 -0.2744
16120TIP3    H169775   6.013   2.938   0.789  0.0325  0.2545 -0.4265
16120TIP3    H269776   6.091   2.917   0.917  0.3783 -0.2792 -0.7184
16121TIP3   OH269777   1.516   4.018   0.210 -0.2877 -0.5615  0.0413
16121TIP3    H169778   1.438   3.970   0.238  0.2107 -0.7546  1.1788
16121TIP3    H269779   1.498   4.108   0.237 -0.7686 -0.2916 -1.1246
16122TIP3   OH269780   1.885   3.072   1.795 -0.9184 -0.1435  0.0039
16122TIP3    H169781   1.979   3.056   1.795 -1.1445 -1.7108  0.5000
16122TIP3    H269782   1.876   3.167   1.791  0.6477 -0.0146 -1.7069
16123TIP3   OH269783   1.912   2.687   0.073  0.8179 -0.3556  0.3640
16123TIP3    H169784   1.830   2.638   0.061  0.1780  0.2833  1.9302
16123TIP3    H269785   1.909   2.755   0.006 -1.5033  1.6336  2.2925
16124TIP3   OH269786   5.354   6.572   0.077 -0.2167 -0.4788 -0.3422
16124TIP3    H169787   5.312   6.500   0.030  0.9715  0.5026 -3.0917
16124TIP3    H269788   5.370   6.638   0.010  2.7786  0.4991  1.1929
16125TIP3   OH269789   4.411   5.793   0.970  0.5361 -0.4795  0.3019
16125TIP3    H169790   4.396   5.701   0.992  1.5506 -0.9223 -0.7572
16125TIP3    H269791   4.492   5.793   0.919  0.0201  0.8830 -0.5816
16126TIP3   OH269792   1.422   6.098  16.923 -0.1886  0.3764 -0.1706
16126TIP3    H169793   1.394   6.007  16.932 -0.7669  0.5583 -0.1067
16126TIP3    H269794   1.509   6.100  16.962  0.5970 -0.5362 -1.7935
16127TIP3   OH269795   3.397   3.538  11.613  0.0476 -0.4208 -0.2752
16127TIP3    H169796   3.451   3.469  11.652  0.4582 -0.9680 -1.7499
16127TIP3    H269797   3.437   3.619  11.643  0.9066 -0.8262 -0.2959
16128TIP3   OH269798   3.334   5.425  14.342 -0.8982  0.1915  0.3898
16128TIP3    H169799   3.261   5.423  14.281 -2.3180 -0.0898  2.0149
16128TIP3    H269800   3.341   5.516  14.368 -1.4717  0.0310  1.1314
16129TIP3   OH269801   0.303   6.529  15.212  0.2067  0.0815 -0.2036
16129TIP3    H169802   0.295   6.618  15.178  0.2371  0.1831  0.0540
16129TIP3    H269803   0.301   6.539  15.307  0.3131 -0.1847 -0.1720
16130TIP3   OH269804   4.966   3.603  12.576 -0.2945 -0.1405 -0.0399
16130TIP3    H169805   4.901   3.666  12.544 -0.0981  0.9345  1.5543
16130TIP3    H269806   4.959   3.608  12.672  1.4373 -0.7360  0.1543
16131TIP3   OH269807   0.820   2.206  16.704 -0.3271  0.6633 -0.3092
16131TIP3    H169808   0.758   2.205  16.777  0.3692 -1.5285  0.3227
16131TIP3    H269809   0.776   2.155  16.636  0.0862  0.5241 -0.4703
16132TIP3   OH269810   5.441   3.181  12.427  0.7388  0.5116  0.1541
16132TIP3    H169811   5.505   3.111  12.410 -0.2241 -0.5600  0.7890
16132TIP3    H269812   5.371   3.166  12.364  0.9863  1.5335 -0.3792
16133TIP3   OH269813   4.997   4.606  12.924 -0.0856 -0.2174 -0.2474
16133TIP3    H169814   4.961   4.614  12.836  2.3484  0.5296 -1.2615
16133TIP3    H269815   4.926   4.569  12.976 -1.0862 -2.2756 -2.8677
16134TIP3   OH269816   0.184   0.221   3.947  0.2442  0.0688  0.2579
16134TIP3    H169817   0.228   0.262   3.873  0.4048 -2.3664 -1.1074
16134TIP3    H269818   0.100   0.192   3.912  0.7652 -2.1043  0.6606
16135TIP3   OH269819   2.745   5.765   6.536 -0.3956  0.2974  0.7249
16135TIP3    H169820   2.672   5.714   6.502 -0.3288  1.0602 -0.6057
16135TIP3    H269821   2.726   5.855   6.512  1.4285  0.4106 -0.5839
16136TIP3   OH269822   2.400   1.989   5.613 -0.0132 -0.1562  0.3311
16136TIP3    H169823   2.367   1.965   5.527 -0.4372  0.5310  0.2931
16136TIP3    H269824   2.465   1.922   5.634 -1.7076 -1.8205  0.5758
16137TIP3   OH269825   3.057   6.210  14.503  0.3131 -0.1382  0.1341
16137TIP3    H169826   3.051   6.274  14.574 -0.9230  0.1882 -0.2323
16137TIP3    H269827   3.000   6.246  14.434 -0.2101 -1.5039 -0.1668
16138TIP3   OH269828   1.790   4.214  15.356 -0.1996 -0.6649 -0.2509
16138TIP3    H169829   1.836   4.247  15.278  0.2807  0.8446  0.6228
16138TIP3    H269830   1.810   4.120  15.358  3.9774  0.0250  0.6914
16139TIP3   OH269831   5.292   3.207  15.709  0.6249  0.4848  1.0030
16139TIP3    H169832   5.258   3.198  15.620  1.2800  0.4709  0.7513
16139TIP3    H269833   5.244   3.141  15.759  4.0973 -3.5731 -0.4576
16140TIP3   OH269834   2.955   6.143  17.009 -0.1461 -0.0171 -0.0491
16140TIP3    H169835   2.988   6.054  17.009  0.2505  0.1072 -1.3481
16140TIP3    H269836   3.020   6.193  16.961 -0.0517  1.1135  1.1886
16141TIP3   OH269837   4.923   0.297   2.116  0.0436 -0.0478  0.2671
16141TIP3    H169838   5.008   0.253   2.121 -0.2140 -0.5760  0.0927
16141TIP3    H269839   4.875   0.265   2.192  0.0672  0.3987  0.4725
16142TIP3   OH269840   0.526   3.495  17.325  0.6003  0.1300 -0.0703
16142TIP3    H169841   0.540   3.582  17.289 -1.0739  1.3261  1.9734
16142TIP3    H269842   0.439   3.470  17.294  0.6498 -0.3795  0.1894
16143TIP3   OH269843   0.119   2.690   4.339 -0.1655 -0.4166  0.0969
16143TIP3    H169844   0.122   2.777   4.379 -0.4124 -0.8157  1.0143
16143TIP3    H269845   0.164   2.634   4.402  1.4058 -0.6996 -1.2134
16144TIP3   OH269846   0.426   4.176   2.876 -0.1835  0.2775  0.3692
16144TIP3    H169847   0.431   4.128   2.793 -2.1722 -0.3117  0.5305
16144TIP3    H269848   0.432   4.108   2.943 -0.7987  0.4919  0.6481
16145TIP3   OH269849   4.284   3.552   5.908  0.5019 -0.2876  0.2095
16145TIP3    H169850   4.306   3.542   6.001 -0.2591 -0.7065  0.3540
16145TIP3    H269851   4.202   3.504   5.898  1.8987 -2.5963 -1.2411
16146TIP3   OH269852   4.303   2.971   1.073 -0.3699 -0.8730  0.1063
16146TIP3    H169853   4.218   2.990   1.033  0.4656 -1.4294 -2.0430
16146TIP3    H269854   4.301   2.877   1.091 -0.1294 -0.9332 -0.1704
16147TIP3   OH269855   3.575   4.066   1.881 -0.0576  0.3778 -0.2564
16147TIP3    H169856   3.531   4.045   1.963  1.9043 -0.8044  0.5735
16147TIP3    H269857   3.533   4.146   1.850 -0.8973  0.8091  1.8581
16148TIP3   OH269858   1.578   1.995   3.870 -0.0669 -0.0446  0.1330
16148TIP3    H169859   1.594   1.901   3.859  0.1941  0.2980 -3.6472
16148TIP3    H269860   1.506   2.015   3.809  0.0036  2.2518  0.6953
16149TIP3   OH269861   5.682   3.094   0.719  0.3945 -0.9910 -0.2072
16149TIP3    H169862   5.597   3.052   0.705  0.1255 -0.2182 -0.9813
16149TIP3    H269863   5.688   3.158   0.648  1.6603 -1.0927 -0.2007
16150TIP3   OH269864   2.828   6.246   0.474  0.0235  0.3545 -0.3042
16150TIP3    H169865   2.868   6.325   0.510 -0.0147 -0.4093  1.5397
16150TIP3    H269866   2.901   6.185   0.464 -0.1016  0.2668 -0.6659
16151TIP3   OH269867   3.436   3.526   5.266  0.2602 -0.4292  0.3783
16151TIP3    H169868   3.531   3.523   5.263  0.3471  1.3555 -0.1168
16151TIP3    H269869   3.416   3.552   5.356  0.1585 -2.0895  0.8554
16152TIP3   OH269870   2.025   1.955   3.956  0.4982  0.3121 -0.2577
16152TIP3    H169871   2.107   2.005   3.959  0.0405  1.0776 -0.2262
16152TIP3    H269872   1.957   2.021   3.939  0.0551 -0.4951 -1.8416
16153TIP3   OH269873   1.882   0.628  14.760 -0.1254  0.1487  0.0325
16153TIP3    H169874   1.932   0.708  14.740 -1.1410  0.5678 -0.9272
16153TIP3    H269875   1.819   0.654  14.826 -1.2309  0.4640 -1.1086
16154TIP3   OH269876   4.851   1.879   1.829  0.0540 -0.0056 -0.3254
16154TIP3    H169877   4.923   1.817   1.842  0.3003  0.3034 -0.1979
16154TIP3    H269878   4.778   1.825   1.797 -0.0356 -0.5106  0.7081
16155TIP3   OH269879   2.922   2.919  13.004  0.2577 -0.3672 -0.1798
16155TIP3    H169880   2.926   2.825  13.022  2.3907 -0.2949  0.0206
16155TIP3    H269881   2.949   2.928  12.913  1.1319  0.0972  0.1081
16156TIP3   OH269882   6.584   5.341  12.989  0.4102 -0.1116  0.2425
16156TIP3    H169883   6.592   5.435  12.972  0.8517  0.3807  2.8056
16156TIP3    H269884   6.503   5.332  13.039  1.6798 -0.6822  2.3143
16157TIP3   OH269885   5.662   1.972   2.835 -0.2932  0.4067 -0.1157
16157TIP3    H169886   5.608   1.894   2.842 -1.5950  1.2280 -0.6410
16157TIP3    H269887   5.745   1.948   2.878 -1.2634 -0.6900  1.2416
16158TIP3   OH269888   0.200   4.357  12.983  0.6442  0.0635 -0.6429
16158TIP3    H169889   0.136   4.395  13.043  0.2876  1.3659 -1.8127
16158TIP3    H269890   0.170   4.266  12.971  0.0073  0.1583  0.1586
16159TIP3   OH269891   2.413   0.029  16.849  0.0920  0.7301 -0.0984
16159TIP3    H169892   2.355  -0.035  16.807 -0.6279  0.8502  0.6691
16159TIP3    H269893   2.491   0.031  16.794 -0.6238  0.5337 -1.1458
16160TIP3   OH269894   0.345   3.140  14.386 -0.1487  0.1155 -0.0472
16160TIP3    H169895   0.282   3.204  14.354  1.4503  2.5201  1.2875
16160TIP3    H269896   0.369   3.088  14.309 -0.8429  1.7159 -1.3807
16161TIP3   OH269897   1.937   6.383  15.894  0.2685  0.8497 -0.1295
16161TIP3    H169898   1.944   6.292  15.867 -3.5028  0.9472 -2.0902
16161TIP3    H269899   1.982   6.432  15.825  0.1954  0.5496 -0.3936
16162TIP3   OH269900   4.604   2.951   4.801  0.2877  0.1107 -0.1510
16162TIP3    H169901   4.651   2.908   4.730 -0.1468 -0.0348 -0.3593
16162TIP3    H269902   4.517   2.968   4.765  0.2442  0.5572  0.1549
16163TIP3   OH269903   5.175   2.008  14.574  0.4223  0.1548 -0.0939
16163TIP3    H169904   5.119   1.941  14.614  0.6120  0.3935  0.5807
16163TIP3    H269905   5.161   2.086  14.627  1.2522  0.2716 -0.0298
16164TIP3   OH269906   4.510   5.415   2.078  0.4827 -0.3073  0.3750
16164TIP3    H169907   4.430   5.460   2.104 -0.6405 -0.4819 -2.3817
16164TIP3    H269908   4.578   5.453   2.133 -1.0313  1.9960  0.8032
16165TIP3   OH269909   5.570   6.102  13.856  0.4430 -0.4142  0.1324
16165TIP3    H169910   5.659   6.070  13.840  0.7131  0.4094 -0.0287
16165TIP3    H269911   5.581   6.193  13.883 -0.4550  0.3247 -1.7989
16166TIP3   OH269912   2.384   1.978  16.992 -0.4923 -0.2787  0.1729
16166TIP3    H169913   2.444   2.025  17.051  1.2142 -0.7613 -1.0977
16166TIP3    H269914   2.326   2.046  16.958 -0.1834  0.3419  0.8430
16167TIP3   OH269915   5.957   1.155   4.247 -0.0724 -0.2277 -0.3043
16167TIP3    H169916   6.039   1.194   4.278 -0.5485 -0.0071  0.7365
16167TIP3    H269917   5.985   1.079   4.196  0.8502  1.1012 -1.8944
16168TIP3   OH269918   5.948   6.358   0.664 -0.1272  0.2749  0.9351
16168TIP3    H169919   6.032   6.330   0.626  0.0297  0.8318  0.8636
16168TIP3    H269920   5.960   6.347   0.758  0.3439  1.1706  0.9919
16169TIP3   OH269921   5.811   1.611   2.722 -0.2278 -0.1587  0.5185
16169TIP3    H169922   5.800   1.516   2.710  0.3739 -0.2475  0.6378
16169TIP3    H269923   5.830   1.622   2.815 -2.2646  0.2831  0.9183
16170TIP3   OH269924   1.095   2.547   2.253  0.0621 -0.3965 -0.0046
16170TIP3    H169925   1.187   2.573   2.259 -0.2079  1.2324 -1.9369
16170TIP3    H269926   1.065   2.545   2.344  1.1714  2.3743  0.5247
16171TIP3   OH269927   0.720   4.113   4.484 -0.4127  0.5458 -0.5542
16171TIP3    H169928   0.774   4.083   4.411 -1.3766  1.5556 -1.7186
16171TIP3    H269929   0.784   4.145   4.548  0.6876 -3.5474  0.7048
16172TIP3   OH269930   0.923   2.198  13.917 -0.2129 -0.0784  0.1068
16172TIP3    H169931   0.856   2.131  13.926  0.0797 -0.5620 -1.1090
16172TIP3    H269932   0.960   2.184  13.830  1.7287 -0.0519  0.8806
16173TIP3   OH269933   3.669   0.218   6.399 -0.2128 -0.4332 -0.0544
16173TIP3    H169934   3.717   0.256   6.472 -0.8591 -1.6788  1.0487
16173TIP3    H269935   3.730   0.223   6.325 -0.0510  2.1335  0.1700
16174TIP3   OH269936   6.503   0.951   5.030 -0.7971  0.3000  0.6458
16174TIP3    H169937   6.574   0.953   5.094 -1.5781 -0.0567  1.5450
16174TIP3    H269938   6.454   0.872   5.051 -0.5679 -0.3032 -0.9672
16175TIP3   OH269939   3.803   3.073  11.519 -0.0563 -0.3507 -0.0158
16175TIP3    H169940   3.841   3.158  11.542 -0.0436 -0.3559 -0.0173
16175TIP3    H269941   3.879   3.015  11.508 -0.0947 -0.7978  1.6799
16176TIP3   OH269942   2.973   5.410  14.670 -0.0331  0.3609 -0.0240
16176TIP3    H169943   2.974   5.322  14.708  2.6091  0.5510  0.4869
16176TIP3    H269944   2.954   5.468  14.743  2.8237  0.5301  0.7065
16177TIP3   OH269945   1.977   5.077   5.470 -0.1152  0.8268 -1.0667
16177TIP3    H169946   2.020   4.993   5.484 -1.1767 -0.2215 -3.6431
16177TIP3    H269947   2.049   5.136   5.444  0.4449  0.4203 -0.4780
16178TIP3   OH269948   2.646   2.174   3.362  0.2649 -0.0675 -0.2760
16178TIP3    H169949   2.556   2.193   3.385 -0.2282 -1.6135 -0.7915
16178TIP3    H269950   2.650   2.078   3.358  1.3120  0.0013 -2.6048
16179TIP3   OH269951   0.334   2.488  15.970  0.2612 -0.0371  0.1394
16179TIP3    H169952   0.308   2.396  15.958 -1.3894  0.3001  0.7888
16179TIP3    H269953   0.417   2.484  16.016 -0.0900 -1.2227  0.7201
16180TIP3   OH269954   6.704   2.785  13.862  0.0733 -0.5364  0.0523
16180TIP3    H169955   6.756   2.760  13.939 -0.8526 -0.0839  0.8485
16180TIP3    H269956   6.765   2.777  13.789  0.7717 -1.7010  0.7251
16181TIP3   OH269957   5.146   2.156  13.567  0.5972  0.6532 -0.5904
16181TIP3    H169958   5.111   2.238  13.531 -1.8702  0.3563  0.9315
16181TIP3    H269959   5.241   2.167  13.561  0.3771  3.8074 -0.0904
16182TIP3   OH269960   0.894   3.306  13.702  0.1243 -0.0331  0.3577
16182TIP3    H169961   0.920   3.302  13.794 -1.6535  1.5625  0.9956
16182TIP3    H269962   0.810   3.352  13.702  0.8206  1.4561 -2.2235
16183TIP3   OH269963   0.548   2.647   3.705  0.6393 -0.0293 -0.1399
16183TIP3    H169964   0.614   2.602   3.757  0.4308 -0.5836 -0.3446
16183TIP3    H269965   0.551   2.604   3.620 -0.4638 -0.5377  0.0645
16184TIP3   OH269966   4.736   2.269   3.372 -0.1361 -0.8089 -1.4175
16184TIP3    H169967   4.711   2.269   3.464 -1.2141 -1.3443 -1.6991
16184TIP3    H269968   4.677   2.332   3.331  0.8520  0.0153 -1.6293
16185TIP3   OH269969   0.940   1.707   2.529 -0.3769  0.2889  0.8420
16185TIP3    H169970   0.897   1.623   2.512  0.0056  0.4021 -0.9113
16185TIP3    H269971   0.906   1.765   2.461 -0.1269  1.3830  1.6199
16186TIP3   OH269972   4.795   4.665   0.742 -0.0055 -0.0594 -0.2044
16186TIP3    H169973   4.869   4.666   0.682  0.8783  0.7514  0.8366
16186TIP3    H269974   4.834   4.642   0.827 -0.9898  0.1147  0.3025
16187TIP3   OH269975   5.080   3.859  14.623  0.5694 -0.3379 -0.5455
16187TIP3    H169976   5.046   3.788  14.568  0.2648  0.3477 -1.2650
16187TIP3    H269977   5.154   3.893  14.574 -1.8399  2.6828 -2.4470
16188TIP3   OH269978   4.910   4.346   1.143 -0.5122 -0.2069 -0.1835
16188TIP3    H169979   4.863   4.357   1.226 -0.9045 -1.4065 -0.2267
16188TIP3    H269980   4.844   4.314   1.082 -0.3097  1.0153 -1.0757
16189TIP3   OH269981   3.328   5.432   0.204 -0.4667 -0.0960 -0.1976
16189TIP3    H169982   3.267   5.501   0.229 -0.4406  0.3381 -1.2805
16189TIP3    H269983   3.285   5.387   0.131 -0.0195 -0.5581 -0.1849
16190TIP3   OH269984   0.259   1.004   1.526 -0.6527 -0.3824  0.3172
16190TIP3    H169985   0.317   0.928   1.524 -1.7759 -1.3419 -3.3837
16190TIP3    H269986   0.174   0.969   1.555 -0.2736  0.3734  2.5482
16191TIP3   OH269987   0.081   2.743   1.260  0.0478 -0.2254  0.3258
16191TIP3    H169988   0.091   2.839   1.263  0.9034 -0.2993  0.1220
16191TIP3    H269989   0.121   2.712   1.340 -0.7456 -0.3868  0.6709
16192TIP3   OH269990   3.288   1.306   3.542 -0.1432  0.0525  0.3288
16192TIP3    H169991   3.308   1.347   3.457 -0.4789 -1.5664 -0.5766
16192TIP3    H269992   3.266   1.379   3.599 -0.7391  1.1377 -1.2183
16193TIP3   OH269993   1.109   5.266  10.608 -0.0815 -0.1185  0.0651
16193TIP3    H169994   1.160   5.283  10.528 -0.6700 -1.1468 -0.5500
16193TIP3    H269995   1.162   5.204  10.657  0.6902  1.1662  0.9192
16194TIP3   OH269996   6.639   4.393   2.787 -0.2085 -0.2022  0.0897
16194TIP3    H169997   6.609   4.302   2.782 -0.1072 -0.1997 -0.8277
16194TIP3    H269998   6.569   4.439   2.832  0.1198 -0.8842  1.3490
16195TIP3   OH269999   6.081   1.814   0.441  0.3471  0.0342 -0.0997
16195TIP3    H170000   6.026   1.890   0.461 -0.0199  0.0055 -0.9600
16195TIP3    H270001   6.064   1.752   0.512 -2.0105 -0.6601 -1.1741
16196TIP3   OH270002   0.797   1.667  12.786 -0.4181  0.1764  0.0145
16196TIP3    H170003   0.812   1.664  12.691 -0.7189  1.8609 -0.1067
16196TIP3    H270004   0.868   1.614  12.823  0.8681  1.1130 -1.0327
16197TIP3   OH270005   2.406   1.656  15.233 -0.1377  0.1593 -0.0086
16197TIP3    H170006   2.370   1.700  15.309  2.1235 -1.7933  2.3852
16197TIP3    H270007   2.348   1.582  15.218  0.3539 -0.4366  0.9621
16198TIP3   OH270008   5.342   6.436   2.490 -0.3440 -0.1290 -0.2553
16198TIP3    H170009   5.255   6.474   2.503  0.9269  2.5070  1.3842
16198TIP3    H270010   5.369   6.405   2.576  0.0921 -1.6072 -0.8886
16199TIP3   OH270011   6.565   0.905  13.570  0.1551  0.0655  0.1583
16199TIP3    H170012   6.577   0.965  13.644  0.4818 -0.5501  0.6189
16199TIP3    H270013   6.607   0.949  13.496  1.2021  0.0083  0.6989
16200TIP3   OH270014   1.117   5.409  11.312 -0.1205 -0.2232  0.4764
16200TIP3    H170015   1.082   5.351  11.380 -1.1651 -0.8294 -0.5393
16200TIP3    H270016   1.186   5.359  11.270  2.1623  1.0009  2.5266
16201TIP3   OH270017   0.308   6.463  14.194  0.5617  0.0647  0.0412
16201TIP3    H170018   0.398   6.433  14.206  0.7054 -0.0272 -1.1536
16201TIP3    H270019   0.268   6.397  14.137  0.5561  1.4721 -1.6995
16202TIP3   OH270020   6.180   0.184  12.579  0.4718 -0.0976  0.7695
16202TIP3    H170021   6.110   0.205  12.641 -0.1933  1.4776 -0.4298
16202TIP3    H270022   6.180   0.257  12.518  1.8330 -1.0594 -0.4539
16203TIP3   OH270023   2.446   2.674   3.784 -0.3655  0.0957  0.1480
16203TIP3    H170024   2.498   2.613   3.731  0.1115 -1.6883  2.5029
16203TIP3    H270025   2.497   2.685   3.865 -1.6952  1.6280  0.8363
16204TIP3   OH270026   2.658   3.717   0.174 -0.5493  0.0143 -0.4787
16204TIP3    H170027   2.670   3.718   0.079 -0.8097 -0.3178 -0.5192
16204TIP3    H270028   2.707   3.792   0.206 -1.0707  0.5667 -0.9525
16205TIP3   OH270029   3.771   1.715   5.542  0.6519 -0.0550  0.2849
16205TIP3    H170030   3.762   1.621   5.525  1.0308 -0.0708  0.1526
16205TIP3    H270031   3.818   1.748   5.466  2.6298 -0.1658  1.4042
16206TIP3   OH270032   1.628   0.116  13.808  0.0104  0.0691  0.5048
16206TIP3    H170033   1.633   0.211  13.820  2.6410 -0.0778  1.3471
16206TIP3    H270034   1.536   0.095  13.820 -0.8679  2.6283 -0.8766
16207TIP3   OH270035   4.320   3.991  11.242  0.2567 -0.1228 -0.4595
16207TIP3    H170036   4.398   4.010  11.190  0.6518 -1.7505 -0.5389
16207TIP3    H270037   4.353   3.945  11.319 -0.5467  0.0484 -0.0015
16208TIP3   OH270038   3.450   2.769   1.315 -0.3683 -0.1773 -0.7128
16208TIP3    H170039   3.372   2.797   1.362  0.0300 -0.5220  0.1675
16208TIP3    H270040   3.523   2.804   1.365  0.0582 -0.0655 -1.3926
16209TIP3   OH270041   2.051   1.788  12.860  0.3314 -0.2099 -0.0613
16209TIP3    H170042   2.085   1.775  12.949  1.1896  0.1028 -0.3311
16209TIP3    H270043   2.129   1.794  12.805 -0.1888 -1.4895 -1.0070
16210TIP3   OH270044   6.534   6.474  15.459 -0.3840  0.2976  0.8167
16210TIP3    H170045   6.474   6.545  15.438  0.1550  0.9505  1.4630
16210TIP3    H270046   6.481   6.414  15.512 -1.3200 -0.6362 -1.0754
16211TIP3   OH270047   2.933   2.411   3.848 -0.0791 -0.3968  0.2467
16211TIP3    H170048   2.892   2.324   3.850  0.4682 -0.6452  0.9038
16211TIP3    H270049   2.951   2.432   3.939 -0.5766  0.5953  0.1254
16212TIP3   OH270050   1.334   1.067  12.699  0.1662  0.4034 -0.1725
16212TIP3    H170051   1.417   1.094  12.660  0.3701 -0.3417 -0.2814
16212TIP3    H270052   1.317   0.980  12.661 -1.0604  0.8644 -0.7600
16213TIP3   OH270053   5.929   3.107  13.583  0.0445  0.4369  0.6550
16213TIP3    H170054   5.853   3.165  13.585  0.6563  1.2886  2.7723
16213TIP3    H270055   5.981   3.133  13.659  1.7036 -1.1302  0.1441
16214TIP3   OH270056   2.769   1.140  13.394 -0.2640 -0.1481 -0.1803
16214TIP3    H170057   2.757   1.228  13.360  0.6768  0.2216  0.4263
16214TIP3    H270058   2.863   1.124  13.388 -0.4666 -1.2837 -0.6855
16215TIP3   OH270059   6.338   1.507   5.231 -0.2025 -0.2717 -0.3642
16215TIP3    H170060   6.320   1.480   5.321  1.0742 -0.4722 -0.1444
16215TIP3    H270061   6.340   1.602   5.234  1.8455 -0.2907  0.2823
16216TIP3   OH270062   3.233   0.745  10.916 -0.0567 -0.1830  0.1258
16216TIP3    H170063   3.269   0.717  11.001  0.9802 -0.8171 -0.4995
16216TIP3    H270064   3.241   0.667  10.860  0.2266  0.5251 -0.8412
16217TIP3   OH270065   0.639   5.760   0.248  0.0215  0.5700 -0.5514
16217TIP3    H170066   0.583   5.684   0.230  1.0587 -0.2479 -0.3836
16217TIP3    H270067   0.676   5.783   0.164 -0.5532  1.1226 -0.6643
16218TIP3   OH270068   6.305   2.898  17.303  0.0347 -0.0507 -0.1590
16218TIP3    H170069   6.229   2.893  17.361 -0.2604  1.6967 -0.3545
16218TIP3    H270070   6.380   2.896  17.362 -0.2256  0.2448  0.1899
16219TIP3   OH270071   4.852   3.759   2.953  0.0561 -0.0675 -0.7604
16219TIP3    H170072   4.790   3.706   3.002  0.4073  0.0703 -0.1524
16219TIP3    H270073   4.901   3.697   2.899  2.0944 -0.7341  1.6743
16220TIP3   OH270074   0.625   1.778   6.040 -0.6803  0.2540 -0.1555
16220TIP3    H170075   0.613   1.801   6.132  2.2934 -0.4969  0.5512
16220TIP3    H270076   0.631   1.682   6.040  0.7861  0.3136 -0.8559
16221TIP3   OH270077   3.397   5.718  11.795  0.6650  0.4446 -0.3203
16221TIP3    H170078   3.479   5.764  11.813  1.7017 -2.1036  2.1030
16221TIP3    H270079   3.373   5.746  11.707  2.0537  4.2124  0.2997
16222TIP3   OH270080   0.345   3.766   3.656 -0.2598  0.2010  0.1249
16222TIP3    H170081   0.333   3.749   3.563 -0.6716 -0.5206  0.2980
16222TIP3    H270082   0.335   3.680   3.697  1.6143  0.2090  0.6852
16223TIP3   OH270083   1.299   1.700  11.680 -0.3270 -0.4006 -0.0014
16223TIP3    H170084   1.387   1.717  11.716 -1.5577  2.7417  2.0119
16223TIP3    H270085   1.263   1.631  11.736  0.5059 -1.0022 -0.1933
16224TIP3   OH270086   1.231   3.192   3.736 -0.0336  0.3387  0.7832
16224TIP3    H170087   1.243   3.097   3.733  0.3939  0.4105 -0.6747
16224TIP3    H270088   1.201   3.215   3.648  1.7381  1.7606  0.4941
16225TIP3   OH270089   2.433   1.552   1.729  0.4082 -0.5587 -0.2438
16225TIP3    H170090   2.413   1.644   1.745  2.4012 -0.2664  0.9744
16225TIP3    H270091   2.460   1.548   1.637  0.9082  0.2166 -0.1392
16226TIP3   OH270092   6.235   5.526  14.985  0.2110  0.2561  0.1253
16226TIP3    H170093   6.261   5.439  14.954  0.4137 -0.1202  1.2971
16226TIP3    H270094   6.315   5.579  14.975  0.4105  0.0173  0.4462
16227TIP3   OH270095   6.488   2.786  12.475 -0.0551  0.1554 -0.1508
16227TIP3    H170096   6.513   2.703  12.435  0.3279 -0.5138  1.3929
16227TIP3    H270097   6.404   2.767  12.519 -1.1386  1.2140 -1.6647
16228TIP3   OH270098   1.047   0.742  10.504  0.1639  0.6178 -0.2184
16228TIP3    H170099   0.964   0.694  10.507  0.2441  0.4459 -0.6552
16228TIP3    H270100   1.031   0.821  10.557  0.0384  0.1047  0.5285
16229TIP3   OH270101   4.053   5.615   5.404  0.8330  0.1311 -0.2647
16229TIP3    H170102   4.101   5.638   5.324  0.9091 -0.2316 -0.3237
16229TIP3    H270103   4.014   5.698   5.432  0.5218  0.1970 -0.8646
16230TIP3   OH270104   4.849   4.680  11.104  0.2626 -0.2373  0.1325
16230TIP3    H170105   4.824   4.727  11.025  0.3278 -0.4348 -0.0056
16230TIP3    H270106   4.811   4.593  11.093 -0.6722  0.0646  0.8166
16231TIP3   OH270107   3.744   1.319   2.378 -0.2005 -0.0520  0.1747
16231TIP3    H170108   3.692   1.296   2.300 -0.3324  1.5292 -0.2305
16231TIP3    H270109   3.817   1.257   2.376 -0.5796 -0.5034 -0.8081
16232TIP3   OH270110   4.725   1.622   0.442  0.4955  0.1461 -0.4796
16232TIP3    H170111   4.699   1.670   0.521  1.8942  0.8584 -0.4034
16232TIP3    H270112   4.748   1.691   0.379 -0.8974 -0.4037 -1.6347
16233TIP3   OH270113   3.588   3.668  17.233  0.2245  0.1500 -0.2022
16233TIP3    H170114   3.525   3.708  17.293 -0.9405 -0.1031 -1.2168
16233TIP3    H270115   3.668   3.717  17.247  0.2154 -0.3303  2.0511
16234TIP3   OH270116   2.856   5.573  14.456 -0.0284 -0.2937  0.3573
16234TIP3    H170117   2.896   5.547  14.540 -0.6166 -1.6839  0.2436
16234TIP3    H270118   2.908   5.648  14.427  1.2857 -0.8518  1.1351
16235TIP3   OH270119   0.984   4.110  13.633  0.6056  0.1528  0.6478
16235TIP3    H170120   1.020   4.194  13.662  0.6628 -0.6639  3.2927
16235TIP3    H270121   0.890   4.116  13.652  0.5157 -0.1620  0.3156
16236TIP3   OH270122   1.110   2.469   3.076  0.2315 -0.1917  0.2443
16236TIP3    H170123   1.028   2.428   3.102  1.1113 -1.1541  1.5939
16236TIP3    H270124   1.152   2.407   3.017  0.1677  0.1364 -0.1540
16237TIP3   OH270125   6.440   4.935  17.262 -0.1330  0.0521 -0.4719
16237TIP3    H170126   6.463   5.014  17.213 -3.8183  1.3407 -0.4972
16237TIP3    H270127   6.386   4.884  17.202 -2.3474  0.2726  1.2106
16238TIP3   OH270128   1.751   5.991  14.555 -0.6362 -0.5547  0.1996
16238TIP3    H170129   1.797   6.048  14.617 -0.4805  0.3794 -0.7443
16238TIP3    H270130   1.735   5.910  14.604 -1.6631  0.5965  1.8831
16239TIP3   OH270131   5.110   0.900  12.948 -0.1715  0.0714  0.1485
16239TIP3    H170132   5.062   0.887  13.030 -1.6357 -0.7617 -0.7815
16239TIP3    H270133   5.170   0.826  12.943  0.5152  0.5690  0.8382
16240TIP3   OH270134   3.380   0.805   1.905 -0.5793  0.2880 -0.1220
16240TIP3    H170135   3.331   0.841   1.832  0.3022 -0.4324 -1.0877
16240TIP3    H270136   3.426   0.880   1.943 -3.8969  1.4490  2.1310
16241TIP3   OH270137   1.396   2.467  16.753  0.1146  0.5033 -0.0133
16241TIP3    H170138   1.474   2.509  16.787  1.5968 -0.1098 -2.4088
16241TIP3    H270139   1.357   2.532  16.694 -1.0380  0.6763  0.8956
16242TIP3   OH270140   0.491   3.968   3.788  0.4335  0.2759  0.0863
16242TIP3    H170141   0.423   4.001   3.847  0.5619 -1.1299  1.0463
16242TIP3    H270142   0.448   3.900   3.736  0.5345  0.9425 -0.9068
16243TIP3   OH270143   2.403   1.949  13.094  0.7054  0.1031 -0.6314
16243TIP3    H170144   2.416   2.044  13.093 -1.4973  0.4581 -0.1897
16243TIP3    H270145   2.475   1.915  13.041  2.8558  1.7999  0.9700
16244TIP3   OH270146   2.948   1.485   6.677  0.7383  0.5492 -0.1622
16244TIP3    H170147   2.916   1.399   6.702  1.4784  0.5259  0.7610
16244TIP3    H270148   2.987   1.472   6.590  1.7830 -0.2940  0.4099
16245TIP3   OH270149   4.258   4.949  16.026  0.3195 -0.5800  0.6502
16245TIP3    H170150   4.249   5.045  16.025  0.1027 -0.6017 -0.0156
16245TIP3    H270151   4.171   4.918  16.052 -0.3278 -0.6537 -1.4305
16246TIP3   OH270152   1.781   0.117  10.828 -0.2641 -0.3798 -0.2703
16246TIP3    H170153   1.869   0.144  10.801  0.3257 -0.4036  1.5061
16246TIP3    H270154   1.742   0.195  10.868 -0.1364 -0.9663  1.0643
16247TIP3   OH270155   2.934   5.925  12.229 -0.4454 -0.3028 -0.0191
16247TIP3    H170156   2.843   5.907  12.206 -0.9602 -1.3235  2.4305
16247TIP3    H270157   2.980   5.842  12.214 -0.3112 -0.3140  0.4382
16248TIP3   OH270158   2.783   5.659  12.574  0.3577  0.4328 -0.2103
16248TIP3    H170159   2.759   5.751  12.563 -2.4122 -0.1684 -0.0542
16248TIP3    H270160   2.699   5.613  12.582  1.6585 -1.8290  2.1247
16249TIP3   OH270161   4.407   1.516   3.093  0.3590  0.2692 -0.0849
16249TIP3    H170162   4.465   1.517   3.016  0.3754  1.7366 -0.0800
16249TIP3    H270163   4.353   1.595   3.083  0.8258  0.8562  1.7611
16250TIP3   OH270164   3.215   1.289  16.890  0.3548  0.3677  0.4064
16250TIP3    H170165   3.298   1.242  16.881 -0.6338 -1.4541  0.2453
16250TIP3    H270166   3.233   1.377  16.857  2.1088 -0.1039  0.0123
16251TIP3   OH270167   1.930   4.208   2.074 -0.3131  0.3423  0.1579
16251TIP3    H170168   2.019   4.216   2.040  0.2236  0.5401  1.5645
16251TIP3    H270169   1.922   4.117   2.100 -0.4603  0.3719  0.2182
16252TIP3   OH270170   0.257   3.411   4.791 -0.5295 -0.1559 -0.5977
16252TIP3    H170171   0.248   3.500   4.757 -0.4027 -0.3992 -1.2810
16252TIP3    H270172   0.314   3.421   4.868 -3.0439  0.7935  1.2901
16253TIP3   OH270173   0.554   1.498  15.097  0.1655 -0.0592 -0.4221
16253TIP3    H170174   0.626   1.551  15.064  0.6795 -0.4234  0.0957
16253TIP3    H270175   0.475   1.540  15.061  0.4940  1.5402  0.6027
16254TIP3   OH270176   0.724   1.419   5.487 -0.1088  0.0401 -0.1913
16254TIP3    H170177   0.708   1.356   5.557 -0.3733 -0.8421 -1.0163
16254TIP3    H270178   0.809   1.393   5.451  1.5416  2.3690  1.7121
16255TIP3   OH270179   4.898   1.296   3.713 -0.3497 -0.2736 -0.1221
16255TIP3    H170180   4.813   1.335   3.735  0.2508  0.3777  1.1550
16255TIP3    H270181   4.949   1.303   3.794  0.3861 -2.1206 -0.3684
16256TIP3   OH270182   0.547   0.337   4.216  0.0302 -0.0798  0.3264
16256TIP3    H170183   0.489   0.412   4.210  1.1598  0.8441  0.4686
16256TIP3    H270184   0.530   0.287   4.137 -1.0156  0.1119  0.4182
16257TIP3   OH270185   5.118   2.913   0.864 -0.1956  0.3697  0.3653
16257TIP3    H170186   5.157   2.841   0.914 -0.7673  0.1838  0.5548
16257TIP3    H270187   5.035   2.931   0.909  0.4225  1.8892  0.9987
16258TIP3   OH270188   5.282   2.053   3.266 -0.3414 -0.0607  0.0866
16258TIP3    H170189   5.334   2.108   3.324 -0.5016  1.1024 -0.8185
16258TIP3    H270190   5.284   2.099   3.182  0.7137 -2.1728 -1.1229
16259TIP3   OH270191   1.329   3.379   4.927  0.7274  0.4690 -0.0511
16259TIP3    H170192   1.247   3.395   4.973  2.1862  0.7139  2.7080
16259TIP3    H270193   1.319   3.424   4.843 -1.6079  1.2303  0.5576
16260TIP3   OH270194   5.449   3.723   6.072 -0.0072 -0.1675 -0.0190
16260TIP3    H170195   5.433   3.809   6.110 -0.2169  0.8503 -2.2213
16260TIP3    H270196   5.374   3.670   6.099 -0.5239  0.7193  0.3321
16261TIP3   OH270197   0.618   2.713  15.268 -0.2190 -0.4189  0.0624
16261TIP3    H170198   0.556   2.732  15.197 -0.1340  0.9233  0.3073
16261TIP3    H270199   0.575   2.645  15.319 -1.3439  0.2160  0.0101
16262TIP3   OH270200   0.754   4.770  12.228  0.4100  0.7013  0.5183
16262TIP3    H170201   0.662   4.759  12.252 -0.1158 -0.9278 -1.8786
16262TIP3    H270202   0.788   4.833  12.292 -2.5900  2.1104  0.9064
16263TIP3   OH270203   3.819   3.745  11.851 -0.2493  0.2513  0.1370
16263TIP3    H170204   3.845   3.730  11.760 -0.4322 -0.5158  0.2068
16263TIP3    H270205   3.898   3.726  11.902 -0.4972 -0.5518  0.2303
16264TIP3   OH270206   4.650   0.458   5.260 -0.2296 -0.3608 -0.4139
16264TIP3    H170207   4.600   0.439   5.339 -0.1901  0.6376 -0.1336
16264TIP3    H270208   4.714   0.524   5.287 -1.0285  0.9403 -1.5416
16265TIP3   OH270209   1.761   6.034  16.707  0.3445  0.3471 -0.5977
16265TIP3    H170210   1.730   5.945  16.691  1.4974  0.0968 -1.5903
16265TIP3    H270211   1.770   6.040  16.802  1.5012 -1.0616 -0.5801
16266TIP3   OH270212   5.718   3.488   5.293 -0.4056  0.2570 -0.6740
16266TIP3    H170213   5.733   3.558   5.230 -2.1472  0.3533 -1.0244
16266TIP3    H270214   5.763   3.412   5.256 -2.0041  0.1140 -2.4417
16267TIP3   OH270215   4.785   5.762   6.361  0.6968  0.0827 -0.1397
16267TIP3    H170216   4.837   5.817   6.302 -3.0625  2.2111 -1.8113
16267TIP3    H270217   4.749   5.823   6.426  0.2672 -1.3098  0.9990
16268TIP3   OH270218   4.670   3.455   1.232  0.1402  0.1068 -0.5618
16268TIP3    H170219   4.619   3.440   1.311 -1.2593  1.0725 -1.2269
16268TIP3    H270220   4.703   3.545   1.241  0.5966 -0.0418 -0.7388
16269TIP3   OH270221   1.768   5.766   2.908 -1.1012 -0.0577  0.4312
16269TIP3    H170222   1.703   5.834   2.894  0.6903  1.7757  0.4592
16269TIP3    H270223   1.797   5.778   2.999  0.3338  0.2138 -0.0257
16270TIP3   OH270224   5.059   3.184   6.010  0.8776 -0.2960 -0.0053
16270TIP3    H170225   5.023   3.268   5.982 -0.3435 -1.1549 -1.1021
16270TIP3    H270226   5.153   3.200   6.021  1.0142  0.7094 -2.2368
16271TIP3   OH270227   5.117   4.864  15.399 -0.2342  0.0844  0.1396
16271TIP3    H170228   5.161   4.904  15.324 -0.3879  1.5815  0.8020
16271TIP3    H270229   5.072   4.788  15.363 -1.2306  1.3884 -1.5373
16272TIP3   OH270230   2.301   6.249  14.574  0.1974  0.1788  0.0662
16272TIP3    H170231   2.343   6.313  14.516 -0.0296  0.3405  0.0801
16272TIP3    H270232   2.334   6.271  14.662  0.9910 -0.4265 -0.0668
16273TIP3   OH270233   4.304   5.312   3.530 -1.1211  0.0626 -0.2495
16273TIP3    H170234   4.250   5.249   3.579 -0.6103 -1.8979 -2.0644
16273TIP3    H270235   4.245   5.346   3.463 -0.4823 -1.1877 -1.4874
16274TIP3   OH270236   4.754   6.697  13.356  0.1198 -0.2793  0.3345
16274TIP3    H170237   4.697   6.742  13.418 -0.1497  0.8566 -0.6897
16274TIP3    H270238   4.742   6.604  13.374 -1.4782 -0.0291  0.6513
16275TIP3   OH270239   2.389   0.422  15.609 -0.1576 -0.6569 -0.3528
16275TIP3    H170240   2.469   0.408  15.661  0.2947  0.3362 -0.7468
16275TIP3    H270241   2.328   0.462  15.671  0.7403  1.5250 -0.7841
16276TIP3   OH270242   0.675   4.968   5.454  0.0031  0.3045  0.2240
16276TIP3    H170243   0.600   5.001   5.503 -0.5460  0.6858 -0.8311
16276TIP3    H270244   0.751   4.992   5.507 -0.6433 -0.6560  1.6117
16277TIP3   OH270245   3.385   4.077  16.707  0.0690 -0.1915  0.0363
16277TIP3    H170246   3.459   4.050  16.762  1.2091  1.3402 -0.6974
16277TIP3    H270247   3.310   4.029  16.743  1.0743 -0.4230  1.9389
16278TIP3   OH270248   4.709   3.770   2.071  0.4977  0.0280  1.0898
16278TIP3    H170249   4.655   3.836   2.029  0.5200  0.2309  1.3758
16278TIP3    H270250   4.694   3.782   2.165 -1.5020 -2.0306  1.1263
16279TIP3   OH270251   3.572   2.578  11.323 -0.4739  0.7178  0.2815
16279TIP3    H170252   3.655   2.622  11.344  0.4261  0.7864 -2.8915
16279TIP3    H270253   3.505   2.632  11.364  0.9293  1.4852  1.6963
16280TIP3   OH270254   5.951   2.337  11.931 -0.0242 -0.1012 -0.5739
16280TIP3    H170255   6.001   2.283  11.869 -0.5541 -2.0737  0.6485
16280TIP3    H270256   5.924   2.413  11.879  3.2634  0.5371 -1.5888
16281TIP3   OH270257   5.454   4.067   2.759 -0.1169 -0.2398 -0.1431
16281TIP3    H170258   5.415   4.153   2.743  0.8907  0.2374 -0.0908
16281TIP3    H270259   5.469   4.031   2.672  0.5456  0.1444 -0.1947
16282TIP3   OH270260   2.614   6.462   2.807 -0.2343 -0.1011  0.4022
16282TIP3    H170261   2.673   6.534   2.785  0.3089 -0.4756  0.6043
16282TIP3    H270262   2.669   6.384   2.802 -0.4457 -0.3499  1.6092
16283TIP3   OH270263   2.628   2.318  12.456  0.3461 -0.3749  0.0825
16283TIP3    H170264   2.556   2.358  12.504 -0.3027 -2.2836  0.8051
16283TIP3    H270265   2.704   2.332  12.512  0.3103  0.5288 -0.0726
16284TIP3   OH270266   3.973   4.034  16.295 -0.6176  0.4914  0.1241
16284TIP3    H170267   4.016   4.002  16.375 -1.1063 -2.6534 -0.7647
16284TIP3    H270268   3.880   4.031  16.315 -0.6870  1.2719 -0.0493
16285TIP3   OH270269   4.174   0.169  12.634  0.1542 -0.4718  0.0873
16285TIP3    H170270   4.245   0.149  12.695 -0.0232 -0.6842  0.2242
16285TIP3    H270271   4.189   0.110  12.560  0.8145  0.3110 -0.4286
16286TIP3   OH270272   2.729   5.184  14.260 -0.1523  0.0037  0.2295
16286TIP3    H170273   2.701   5.237  14.335  0.1088  1.2297 -0.5198
16286TIP3    H270274   2.687   5.099  14.274 -0.6799  0.4399  1.3955
16287TIP3   OH270275   1.410   6.070   2.890 -0.3926  1.0419  0.0591
16287TIP3    H170276   1.362   6.088   2.971  0.0874 -0.8505  0.8197
16287TIP3    H270277   1.419   6.156   2.848 -0.8583  2.0512  1.8945
16288TIP3   OH270278   0.945   3.653   2.523  0.3979  0.3928 -0.4053
16288TIP3    H170279   1.016   3.717   2.523  0.3577  0.4397 -0.7945
16288TIP3    H270280   0.982   3.576   2.479  0.4325  0.1631  0.0203
16289TIP3   OH270281   4.195   6.574  14.836  0.2159  0.2766  0.2668
16289TIP3    H170282   4.230   6.611  14.755 -0.0402  0.4442  0.2300
16289TIP3    H270283   4.247   6.614  14.906  4.1294 -3.7578  0.0664
16290TIP3   OH270284   4.310   0.166   2.897 -0.4719 -0.6134 -0.7576
16290TIP3    H170285   4.325   0.080   2.858  0.4936 -0.5928 -0.4601
16290TIP3    H270286   4.378   0.174   2.964 -1.7871 -0.4411  0.6024
16291TIP3   OH270287   5.344   1.174  12.310 -0.2892  0.4439 -0.5478
16291TIP3    H170288   5.396   1.178  12.390 -3.1654  0.6237  1.4659
16291TIP3    H270289   5.378   1.098  12.263  2.8501  1.5476 -0.2538
16292TIP3   OH270290   0.783   1.664  15.151 -0.2990 -0.1651  0.1207
16292TIP3    H170291   0.836   1.739  15.178  0.1362 -0.6150  0.5412
16292TIP3    H270292   0.699   1.676  15.195  0.2701 -0.6914  1.4038
16293TIP3   OH270293   0.121   1.260   1.790  0.3360 -0.7167  0.1479
16293TIP3    H170294   0.030   1.228   1.789 -0.0753  0.3411  1.4186
16293TIP3    H270295   0.173   1.182   1.770 -0.8441 -1.3124 -0.8012
16294TIP3   OH270296   3.382   5.510   4.629  0.4622  0.4179  0.1154
16294TIP3    H170297   3.295   5.471   4.630  0.3603  0.6211 -0.3905
16294TIP3    H270298   3.372   5.591   4.578  0.7092  1.0194  0.9888
16295TIP3   OH270299   0.787   2.837   0.061  0.5190  0.5361 -0.2860
16295TIP3    H170300   0.729   2.765   0.036  1.4606 -0.1675 -0.4930
16295TIP3    H270301   0.803   2.885  -0.020  0.2637  0.7159 -0.2334
16296TIP3   OH270302   5.878   0.314  13.792  0.3007 -0.1045  0.3122
16296TIP3    H170303   5.795   0.267  13.803  0.5471 -0.2905  1.4608
16296TIP3    H270304   5.876   0.382  13.859  1.8852 -1.2743  1.6114
16297TIP3   OH270305   1.762   6.163   1.741  0.6851 -0.1372  0.9957
16297TIP3    H170306   1.724   6.075   1.744 -0.5525  0.3503  0.1532
16297TIP3    H270307   1.689   6.222   1.757  1.3945  0.7791  0.9568
16298TIP3   OH270308   2.147   6.352   4.640 -0.0303  0.2425  0.1848
16298TIP3    H170309   2.171   6.430   4.690 -0.6818 -1.4707  3.4878
16298TIP3    H270310   2.217   6.289   4.658 -1.6872 -1.3603  1.3555
16299TIP3   OH270311   0.152   2.990   2.758  0.2635 -0.0103 -0.6848
16299TIP3    H170312   0.194   2.907   2.779 -0.9589 -0.6321 -0.6415
16299TIP3    H270313   0.152   3.040   2.840 -0.1368 -0.4756 -0.4023
16300TIP3   OH270314   1.579   3.311  15.908 -0.0615  0.1255  0.0502
16300TIP3    H170315   1.484   3.309  15.921 -0.7233 -2.1182 -3.4904
16300TIP3    H270316   1.607   3.221  15.921  1.7086  0.8284  1.4212
16301TIP3   OH270317   1.297   0.377  10.639  0.1046 -0.4269 -0.5264
16301TIP3    H170318   1.380   0.382  10.592  0.6473 -0.2027  0.4105
16301TIP3    H270319   1.285   0.284  10.657  0.0023 -0.4900 -0.9123
16302TIP3   OH270320   5.610   1.348   5.119  0.4960  0.1347  0.4394
16302TIP3    H170321   5.540   1.283   5.125  0.3130  0.4418  1.9706
16302TIP3    H270322   5.684   1.307   5.165  0.8725  0.3953  0.0726
16303TIP3   OH270323   5.361   3.464  12.503 -1.0345  0.0271  0.1707
16303TIP3    H170324   5.296   3.446  12.436  0.7588 -1.3515 -1.2957
16303TIP3    H270325   5.351   3.394  12.567  0.2820 -1.4144 -1.1191
16304TIP3   OH270326   4.392   3.224  15.799  0.1527  0.1170  0.2119
16304TIP3    H170327   4.360   3.304  15.843 -0.0196  0.2490 -0.1528
16304TIP3    H270328   4.448   3.257  15.729 -0.3360 -0.0680 -0.2670
16305TIP3   OH270329   3.467   3.565  12.615  0.1341 -0.2421  0.3259
16305TIP3    H170330   3.524   3.517  12.554 -0.1495 -1.9852  1.3432
16305TIP3    H270331   3.501   3.543  12.702  0.3350  1.9377  0.8503
16306TIP3   OH270332   2.421   0.229  14.343 -0.4737 -0.1618  0.5115
16306TIP3    H170333   2.407   0.143  14.302 -0.0375 -0.8102  1.6581
16306TIP3    H270334   2.359   0.230  14.417 -0.6488  0.6249  0.3658
16307TIP3   OH270335   3.627   1.697   2.062  0.0063 -0.2649  0.6304
16307TIP3    H170336   3.536   1.690   2.091  0.0268 -1.6440  0.4420
16307TIP3    H270337   3.626   1.765   1.994 -0.6533  0.5527  1.4343
16308TIP3   OH270338   2.294   3.362   3.934  0.0683  0.0775 -0.4793
16308TIP3    H170339   2.223   3.299   3.920  0.3029 -0.0616 -1.0815
16308TIP3    H270340   2.335   3.335   4.016  0.2187 -0.6010 -0.7746
16309TIP3   OH270341   5.701   2.270  12.029 -0.0519  0.1038 -0.1064
16309TIP3    H170342   5.676   2.274  11.937 -1.8555  0.2079  0.3423
16309TIP3    H270343   5.794   2.291  12.030 -0.0951  0.5166 -1.8606
16310TIP3   OH270344   1.046   3.514   2.301  0.5227  0.0884  0.3762
16310TIP3    H170345   0.975   3.450   2.293  0.1320  0.6372 -0.9054
16310TIP3    H270346   1.110   3.472   2.358 -0.7535 -0.4921  1.4224
16311TIP3   OH270347   4.309   6.566  16.147 -0.1721 -0.5225  0.3547
16311TIP3    H170348   4.298   6.534  16.237  0.0885 -0.9574  0.2377
16311TIP3    H270349   4.239   6.631  16.136 -0.8814 -1.2303  0.5290
16312TIP3   OH270350   5.959   1.582   2.489  0.0999 -0.2914 -0.4207
16312TIP3    H170351   5.972   1.495   2.526  0.6650 -0.4842 -1.0488
16312TIP3    H270352   5.894   1.623   2.546 -1.7155 -1.8259 -1.2836
16313TIP3   OH270353   0.257   0.966   1.130 -0.2755 -0.1125  0.0752
16313TIP3    H170354   0.294   1.043   1.173  1.8866  0.3544 -2.3407
16313TIP3    H270355   0.330   0.905   1.123 -0.9175 -0.7730 -1.4557
16314TIP3   OH270356   6.347   3.349   0.236 -0.3564 -0.9281  0.4257
16314TIP3    H170357   6.364   3.275   0.293 -0.5067 -1.3465 -0.0679
16314TIP3    H270358   6.356   3.315   0.147 -4.4514 -1.5025 -0.0044
16315TIP3   OH270359   0.987   6.436   4.208  0.5321 -0.2137 -0.1071
16315TIP3    H170360   1.021   6.522   4.234  0.1948  0.0309 -0.4665
16315TIP3    H270361   1.041   6.410   4.134  1.0293 -0.5913  0.3751
16316TIP3   OH270362   4.984   2.446  14.804 -0.0982 -0.0670  0.6127
16316TIP3    H170363   5.028   2.361  14.807  0.4117  0.1948  0.6049
16316TIP3    H270364   5.043   2.502  14.754 -0.9920 -0.0277 -0.4540
16317TIP3   OH270365   2.559   5.829  11.588 -0.7895  0.2786  0.2264
16317TIP3    H170366   2.482   5.873  11.553 -0.8642 -0.5558 -0.7030
16317TIP3    H270367   2.546   5.830  11.683 -1.2752  1.3349  0.1595
16318TIP3   OH270368   5.791   1.791   2.047  0.4102  0.5034 -0.2079
16318TIP3    H170369   5.702   1.758   2.064  0.5512 -0.2294 -0.8289
16318TIP3    H270370   5.802   1.862   2.109  0.5140 -1.3214  1.9953
16319TIP3   OH270371   5.651   3.644  16.889  0.9223 -0.0455 -0.1449
16319TIP3    H170372   5.742   3.672  16.900  0.5314  0.6621  1.5945
16319TIP3    H270373   5.599   3.724  16.900 -0.0076 -0.7604  0.8829
16320TIP3   OH270374   2.269   2.049   0.718  0.2095 -0.4888  0.4786
16320TIP3    H170375   2.247   2.142   0.715  1.9686 -0.0541 -1.2604
16320TIP3    H270376   2.349   2.045   0.770 -0.3610 -1.1729  1.3261
16321TIP3   OH270377   2.859   5.206   1.307 -0.4287  0.1580 -0.2363
16321TIP3    H170378   2.797   5.178   1.239 -1.8452  3.3366 -0.3932
16321TIP3    H270379   2.808   5.263   1.364  1.1317 -1.1592  2.6804
16322TIP3   OH270380   1.157   2.005  17.288  0.7568 -0.9324  0.3688
16322TIP3    H170381   1.104   1.934  17.323 -0.2761 -1.2086 -1.5919
16322TIP3    H270382   1.218   1.962  17.228  2.4725 -0.4841  1.7144
16323TIP3   OH270383   4.971   0.609   3.993  0.2334 -0.6955 -0.7340
16323TIP3    H170384   5.027   0.687   3.988 -0.7726 -0.0207 -2.0328
16323TIP3    H270385   4.997   0.567   4.075  0.3949  1.3130  0.3237
16324TIP3   OH270386   2.388   2.783  12.381  0.0628  0.4184  0.2838
16324TIP3    H170387   2.329   2.726  12.332 -0.3176  1.1364 -0.1042
16324TIP3    H270388   2.357   2.871  12.363  0.9914  0.7876  0.4126
16325TIP3   OH270389   2.348   4.709   0.078  0.2976 -0.5536 -0.1115
16325TIP3    H170390   2.298   4.655   0.139  0.2810 -3.4019 -2.3769
16325TIP3    H270391   2.283   4.746   0.019  0.4895 -0.0778 -0.0268
16326TIP3   OH270392   0.378   3.676   3.147  0.7770 -0.4003  0.3637
16326TIP3    H170393   0.338   3.691   3.062 -0.1724  0.7601  0.9869
16326TIP3    H270394   0.374   3.581   3.159  1.6367 -0.6782 -1.1953
16327TIP3   OH270395   5.054   6.324   0.910  0.5218 -0.2332 -0.4019
16327TIP3    H170396   5.119   6.254   0.912  0.5344 -0.3805  3.9543
16327TIP3    H270397   4.970   6.280   0.917  0.1239  0.0889 -2.6559
16328TIP3   OH270398   3.789   5.157  11.371 -0.2403 -0.3093  0.4938
16328TIP3    H170399   3.724   5.104  11.416  0.0205 -1.9614 -0.9652
16328TIP3    H270400   3.785   5.128  11.280 -0.1189  2.2524 -0.4192
16329TIP3   OH270401   0.729   1.491   5.066 -0.0123  0.7204  0.0430
16329TIP3    H170402   0.762   1.554   5.129 -0.4784 -0.0056  1.0299
16329TIP3    H270403   0.790   1.496   4.992  2.2139 -0.4413  1.6911
16330TIP3   OH270404   1.869   3.803  11.342 -0.5905  0.0601 -0.7405
16330TIP3    H170405   1.921   3.877  11.309  0.6822 -0.7233 -0.5706
16330TIP3    H270406   1.871   3.740  11.270 -0.0765 -0.5567 -0.2039
16331TIP3   OH270407   6.596   5.753   5.381 -0.4562 -0.1095 -0.2357
16331TIP3    H170408   6.538   5.689   5.339  0.4095 -0.8420 -0.3438
16331TIP3    H270409   6.638   5.799   5.308 -0.4991  0.0494 -0.1602
16332TIP3   OH270410   5.116   5.111   5.866  0.6844  0.0934  0.1968
16332TIP3    H170411   5.190   5.075   5.818 -0.9257 -1.8443 -1.0433
16332TIP3    H270412   5.053   5.136   5.798 -0.7623 -0.6375  1.1916
16333TIP3   OH270413   4.008   5.720  11.697 -0.1892  0.1376 -0.2487
16333TIP3    H170414   4.039   5.810  11.706  0.2073 -0.0276  0.0542
16333TIP3    H270415   3.912   5.728  11.696 -0.2843  0.3146  2.8656
16334TIP3   OH270416   0.003   3.261  17.167  0.0334  0.7847  0.0477
16334TIP3    H170417   0.080   3.205  17.157  0.2804  1.0972  0.1812
16334TIP3    H270418  -0.027   3.278  17.078  1.4207  2.4454 -0.1648
16335TIP3   OH270419   3.737   6.409  15.999 -0.1667 -0.2677  0.2584
16335TIP3    H170420   3.716   6.501  16.010 -0.4459 -0.4503  1.3599
16335TIP3    H270421   3.737   6.395  15.904  0.1143  0.9061  0.0727
16336TIP3   OH270422   2.585   1.679  13.483 -0.0818 -0.0987  0.5596
16336TIP3    H170423   2.548   1.744  13.424  0.5186  0.0578  0.3539
16336TIP3    H270424   2.555   1.706  13.570 -0.3356  0.1041  0.4097
16337TIP3   OH270425   6.013   6.553   5.041  0.3120  0.0445  0.4499
16337TIP3    H170426   6.013   6.489   5.113 -0.9279 -0.2828  0.1965
16337TIP3    H270427   6.070   6.624   5.071  3.1790 -1.9114  0.0369
16338TIP3   OH270428   6.701   6.528  14.644  0.6704  0.4748  0.3912
16338TIP3    H170429   6.731   6.499  14.558  0.5098  1.1848  0.0880
16338TIP3    H270430   6.770   6.589  14.674  0.1400  1.1741  0.2213
16339TIP3   OH270431   1.252   0.054  15.804 -0.0860 -0.0857  0.6020
16339TIP3    H170432   1.178   0.096  15.848  0.0344 -1.5221  2.2817
16339TIP3    H270433   1.328   0.103  15.835 -0.1072 -0.3058  1.0017
16340TIP3   OH270434   6.145   0.203  12.975  0.5352  0.6876  0.1146
16340TIP3    H170435   6.228   0.163  12.948  1.1843  1.3485  1.0774
16340TIP3    H270436   6.123   0.159  13.057 -0.6385 -0.2418 -0.6769
16341TIP3   OH270437   3.443   4.221  13.152  0.4707 -0.9371 -0.5740
16341TIP3    H170438   3.403   4.134  13.157 -1.6133  0.0015  0.1405
16341TIP3    H270439   3.409   4.268  13.228 -0.0042  1.1148 -1.9664
16342TIP3   OH270440   2.631   6.224   1.336 -0.1834  0.3971 -0.2454
16342TIP3    H170441   2.660   6.316   1.331 -1.7078  0.8993 -0.4436
16342TIP3    H270442   2.627   6.195   1.245 -0.6586  0.4637 -0.2496
16343TIP3   OH270443   0.625   0.085   0.523 -0.4761 -0.2254 -0.2839
16343TIP3    H170444   0.689   0.115   0.458  0.2682 -1.0104  0.0677
16343TIP3    H270445   0.618   0.159   0.585  2.4047 -1.1473  1.3639
16344TIP3   OH270446   0.026   5.361   4.857 -0.5938  0.0778  0.8911
16344TIP3    H170447  -0.024   5.285   4.884  0.4172 -1.1410 -0.5060
16344TIP3    H270448   0.083   5.381   4.932  0.7094 -1.9610  0.5205
16345TIP3   OH270449   3.204   1.660   4.189  0.2791  0.2814 -0.7638
16345TIP3    H170450   3.189   1.738   4.135 -1.6702  2.0522  2.0777
16345TIP3    H270451   3.282   1.680   4.240 -1.1107  1.2098  1.1306
16346TIP3   OH270452   4.105   4.841   2.131  0.1612 -0.0069 -0.0791
16346TIP3    H170453   4.167   4.843   2.204  0.4681  1.5119 -0.3441
16346TIP3    H270454   4.019   4.853   2.173  0.4051  1.6625  0.0090
16347TIP3   OH270455   3.955   3.745  16.092  0.0510  0.1962 -0.0369
16347TIP3    H170456   3.945   3.674  16.156  0.0796  1.3966  1.3432
16347TIP3    H270457   3.909   3.819  16.131 -2.6037  0.1920 -2.7716
16348TIP3   OH270458   4.199   6.246  11.896 -0.1024  0.0051 -0.8264
16348TIP3    H170459   4.121   6.298  11.876 -0.0499 -0.0937 -1.2794
16348TIP3    H270460   4.170   6.187  11.967  0.0972  1.2835  0.3682
16349TIP3   OH270461   1.281   1.382  15.862 -0.0385 -0.1846  0.6188
16349TIP3    H170462   1.326   1.330  15.929  0.0710  0.6444  1.2057
16349TIP3    H270463   1.196   1.403  15.900  0.2695  0.8262  0.7661
16350TIP3   OH270464   5.856   1.206  14.482  0.2475 -0.1955  0.2197
16350TIP3    H170465   5.830   1.175  14.569  0.6034  1.0954  0.8070
16350TIP3    H270466   5.886   1.127  14.437 -1.1982 -1.1061  0.7844
16351TIP3   OH270467   1.945   0.754   5.307  0.1538 -0.0515  0.6676
16351TIP3    H170468   1.927   0.674   5.358 -0.4504  0.2265  0.9022
16351TIP3    H270469   1.907   0.736   5.221 -0.0916  0.0279  0.7578
16352TIP3   OH270470   2.196   0.267   5.026 -0.1496 -0.0409 -0.1412
16352TIP3    H170471   2.161   0.305   4.945 -0.0304 -0.3597 -0.3451
16352TIP3    H270472   2.146   0.186   5.039  1.5895 -1.3864 -1.3419
16353TIP3   OH270473   3.337   4.586  16.031 -0.6210 -0.2815  0.4348
16353TIP3    H170474   3.282   4.507  16.025 -1.0406  0.0767 -0.7705
16353TIP3    H270475   3.331   4.625  15.944  0.9471  0.1819  0.5114
16354TIP3   OH270476   4.374   2.338   1.080  0.2274 -0.3685 -0.4697
16354TIP3    H170477   4.414   2.401   1.141 -1.0482 -1.0614  1.1610
16354TIP3    H270478   4.429   2.260   1.086 -0.1594 -0.6009  0.1943
16355TIP3   OH270479   1.661   4.017  13.859  0.2804  0.2311  0.2275
16355TIP3    H170480   1.590   3.953  13.851  0.2302  0.0580  1.7813
16355TIP3    H270481   1.708   3.991  13.938  1.0179  1.3704  0.1793
16356TIP3   OH270482   6.044   1.582  12.468  0.2696  0.6568  0.2147
16356TIP3    H170483   6.054   1.487  12.481 -1.8980  0.3592 -0.0421
16356TIP3    H270484   6.099   1.621  12.537  2.0567 -0.7412 -0.3385
16357TIP3   OH270485   4.576   0.102   3.136  0.3832  0.2073  0.4454
16357TIP3    H170486   4.590   0.055   3.054  1.6293 -0.3340  0.9432
16357TIP3    H270487   4.588   0.194   3.113 -2.0984  0.3523 -0.5391
16358TIP3   OH270488   5.039   6.651   2.041  0.6469  0.5252 -0.3736
16358TIP3    H170489   5.099   6.668   2.114  0.8432 -3.6209  0.6554
16358TIP3    H270490   4.955   6.634   2.082  0.1366  0.5602 -1.3626
16359TIP3   OH270491   1.684   5.202  15.489  0.0107  0.2645  0.1525
16359TIP3    H170492   1.758   5.263  15.496 -0.0259  0.3449 -0.1358
16359TIP3    H270493   1.651   5.215  15.400 -1.3393  1.3659  0.7750
16360TIP3   OH270494   5.802   4.102   1.141  0.9356 -0.0322  0.8122
16360TIP3    H170495   5.894   4.113   1.115  1.3816 -3.3283  0.4772
16360TIP3    H270496   5.805   4.087   1.235  0.9727 -1.3586  0.6316
16361TIP3   OH270497   0.607   4.244   4.044 -0.2269  0.5900  0.0335
16361TIP3    H170498   0.548   4.265   3.972  1.0274  1.3427 -0.8202
16361TIP3    H270499   0.690   4.220   4.002 -0.3299 -2.0147  1.1299
16362TIP3   OH270500   3.123   0.252  16.441  1.0074  0.1750 -0.0772
16362TIP3    H170501   3.199   0.303  16.411  0.5244  0.9894  0.0717
16362TIP3    H270502   3.053   0.277  16.381  1.2184 -1.7450 -1.2159
16363TIP3   OH270503   0.991   1.842  13.400 -0.4342  0.4283  0.6679
16363TIP3    H170504   0.993   1.763  13.345  1.4499  0.4803  0.5636
16363TIP3    H270505   1.052   1.822  13.471 -0.2953  1.5978  0.8983
16364TIP3   OH270506   6.101   3.545  12.995 -0.3051 -0.2642 -0.4779
16364TIP3    H170507   6.026   3.603  13.008  0.0039  0.0628 -0.1240
16364TIP3    H270508   6.104   3.531  12.900 -0.2409  0.4916 -0.5968
16365TIP3   OH270509   3.696   4.769  17.293 -0.2943  0.1215 -0.0952
16365TIP3    H170510   3.740   4.821  17.361  0.4548  0.8157 -1.0887
16365TIP3    H270511   3.617   4.819  17.273 -1.1178 -0.6762  1.0661
16366TIP3   OH270512   6.764   4.324   6.097 -0.4379 -0.1807 -0.1706
16366TIP3    H170513   6.856   4.346   6.110 -0.4548  0.0118 -0.3686
16366TIP3    H270514   6.741   4.272   6.174  0.2488 -1.6007 -0.8905
16367TIP3   OH270515   5.934   5.202  12.823  0.7089 -0.5618  0.1916
16367TIP3    H170516   5.996   5.271  12.801  0.8134 -0.5726  0.4503
16367TIP3    H270517   5.860   5.216  12.763 -0.0539  0.8459  1.3953
16368TIP3   OH270518   1.483   5.385  13.192  0.5023  0.3884  0.5781
16368TIP3    H170519   1.534   5.465  13.202 -1.4465  1.8211 -0.2956
16368TIP3    H270520   1.394   5.410  13.216 -0.8002 -0.6820 -2.6329
16369TIP3   OH270521   3.522   3.787  11.676 -0.2490 -0.2928 -0.2105
16369TIP3    H170522   3.590   3.827  11.729 -0.2868 -0.2937 -0.1608
16369TIP3    H270523   3.498   3.854  11.612  1.3940 -1.0507 -1.7067
16370TIP3   OH270524   2.075   6.766   3.692  0.5163 -0.0581  0.0152
16370TIP3    H170525   2.014   6.809   3.752 -0.9412 -0.3799 -1.1633
16370TIP3    H270526   2.102   6.686   3.738 -1.0026 -0.5782  0.0723
16371TIP3   OH270527   1.937   5.230   2.599 -0.3453 -0.7042  0.1766
16371TIP3    H170528   1.955   5.230   2.693 -0.0710  0.0822  0.1368
16371TIP3    H270529   1.848   5.196   2.591 -0.1633 -1.2968  0.6726
16372TIP3   OH270530   0.601   4.912  16.927  0.0031 -0.1354  0.2579
16372TIP3    H170531   0.642   4.840  16.879  1.4659  0.7538  0.1039
16372TIP3    H270532   0.650   4.916  17.010 -0.3807  0.3657  0.4648
16373TIP3   OH270533   4.700   4.818  11.862  0.0846 -0.7560 -0.0968
16373TIP3    H170534   4.667   4.877  11.795  0.4675 -0.7167 -0.2492
16373TIP3    H270535   4.764   4.870  11.911 -0.4482 -0.6659  0.5330
16374TIP3   OH270536   1.105   1.828   6.497 -0.2432  0.0019  0.0065
16374TIP3    H170537   1.082   1.783   6.415 -0.2745  1.6306 -0.9132
16374TIP3    H270538   1.201   1.831   6.496 -0.2648  0.7097 -0.3684
16375TIP3   OH270539   1.660   1.236   4.969 -0.7608  0.2283  0.3616
16375TIP3    H170540   1.711   1.313   4.993  1.7910 -1.5252  1.1084
16375TIP3    H270541   1.590   1.232   5.034 -0.7852  1.7697  0.4570
16376TIP3   OH270542   2.340   3.422   4.207  0.7099  0.1956  0.5132
16376TIP3    H170543   2.337   3.491   4.141  0.6831  0.4883  0.8236
16376TIP3    H270544   2.404   3.452   4.271 -1.3008  1.2407  2.1115
16377TIP3   OH270545   0.112   2.515  11.184 -0.3203 -0.8168  0.1429
16377TIP3    H170546   0.038   2.455  11.175 -0.3856 -0.4052 -3.3698
16377TIP3    H270547   0.087   2.593  11.135  2.1431 -0.3804 -0.5904
16378TIP3   OH270548   4.236   0.740   4.442 -0.5397 -0.4911 -0.0106
16378TIP3    H170549   4.195   0.767   4.524  0.5682  1.3538 -0.0003
16378TIP3    H270550   4.163   0.709   4.388 -1.7384  1.1234  0.5916
16379TIP3   OH270551   2.606   0.570  14.245  0.6100 -0.2395 -0.2089
16379TIP3    H170552   2.580   0.619  14.322  0.1184 -0.1126 -0.4514
16379TIP3    H270553   2.667   0.504  14.277  1.5366  0.7302  0.0740
16380TIP3   OH270554   3.360   3.533   4.030  0.3994 -0.4869 -0.1783
16380TIP3    H170555   3.275   3.506   3.997  0.7140 -1.0665 -0.5462
16380TIP3    H270556   3.353   3.526   4.125 -0.0327 -0.3143 -0.1996
16381TIP3   OH270557   5.017   1.639   0.900 -0.4095  0.1931  0.1289
16381TIP3    H170558   5.011   1.579   0.974 -1.3672 -2.0508 -1.6399
16381TIP3    H270559   4.927   1.652   0.872 -0.0726  1.1018 -0.5842
16382TIP3   OH270560   1.836   0.257  11.549 -0.3912  0.1689 -0.1515
16382TIP3    H170561   1.852   0.351  11.553 -0.1228  0.1126  0.1376
16382TIP3    H270562   1.920   0.218  11.573 -0.1279 -0.1507 -1.4961
16383TIP3   OH270563   4.445   0.613   1.504  0.2717 -0.3613  0.5436
16383TIP3    H170564   4.461   0.706   1.523  1.4642 -0.4152 -0.0650
16383TIP3    H270565   4.368   0.591   1.556 -0.1496  1.0170  0.5621
16384TIP3   OH270566   1.480   5.326   5.176  0.3015 -0.3404 -0.0060
16384TIP3    H170567   1.423   5.395   5.143  2.0602  1.6606  0.8374
16384TIP3    H270568   1.425   5.274   5.234 -1.3198 -0.2862 -1.4362
16385TIP3   OH270569   2.771   5.198  13.093  0.0461 -0.0427  0.3229
16385TIP3    H170570   2.833   5.246  13.038 -1.0917  1.4394  0.2730
16385TIP3    H270571   2.700   5.174  13.034 -0.0315 -0.6338  0.6460
16386TIP3   OH270572   5.440   1.627  14.247  0.3960  0.1408 -0.1274
16386TIP3    H170573   5.396   1.562  14.302  1.2006  0.8453  1.3963
16386TIP3    H270574   5.530   1.628  14.278  1.1298 -0.1139 -2.1162
16387TIP3   OH270575   0.851   5.665   1.568  0.4137 -0.2116 -0.3362
16387TIP3    H170576   0.840   5.727   1.640 -2.0849 -1.3113  0.3316
16387TIP3    H270577   0.904   5.594   1.605  0.1140 -0.2281  0.0614
16388TIP3   OH270578   5.760   4.708   2.150 -0.3262 -0.0043 -0.1699
16388TIP3    H170579   5.707   4.657   2.090 -0.4259  0.8134 -0.7956
16388TIP3    H270580   5.804   4.773   2.095 -1.0132  1.2569  0.7185
16389TIP3   OH270581   4.295   1.513   6.088 -0.1638  0.0554  0.3326
16389TIP3    H170582   4.201   1.528   6.075 -0.5083 -0.8463  1.6148
16389TIP3    H270583   4.301   1.422   6.116  1.1046  0.1012  0.2515
16390TIP3   OH270584   1.503   4.477   0.544  0.0496 -0.4828  0.1395
16390TIP3    H170585   1.455   4.554   0.512  1.5365  0.4073 -0.0378
16390TIP3    H270586   1.436   4.410   0.555 -0.9582  0.0746 -2.0593
16391TIP3   OH270587   5.372   4.380  16.785 -0.3869 -0.6310 -0.1547
16391TIP3    H170588   5.286   4.350  16.756 -0.9856  0.3719  0.5230
16391TIP3    H270589   5.380   4.349  16.875 -1.5418  2.1206  1.0047
16392TIP3   OH270590   0.967   2.169   6.047  0.1768 -0.6320  0.2544
16392TIP3    H170591   0.901   2.101   6.062 -0.5413 -0.1310 -0.5306
16392TIP3    H270592   0.930   2.223   5.977  0.7081  0.6043  0.9026
16393TIP3   OH270593   5.812   2.755  10.924 -0.4960  0.8101 -0.1634
16393TIP3    H170594   5.770   2.710  10.850 -0.3498  0.5071 -0.0653
16393TIP3    H270595   5.889   2.796  10.887  0.2081 -0.2926  0.0241
16394TIP3   OH270596   3.555   6.554   5.989 -0.0943  0.1114  0.4970
16394TIP3    H170597   3.547   6.555   5.893 -3.3613 -2.4283  0.5836
16394TIP3    H270598   3.584   6.465   6.009  0.2743  0.5286  1.9096
16395TIP3   OH270599   6.405   0.874  10.689  0.0820 -0.4916 -0.1852
16395TIP3    H170600   6.496   0.881  10.717  0.6975 -0.3248 -2.0652
16395TIP3    H270601   6.356   0.924  10.754  1.5109  0.6167  0.0987
16396TIP3   OH270602   6.123   1.355   0.181  0.3212 -0.0686 -0.0726
16396TIP3    H170603   6.051   1.419   0.177 -0.7531 -1.2805 -1.1224
16396TIP3    H270604   6.177   1.376   0.105 -0.8685 -1.3008 -1.3123
16397TIP3   OH270605   6.365   3.977   3.117 -0.6447  0.2806  0.2110
16397TIP3    H170606   6.314   3.939   3.046 -0.5522  2.6715 -1.2279
16397TIP3    H270607   6.313   4.052   3.147  0.1999  0.4219  1.4023
16398TIP3   OH270608   3.304   3.557  16.323  0.1816 -0.1204  0.0206
16398TIP3    H170609   3.375   3.621  16.334 -0.3681  0.4565  0.3170
16398TIP3    H270610   3.294   3.518  16.410  1.1388 -1.3048 -0.3724
16399TIP3   OH270611   3.672   2.306   0.069 -0.1470  0.2602 -0.4100
16399TIP3    H170612   3.767   2.314   0.073  0.0349 -1.4926 -0.5333
16399TIP3    H270613   3.655   2.211   0.068 -1.8687  0.5283 -0.9145
16400TIP3   OH270614   5.057   0.315  11.256 -0.0231 -0.4629 -0.1055
16400TIP3    H170615   5.108   0.396  11.262 -0.9498  0.1605 -0.4321
16400TIP3    H270616   4.984   0.337  11.199 -0.8645 -1.2390  0.6421
16401TIP3   OH270617   1.289   4.382   5.628 -0.7452 -0.4580  0.1938
16401TIP3    H170618   1.227   4.453   5.643 -1.8166 -1.1897 -0.6170
16401TIP3    H270619   1.375   4.423   5.639 -1.3132  1.0950 -0.7692
16402TIP3   OH270620   2.897   4.008  16.906 -0.2922 -0.3827  0.1476
16402TIP3    H170621   2.846   3.930  16.882 -0.6009 -0.6793  1.6483
16402TIP3    H270622   2.939   3.984  16.989  0.6715  0.5948 -0.0345
16403TIP3   OH270623   5.863   3.586   4.849  0.3838 -0.0315 -0.7176
16403TIP3    H170624   5.905   3.672   4.848 -1.5946  1.1962  2.9889
16403TIP3    H270625   5.894   3.546   4.930 -2.4414 -0.6687  0.1418
16404TIP3   OH270626   2.401   2.334   4.374  0.1901 -0.4024  0.2855
16404TIP3    H170627   2.306   2.335   4.362  0.3510  2.0232 -1.3560
16404TIP3    H270628   2.432   2.409   4.324  2.8139  0.0758  2.4389
16405TIP3   OH270629   6.429   5.696  12.160 -0.0147 -0.2234 -0.0030
16405TIP3    H170630   6.341   5.705  12.195  0.5814 -0.4275  1.6522
16405TIP3    H270631   6.487   5.709  12.236  1.3495 -0.8529 -0.8857
16406TIP3   OH270632   3.712   2.930  14.302 -0.2394  0.3777  0.4414
16406TIP3    H170633   3.713   2.857  14.240  0.5154  0.4555  0.3403
16406TIP3    H270634   3.800   2.929  14.341 -0.5649  0.5974  1.1973
16407TIP3   OH270635   1.793   3.734   3.485 -0.1384 -0.6412 -0.8562
16407TIP3    H170636   1.880   3.725   3.523 -0.8204 -0.8137  0.7282
16407TIP3    H270637   1.785   3.827   3.466  0.5587 -0.6956 -1.4716
16408TIP3   OH270638   5.116   4.007  17.227 -0.5750  0.3708  0.1047
16408TIP3    H170639   5.111   3.915  17.253 -1.6483 -0.1241 -1.6351
16408TIP3    H270640   5.028   4.041  17.240 -1.1854  0.0820 -2.6497
16409TIP3   OH270641   2.309   4.006   6.193  0.4254 -0.3854  0.3646
16409TIP3    H170642   2.395   4.043   6.210  0.7785 -2.1021  2.7702
16409TIP3    H270643   2.260   4.020   6.274 -1.5436  0.3589 -0.8748
16410TIP3   OH270644   4.494   2.835   1.348 -0.6028 -0.2076  0.0136
16410TIP3    H170645   4.501   2.923   1.310  1.6016 -0.5881 -0.5997
16410TIP3    H270646   4.481   2.851   1.441  2.1462  0.8612  0.2983
16411TIP3   OH270647   2.927   4.608   2.446  0.1445  0.4353  0.2104
16411TIP3    H170648   2.983   4.660   2.388 -0.1151  1.0226  0.4706
16411TIP3    H270649   2.967   4.617   2.532 -0.0137  0.3666  0.2918
16412TIP3   OH270650   5.049   4.925  14.785 -0.2594  0.0419  0.4646
16412TIP3    H170651   5.081   5.005  14.827 -1.5620  0.0844  1.4333
16412TIP3    H270652   5.073   4.855  14.846  0.4832 -0.2718 -0.1685
16413TIP3   OH270653   5.105   6.667  14.657 -0.2995 -0.6351  0.1162
16413TIP3    H170654   5.176   6.732  14.659  1.1611 -2.1677  0.5379
16413TIP3    H270655   5.054   6.690  14.579  0.5297  0.6382 -0.0872
16414TIP3   OH270656   6.280   0.908  12.018 -0.4334 -0.8220  0.1400
16414TIP3    H170657   6.201   0.903  11.964 -0.1687  0.9805 -0.4618
16414TIP3    H270658   6.281   0.997  12.052  0.8901 -1.0856  0.8727
16415TIP3   OH270659   6.741   2.022   0.830  0.0462  0.1669 -0.1852
16415TIP3    H170660   6.662   1.977   0.861 -0.7377  0.6712 -1.3726
16415TIP3    H270661   6.749   1.995   0.738  0.4589  1.2124 -0.4677
16416TIP3   OH270662   5.091   2.067  14.318 -0.5242  0.6726  0.2218
16416TIP3    H170663   5.147   2.045  14.393 -2.1142  0.4748  1.4229
16416TIP3    H270664   5.031   1.993  14.311 -0.4174  0.7031 -1.2770
16417TIP3   OH270665   0.818   5.336   0.138  0.4970  0.3025  0.4724
16417TIP3    H170666   0.872   5.350   0.216 -0.5603  0.0821  1.2721
16417TIP3    H270667   0.771   5.255   0.155  0.9301 -0.2440 -0.8164
16418TIP3   OH270668   0.500   5.744   4.035 -0.3724  0.1260 -0.0167
16418TIP3    H170669   0.470   5.701   4.115 -2.2247 -0.0167 -0.7408
16418TIP3    H270670   0.506   5.837   4.058 -2.3495  0.3091 -0.0583
16419TIP3   OH270671   3.069   3.997   2.529  0.5722 -0.4041  0.6450
16419TIP3    H170672   3.109   3.910   2.524 -1.4057 -1.3357 -0.3373
16419TIP3    H270673   3.072   4.029   2.439  0.3745  0.0919  0.8133
16420TIP3   OH270674   2.110   3.980   4.906 -0.1479 -0.4440  0.0488
16420TIP3    H170675   2.042   3.968   4.840  0.6681  0.3531 -0.9879
16420TIP3    H270676   2.099   3.906   4.965 -1.6925 -0.5110 -0.2690
16421TIP3   OH270677   4.923   0.398  12.888  0.0458 -0.2193 -0.0717
16421TIP3    H170678   4.871   0.478  12.877  0.2415  0.1500  1.5486
16421TIP3    H270679   4.962   0.384  12.801 -1.8615  0.0945 -1.0325
16422TIP3   OH270680   6.587   3.703  16.949  0.3963 -0.0967  0.8093
16422TIP3    H170681   6.662   3.746  16.989  0.4228  0.8583 -0.2263
16422TIP3    H270682   6.533   3.675  17.023  0.3018  1.8670  1.5463
16423TIP3   OH270683   0.337   4.758   2.295 -0.2302  0.6634 -0.3432
16423TIP3    H170684   0.403   4.692   2.314  0.4333  0.8743 -1.7555
16423TIP3    H270685   0.253   4.711   2.296  0.1008  0.0829 -0.0376
16424TIP3   OH270686   4.499   2.061   5.323  0.7445 -0.1134 -0.1418
16424TIP3    H170687   4.470   2.026   5.407  0.3793  0.1446 -0.1575
16424TIP3    H270688   4.463   2.000   5.258  0.4617  0.0550 -0.1456
16425TIP3   OH270689   2.027   5.320   4.160 -0.1997  0.1933  0.4027
16425TIP3    H170690   2.087   5.357   4.096 -0.6941  0.5899  0.1647
16425TIP3    H270691   2.073   5.331   4.244  1.0351 -1.5382 -0.0023
16426TIP3   OH270692   0.672   2.580   0.026  0.6790 -0.3177 -0.0215
16426TIP3    H170693   0.664   2.494   0.065  2.2497 -0.3455  0.2926
16426TIP3    H270694   0.615   2.637   0.079  1.4217 -0.7019  1.2013
16427TIP3   OH270695   1.296   0.645   1.039 -0.5387 -0.4353 -0.0932
16427TIP3    H170696   1.361   0.658   0.970 -0.6686 -1.8003 -0.5055
16427TIP3    H270697   1.216   0.687   1.005 -0.7456 -1.5297 -1.0244
16428TIP3   OH270698   1.514   0.407   3.712  0.4278 -0.5109  0.0220
16428TIP3    H170699   1.496   0.402   3.618 -1.6006  1.7952  0.2044
16428TIP3    H270700   1.434   0.376   3.754 -0.3976  2.5525  0.9145
16429TIP3   OH270701   5.837   2.517   1.742 -0.1532  1.3935 -0.2892
16429TIP3    H170702   5.806   2.502   1.831  0.3866  0.7917 -0.1944
16429TIP3    H270703   5.791   2.453   1.688 -2.6432  3.5672 -0.9554
16430TIP3   OH270704   1.701   0.967   4.119 -0.0550 -0.4680  0.3107
16430TIP3    H170705   1.733   1.004   4.037 -1.3662 -1.0476 -0.5023
16430TIP3    H270706   1.715   0.873   4.111 -0.9629 -0.6229  0.3671
16431TIP3   OH270707   2.064   2.027   6.323 -0.0403  0.2599  1.0906
16431TIP3    H170708   1.985   1.979   6.299 -0.7697  0.9117  2.1103
16431TIP3    H270709   2.096   2.063   6.240 -1.0564  0.3527  0.7221
16432TIP3   OH270710   6.614   2.679  16.474 -0.4791  0.4776 -0.2199
16432TIP3    H170711   6.706   2.663  16.454 -0.5789  0.9372 -1.1261
16432TIP3    H270712   6.589   2.608  16.533  1.5194  2.5455  3.4533
16433TIP3   OH270713   6.174   1.288  15.650 -0.3842 -0.3045 -0.4007
16433TIP3    H170714   6.166   1.299  15.745  0.8503 -1.0594 -0.1885
16433TIP3    H270715   6.089   1.316  15.616 -1.6531 -2.0683  1.0899
16434TIP3   OH270716   1.051   1.278   2.603 -0.2725 -0.2994  0.4139
16434TIP3    H170717   0.997   1.341   2.651  0.2325  2.1568 -2.0192
16434TIP3    H270718   0.989   1.213   2.570 -1.1679  0.2727  0.9383
16435TIP3   OH270719   6.311   4.053   2.636  0.1111 -0.4276 -0.0415
16435TIP3    H170720   6.322   4.147   2.641  1.1280 -0.4984 -0.6487
16435TIP3    H270721   6.281   4.037   2.546  0.9950 -0.7505 -0.2964
16436TIP3   OH270722   0.793   0.569   0.835 -0.1400  0.2475  0.4510
16436TIP3    H170723   0.881   0.604   0.848  1.0561 -1.1561 -2.7404
16436TIP3    H270724   0.735   0.644   0.844  1.7013  1.8067 -0.2018
16437TIP3   OH270725   1.705   5.794  15.885  0.0613 -0.0851 -0.1979
16437TIP3    H170726   1.631   5.741  15.913  1.7450 -0.9526  3.0561
16437TIP3    H270727   1.782   5.744  15.911  1.8053  1.9558 -1.1068
16438TIP3   OH270728   6.296   4.891   1.855 -0.1792 -0.4665  0.4953
16438TIP3    H170729   6.383   4.852   1.863  0.4655  0.7071 -0.5649
16438TIP3    H270730   6.279   4.930   1.940  1.5725  1.7368 -0.0815
16439TIP3   OH270731   1.696   2.972   3.649  0.3993 -0.7424 -0.1764
16439TIP3    H170732   1.684   2.980   3.743 -0.8005 -3.8846  0.0545
16439TIP3    H270733   1.791   2.968   3.637  0.5598 -1.9076  1.1412
16440TIP3   OH270734   2.186   4.270   5.856  0.9602  0.0533 -0.3362
16440TIP3    H170735   2.195   4.343   5.795  0.2664 -0.0912 -0.6212
16440TIP3    H270736   2.141   4.202   5.805  0.5438 -0.1431  0.2874
16441TIP3   OH270737   0.894   4.195   2.133  0.6128  0.4473  0.2981
16441TIP3    H170738   0.864   4.104   2.131  0.2632  0.5588  0.3005
16441TIP3    H270739   0.837   4.237   2.197  0.2939  0.8285 -0.2241
16442TIP3   OH270740   3.243   2.992  12.538 -0.2601 -0.2911  0.4041
16442TIP3    H170741   3.208   3.060  12.595  0.6898 -0.4429  1.1833
16442TIP3    H270742   3.276   3.040  12.462 -0.9038 -0.0263  0.2839
16443TIP3   OH270743   0.052   2.452   3.967  0.3178 -0.2489  0.3571
16443TIP3    H170744   0.101   2.450   3.885 -1.6104  1.1180 -0.9334
16443TIP3    H270745   0.075   2.536   4.007  1.6319 -1.1227  1.5255
16444TIP3   OH270746   1.384   2.732   5.398  0.7694  0.0722 -0.4804
16444TIP3    H170747   1.337   2.780   5.330  0.5891  2.1392  1.0153
16444TIP3    H270748   1.417   2.800   5.458  2.2710 -1.5544  0.6629
16445TIP3   OH270749   1.314   3.816  17.269  0.0559 -0.0395 -0.0707
16445TIP3    H170750   1.290   3.758  17.341  0.2937  0.0383  0.0703
16445TIP3    H270751   1.352   3.758  17.203  0.8358  0.0262  0.3098
16446TIP3   OH270752   4.019   2.133   1.324 -0.2566  0.3298 -0.8666
16446TIP3    H170753   3.957   2.146   1.252  0.2925  0.9220 -1.2439
16446TIP3    H270754   4.069   2.214   1.328  0.1271  0.0693 -0.2068
16447TIP3   OH270755   5.397   4.452   3.831  0.2061 -0.3895 -0.1312
16447TIP3    H170756   5.306   4.479   3.842  0.0984 -0.7172 -0.1926
16447TIP3    H270757   5.443   4.489   3.906 -0.1786 -1.1118  0.4700
16448TIP3   OH270758   3.216   2.348  14.634  0.0402  0.6687 -0.3780
16448TIP3    H170759   3.237   2.429  14.588 -0.7406  0.2709 -1.4764
16448TIP3    H270760   3.190   2.376  14.722  0.2666  1.5616 -0.5853
16449TIP3   OH270761   1.353   2.616  14.191  0.1368  0.3953  0.5559
16449TIP3    H170762   1.378   2.589  14.103  1.5397  1.0069  0.7508
16449TIP3    H270763   1.260   2.639  14.183 -0.1128 -0.8356 -0.4413
16450TIP3   OH270764   2.506   3.771   3.274  0.5440 -0.5669 -0.0642
16450TIP3    H170765   2.578   3.771   3.211  0.2519 -0.1222 -0.4055
16450TIP3    H270766   2.471   3.682   3.270  0.9789 -0.7410 -0.0055
16451TIP3   OH270767   5.453   4.967  12.440 -0.5969 -0.1340 -0.4835
16451TIP3    H170768   5.419   4.950  12.528  0.3388 -1.3307 -0.3336
16451TIP3    H270769   5.474   4.880  12.405 -0.1086  0.3953 -1.5419
16452TIP3   OH270770   0.072   5.939   1.823 -0.1328  0.0216  0.2216
16452TIP3    H170771   0.105   5.859   1.783  1.1154  0.7452 -0.2641
16452TIP3    H270772   0.007   5.910   1.887  0.2403 -1.3583 -0.0054
16453TIP3   OH270773   6.108   4.800   2.145 -0.4552 -0.1306 -0.1677
16453TIP3    H170774   6.087   4.889   2.117 -1.5487 -0.4838 -0.5538
16453TIP3    H270775   6.061   4.789   2.227  1.0529  0.1949  0.7762
16454TIP3   OH270776   0.283   5.683   3.102 -0.3610 -0.2729 -0.4370
16454TIP3    H170777   0.257   5.727   3.022 -2.1910  0.4807  0.5140
16454TIP3    H270778   0.208   5.629   3.126  0.8510 -1.9469 -0.1876
16455TIP3   OH270779   1.130   4.293   0.914  0.4233  0.1095 -0.0839
16455TIP3    H170780   1.070   4.263   0.982  1.7023 -1.3573  0.4491
16455TIP3    H270781   1.150   4.215   0.863  0.6826  0.8919 -1.2138
16456TIP3   OH270782   1.116   0.145  12.227  0.5844  0.6484 -0.3424
16456TIP3    H170783   1.037   0.160  12.176  1.2378  0.2742 -1.4858
16456TIP3    H270784   1.097   0.184  12.313 -1.2005 -0.3168 -0.2654
16457TIP3   OH270785   0.109   4.022   4.706  0.1899  0.1447 -0.5784
16457TIP3    H170786   0.103   3.963   4.631  0.2938 -0.0708 -0.4156
16457TIP3    H270787   0.084   4.107   4.671 -3.1864 -0.5205 -0.1462
16458TIP3   OH270788   5.175   1.110   5.925 -0.6437 -0.5318  0.3043
16458TIP3    H170789   5.188   1.149   6.011 -0.7125  2.5385 -0.9137
16458TIP3    H270790   5.092   1.147   5.895  1.0046  1.4207 -2.3635
16459TIP3   OH270791   0.505   1.510   3.072 -0.1905 -0.1662  0.0133
16459TIP3    H170792   0.431   1.484   3.018  0.1911 -0.9270 -0.1617
16459TIP3    H270793   0.472   1.504   3.162 -0.3428 -0.5016 -0.0642
16460TIP3   OH270794   2.914   2.335  17.077 -0.0431 -0.2425  0.5708
16460TIP3    H170795   2.877   2.256  17.115 -1.5383 -0.2072 -0.7119
16460TIP3    H270796   2.996   2.306  17.037 -0.7200 -1.2393 -0.1471
16461TIP3   OH270797   6.377   5.607   0.335  0.5081  0.4091  0.2225
16461TIP3    H170798   6.381   5.702   0.345  0.0665  0.5065 -0.4691
16461TIP3    H270799   6.292   5.590   0.295  1.7206  0.0010 -2.4158
16462TIP3   OH270800   3.192   1.243  13.229 -0.2020  0.1143 -0.7790
16462TIP3    H170801   3.244   1.272  13.155 -1.5669  0.8797 -1.4654
16462TIP3    H270802   3.249   1.256  13.305  0.0175  2.6078 -1.2912
16463TIP3   OH270803   1.682   4.390  14.536  0.2241 -0.3725 -0.4159
16463TIP3    H170804   1.630   4.402  14.615  0.2538 -0.3835 -0.3941
16463TIP3    H270805   1.752   4.331  14.562 -1.1776 -2.4228 -1.0894
16464TIP3   OH270806   6.582   2.045  14.956  0.3789 -0.3072  0.0098
16464TIP3    H170807   6.666   2.000  14.967  0.9153  0.6344 -0.1219
16464TIP3    H270808   6.606   2.136  14.942 -0.7331  0.2601  1.6047
16465TIP3   OH270809   5.714   5.990   0.533  0.1574 -0.0541 -0.0561
16465TIP3    H170810   5.629   6.034   0.546 -0.1797 -0.4377 -0.9128
16465TIP3    H270811   5.743   5.969   0.622  1.1423  3.3562  0.5792
16466TIP3   OH270812   2.087   5.263  14.346  0.7049 -0.1851 -0.7054
16466TIP3    H170813   2.045   5.267  14.260  0.3123  0.9364 -0.4714
16466TIP3    H270814   2.079   5.351  14.381 -0.0637 -0.8670  0.9209
16467TIP3   OH270815   6.740   3.945  16.637 -0.2090  0.2259  0.0415
16467TIP3    H170816   6.807   3.974  16.575  0.3839  2.0274  1.4351
16467TIP3    H270817   6.746   4.007  16.710 -1.1008 -1.5787  1.7675
16468TIP3   OH270818   0.928   5.136  12.401 -0.3372 -0.2096 -0.5515
16468TIP3    H170819   0.872   5.087  12.461  0.4238 -1.0055 -0.4762
16468TIP3    H270820   1.010   5.148  12.450 -1.1634  2.9709  0.2739
16469TIP3   OH270821   4.106   0.996  15.967  0.7410  0.0350 -0.1784
16469TIP3    H170822   4.039   0.971  15.903  1.9662 -0.3822 -1.3504
16469TIP3    H270823   4.187   0.959  15.932  1.6115  0.6418  1.1304
16470TIP3   OH270824   0.546   6.459   0.270 -0.0935  0.7025  0.1361
16470TIP3    H170825   0.527   6.389   0.333 -2.3503  0.4421 -0.7323
16470TIP3    H270826   0.491   6.532   0.298 -0.0748  1.0497 -0.7013
16471TIP3   OH270827   4.762   3.916  17.010 -0.9291  0.5911  0.4187
16471TIP3    H170828   4.729   3.872  17.089 -1.1567 -0.1192 -0.0664
16471TIP3    H270829   4.733   3.861  16.938  0.5206  0.4418 -0.0796
16472TIP3   OH270830   3.895   2.477  11.632  0.3706  0.0394 -0.2618
16472TIP3    H170831   3.920   2.497  11.722 -1.5706 -0.5651  0.4832
16472TIP3    H270832   3.946   2.399  11.610 -0.5198 -0.9608  1.0548
16473TIP3   OH270833   2.534   2.006  16.260  0.3528 -0.1878  0.6009
16473TIP3    H170834   2.563   2.087  16.301 -0.6942  0.9109 -0.7219
16473TIP3    H270835   2.546   2.021  16.166 -0.2874 -1.3855  0.3020
16474TIP3   OH270836   4.587   3.922  17.234  0.5465  0.4866 -0.1335
16474TIP3    H170837   4.558   4.012  17.245 -0.6276 -0.0774  1.7581
16474TIP3    H270838   4.657   3.911  17.298  1.6746  0.3997 -1.3143
16475TIP3   OH270839   3.124   5.113  11.219 -0.0234  0.4890 -0.1869
16475TIP3    H170840   3.091   5.200  11.197 -1.1429  0.0036 -0.5445
16475TIP3    H270841   3.060   5.053  11.180 -0.5975 -0.4653  2.0425
16476TIP3   OH270842   2.343   5.470  11.584  0.3961  0.2213 -0.2026
16476TIP3    H170843   2.387   5.391  11.552  0.1013  0.7533 -2.0096
16476TIP3    H270844   2.364   5.537  11.520 -0.7401  1.2057  0.4129
16477TIP3   OH270845   0.970   0.875  13.778  0.1826 -0.0723 -0.0452
16477TIP3    H170846   0.917   0.825  13.840  2.8667 -2.7144  0.3651
16477TIP3    H270847   1.043   0.909  13.829  1.0865 -0.1033 -1.2524
16478TIP3   OH270848   1.174   1.843   5.458 -0.7032 -0.2372  0.0042
16478TIP3    H170849   1.141   1.892   5.383 -0.0089  0.4727  0.1495
16478TIP3    H270850   1.132   1.757   5.451 -0.1144 -0.4378 -1.6204
16479TIP3   OH270851   2.048   3.826   6.401 -0.3970 -0.0336 -0.3340
16479TIP3    H170852   1.969   3.852   6.449 -0.2675  0.4604 -0.3770
16479TIP3    H270853   2.120   3.841   6.463 -0.1607  1.2253 -0.8761
16480TIP3   OH270854   0.253   2.914  11.866 -0.3011 -0.2036  0.6658
16480TIP3    H170855   0.210   2.999  11.875 -1.4538 -0.7836  0.9082
16480TIP3    H270856   0.332   2.932  11.815 -0.9957  0.8629 -0.0785
16481TIP3   OH270857   3.729   4.193   3.950 -0.1997 -0.0588  0.0223
16481TIP3    H170858   3.650   4.237   3.921  0.4327  0.8273 -0.3829
16481TIP3    H270859   3.726   4.107   3.907 -0.3987  0.3863 -0.8730
16482TIP3   OH270860   6.524   3.169   2.574 -0.3355  0.4267 -0.4647
16482TIP3    H170861   6.517   3.194   2.481 -1.4831  0.3919 -0.4105
16482TIP3    H270862   6.584   3.233   2.612  0.7320 -0.0053 -1.3813
16483TIP3   OH270863   2.047   4.543  13.193  0.3675  0.1141 -0.1638
16483TIP3    H170864   2.133   4.571  13.162  1.4497 -2.8219 -0.0977
16483TIP3    H270865   2.019   4.477  13.130 -1.3053  0.1428  0.4972
16484TIP3   OH270866   3.717   0.712   3.955 -0.4118 -0.3054 -0.1017
16484TIP3    H170867   3.630   0.733   3.990 -1.0739  0.3906 -1.9797
16484TIP3    H270868   3.762   0.796   3.952  1.1202 -0.9239  2.6499
16485TIP3   OH270869   6.205   1.993  14.432 -0.2483  0.4048  0.6684
16485TIP3    H170870   6.110   1.997  14.433 -0.2775 -0.1737  0.2621
16485TIP3    H270871   6.230   1.996  14.525 -0.6208  1.3217  0.7483
16486TIP3   OH270872   3.806   0.408  11.356 -0.6327 -0.4022 -0.5251
16486TIP3    H170873   3.783   0.500  11.342 -1.3748 -0.3872  0.6831
16486TIP3    H270874   3.837   0.379  11.271 -1.9179  0.5331 -1.3609
16487TIP3   OH270875   0.065   3.636  11.250 -0.2175  0.2232 -0.5409
16487TIP3    H170876   0.157   3.650  11.272 -0.1758 -0.8883  0.0779
16487TIP3    H270877   0.055   3.541  11.245 -1.0006  0.3541 -2.1265
16488TIP3   OH270878   2.575   0.962   5.717 -0.2800 -0.0330 -0.7986
16488TIP3    H170879   2.592   0.934   5.807  0.5829 -0.9445 -1.2376
16488TIP3    H270880   2.585   1.058   5.720 -0.0229 -0.0779  0.0163
16489TIP3   OH270881   3.834   5.712  17.265 -0.0756 -0.2708 -0.1837
16489TIP3    H170882   3.804   5.799  17.291  1.6171  0.2782  0.0658
16489TIP3    H270883   3.787   5.694  17.183  1.3301  1.9732 -1.5986
16490TIP3   OH270884   4.949   2.272   4.733 -0.1549 -0.3288  0.0443
16490TIP3    H170885   5.004   2.323   4.793 -0.4023 -0.4708  0.3950
16490TIP3    H270886   5.010   2.237   4.669 -0.0946  1.2565 -0.8318
16491TIP3   OH270887   1.782   0.167  12.059 -0.1626  0.2552  0.2088
16491TIP3    H170888   1.769   0.176  11.965  0.2385 -2.3404 -0.1852
16491TIP3    H270889   1.801   0.255  12.090  1.8746  0.8713 -2.4925
16492TIP3   OH270890   5.729   6.734   1.371  0.3791 -0.0175  0.2045
16492TIP3    H170891   5.804   6.775   1.330  0.2337 -1.9435 -2.2499
16492TIP3    H270892   5.653   6.769   1.324  0.1565 -1.7968 -0.8398
16493TIP3   OH270893   5.452   5.942  12.959 -0.0329 -0.4057  0.4805
16493TIP3    H170894   5.428   5.851  12.948  0.5024 -0.3500 -1.5767
16493TIP3    H270895   5.369   5.989  12.961 -0.2887 -0.7308 -1.0415
16494TIP3   OH270896   3.361   0.996  14.618  0.2554  0.1202 -0.5378
16494TIP3    H170897   3.366   1.027  14.708  0.4086 -0.6492 -0.2740
16494TIP3    H270898   3.280   0.945  14.615  1.4269 -1.8425 -0.1853
16495TIP3   OH270899   3.327   6.660  10.736  0.4289 -0.0799  0.6765
16495TIP3    H170900   3.408   6.710  10.736  0.0346  0.5628  1.0078
16495TIP3    H270901   3.270   6.707  10.675  1.5029 -2.5267 -2.4968
16496TIP3   OH270902   0.913   1.518  16.353 -0.1937 -0.1428  0.3295
16496TIP3    H170903   0.975   1.587  16.327  2.8584 -2.0461  1.8619
16496TIP3    H270904   0.868   1.554  16.429  1.5083  0.2080  1.2427
16497TIP3   OH270905   0.755   2.085   1.448 -0.1634  0.2249 -0.3712
16497TIP3    H170906   0.660   2.072   1.450 -0.1473  0.1640  0.0680
16497TIP3    H270907   0.767   2.172   1.409 -0.3422 -0.3060 -1.6758
16498TIP3   OH270908   5.027   2.234   1.746  0.1548  0.0062  0.6681
16498TIP3    H170909   4.974   2.310   1.770 -0.7258 -0.8713  1.5734
16498TIP3    H270910   5.101   2.235   1.807 -0.6486 -0.6869  1.6846
16499TIP3   OH270911   1.437   0.936  13.194  0.1528 -0.1190  0.3016
16499TIP3    H170912   1.415   1.028  13.208  0.5731  0.0314 -0.0039
16499TIP3    H270913   1.370   0.904  13.134  0.4352  0.1895 -0.1846
16500TIP3   OH270914   6.451   4.401   5.415 -0.4388 -0.2337 -0.1355
16500TIP3    H170915   6.500   4.319   5.416 -1.0081 -0.6016 -0.7951
16500TIP3    H270916   6.372   4.381   5.365  0.1589  1.1368 -1.7450
16501TIP3   OH270917   2.129   1.079  14.414  0.2872 -0.1702 -0.2933
16501TIP3    H170918   2.104   1.089  14.323 -1.0286 -0.4080  0.0225
16501TIP3    H270919   2.070   1.137  14.462 -1.5367 -2.6741  0.7199
16502TIP3   OH270920   5.441   5.864  10.729  0.1649 -0.3259 -0.2972
16502TIP3    H170921   5.346   5.855  10.731  0.1400 -0.0419  0.0406
16502TIP3    H270922   5.474   5.785  10.771  0.0793 -0.4736 -0.5106
16503TIP3   OH270923   1.116   2.455   1.880 -0.5588  0.0331 -0.4307
16503TIP3    H170924   1.164   2.506   1.946 -1.9950  0.4700  0.3147
16503TIP3    H270925   1.164   2.471   1.798 -0.0074  1.2410  0.0977
16504TIP3   OH270926   6.035   1.296  14.149  0.0357  0.3727  0.0914
16504TIP3    H170927   5.942   1.282  14.165  0.2927 -1.6082  0.1028
16504TIP3    H270928   6.038   1.348  14.069 -1.0754 -0.2217 -0.3586
16505TIP3   OH270929   2.677   4.909   0.195 -0.7895 -0.0635 -0.1539
16505TIP3    H170930   2.664   5.002   0.214 -1.0286 -0.3241  1.0463
16505TIP3    H270931   2.702   4.907   0.103  1.6025  1.4069  0.3655
16506TIP3   OH270932   5.196   1.828  11.337 -0.2770  0.8487 -0.8215
16506TIP3    H170933   5.150   1.753  11.300  0.2492 -0.1017  0.3969
16506TIP3    H270934   5.161   1.903  11.288 -0.8470 -0.1600 -2.0319
16507TIP3   OH270935   2.953   6.677  16.251  0.0458  0.1718  0.5460
16507TIP3    H170936   3.019   6.608  16.247 -0.0630 -0.1076  2.4378
16507TIP3    H270937   2.895   6.650  16.322 -2.8053 -0.1569 -1.7157
16508TIP3   OH270938   5.215   3.020   4.157  0.0981  0.4259  0.3084
16508TIP3    H170939   5.187   2.932   4.185 -0.9404  0.1619 -1.3938
16508TIP3    H270940   5.133   3.070   4.153 -0.0109  0.1587 -3.0437
16509TIP3   OH270941   4.194   2.041   5.543  0.1325  0.1950  0.2717
16509TIP3    H170942   4.176   2.133   5.525 -0.6984  0.3934  1.9059
16509TIP3    H270943   4.258   2.043   5.615 -0.3349 -0.4869  0.7195
16510TIP3   OH270944   5.304   4.446   1.882 -0.1992  0.4309  0.2098
16510TIP3    H170945   5.246   4.405   1.818 -0.2577  0.9702 -0.0857
16510TIP3    H270946   5.308   4.538   1.857  1.2758  0.3001 -0.1712
16511TIP3   OH270947   4.643   5.604  12.537 -0.0150 -0.3939 -0.7164
16511TIP3    H170948   4.564   5.647  12.504  0.2770  0.3522 -0.4832
16511TIP3    H270949   4.695   5.584  12.459  0.8400  1.6829 -0.7655
16512TIP3   OH270950   3.850   2.976  12.959  0.1199 -0.0875 -0.3261
16512TIP3    H170951   3.803   2.911  12.906  0.2091 -0.8783  0.5398
16512TIP3    H270952   3.788   3.002  13.026 -0.8456  2.6858 -2.1098
16513TIP3   OH270953   2.098   1.513   2.461 -0.2942  0.0662 -0.3383
16513TIP3    H170954   2.010   1.503   2.499 -0.6286  2.0959 -0.4290
16513TIP3    H270955   2.156   1.521   2.537 -0.4422  0.4381 -0.2612
16514TIP3   OH270956   5.058   6.525   1.371  0.2521  0.6184  0.2508
16514TIP3    H170957   5.142   6.511   1.415  1.2590  0.9588 -1.4762
16514TIP3    H270958   5.064   6.614   1.336 -0.0488 -0.0253 -1.4987
16515TIP3   OH270959   6.477   0.144  14.540  0.1377  0.1631 -0.2219
16515TIP3    H170960   6.425   0.110  14.613  1.1248 -1.1806 -0.1019
16515TIP3    H270961   6.437   0.228  14.518 -0.5387  0.3135  1.4824
16516TIP3   OH270962   6.587   6.476  11.078 -0.3821 -0.2671 -0.1410
16516TIP3    H170963   6.527   6.459  11.150 -1.4272  0.1304 -0.8933
16516TIP3    H270964   6.604   6.389  11.040  2.0486 -0.8353  1.9524
16517TIP3   OH270965   6.024   2.240  12.772 -0.1753  0.1756  0.0335
16517TIP3    H170966   5.952   2.207  12.827 -0.1722 -2.8702 -1.5655
16517TIP3    H270967   5.987   2.245  12.684  1.5471 -1.7416 -0.8879
16518TIP3   OH270968   1.345   6.510   5.713  0.2736 -0.3419  0.1082
16518TIP3    H170969   1.352   6.514   5.809 -2.1275 -2.5029  0.4686
16518TIP3    H270970   1.380   6.424   5.690  1.7306  0.5333 -1.1293
16519TIP3   OH270971   0.291   2.400  13.665  0.4771  0.1434  0.0709
16519TIP3    H170972   0.362   2.396  13.729  0.7196 -0.1397 -0.2161
16519TIP3    H270973   0.324   2.353  13.589  0.2112  0.5301 -0.2869
16520TIP3   OH270974   4.578   0.140   6.163  0.2476 -0.0582 -0.6842
16520TIP3    H170975   4.599   0.178   6.248 -0.6695  1.7443 -1.2111
16520TIP3    H270976   4.542   0.053   6.184  0.9976 -0.0721  0.6701
16521TIP3   OH270977   5.272   2.921   2.289 -0.1415 -0.5320  0.1643
16521TIP3    H170978   5.354   2.966   2.268  0.5068 -1.6965  0.0782
16521TIP3    H270979   5.267   2.923   2.385 -0.9223  1.0384  0.1352
16522TIP3   OH270980   5.274   3.632   0.249 -0.2173  0.4592  0.3772
16522TIP3    H170981   5.281   3.539   0.226 -0.1560  0.9262 -1.5714
16522TIP3    H270982   5.228   3.631   0.334  0.1498 -1.3491  0.6054
16523TIP3   OH270983   0.390   5.416  15.602 -0.0255 -0.3999 -0.5803
16523TIP3    H170984   0.320   5.376  15.653 -0.1104  0.5219  0.0498
16523TIP3    H270985   0.414   5.349  15.538 -0.9294 -1.0262 -0.2897
16524TIP3   OH270986   1.342   3.960  12.412  0.0870  0.2517 -0.1603
16524TIP3    H170987   1.350   3.994  12.501  0.1159  1.4778 -0.6071
16524TIP3    H270988   1.432   3.952  12.381  0.2307 -2.3294  0.6388
16525TIP3   OH270989   5.280   6.135   1.847 -0.0984 -0.0365 -0.3575
16525TIP3    H170990   5.191   6.128   1.882 -0.4218 -1.0886 -1.3250
16525TIP3    H270991   5.277   6.208   1.786 -0.5272 -0.5590 -0.9784
16526TIP3   OH270992   5.987   4.005  11.158 -0.1041  0.6799  0.6335
16526TIP3    H170993   6.044   3.952  11.103  0.1266  1.2963  0.2619
16526TIP3    H270994   5.908   4.019  11.105  0.2613  1.5669  0.3052
16527TIP3   OH270995   2.768   0.720   5.088 -0.3988 -0.5538  0.0710
16527TIP3    H170996   2.792   0.627   5.086  2.6133  0.0674  0.9733
16527TIP3    H270997   2.698   0.726   5.153  1.4410 -1.8858  2.3243
16528TIP3   OH270998   2.181   6.506   0.342  0.1118  0.1082 -0.5958
16528TIP3    H170999   2.267   6.539   0.318 -1.0044  2.0132 -2.3561
16528TIP3    H271000   2.178   6.515   0.438  1.7831  0.1649 -0.5223
16529TIP3   OH271001   5.662   5.888  14.538  0.0349 -0.1966 -0.7835
16529TIP3    H171002   5.606   5.856  14.608 -1.9662  1.2162 -1.6503
16529TIP3    H271003   5.674   5.981  14.556  0.4368 -0.0567 -1.6874
16530TIP3   OH271004   0.595   5.327   0.734  0.0112  0.2418 -0.7931
16530TIP3    H171005   0.539   5.337   0.658 -0.7163  2.9340 -0.0380
16530TIP3    H271006   0.585   5.410   0.782  1.7388 -0.6711  1.3372
16531TIP3   OH271007   6.157   2.493  12.865  0.2787  0.9034 -0.0912
16531TIP3    H171008   6.101   2.416  12.859  1.1825  0.2872 -0.8579
16531TIP3    H271009   6.180   2.499  12.958 -0.4003  0.7096  0.0973
16532TIP3   OH271010   2.966   1.126   4.518  0.1479  0.1279 -0.6531
16532TIP3    H171011   2.888   1.083   4.553  0.9018 -1.5808 -0.9633
16532TIP3    H271012   2.972   1.094   4.428  1.7158 -0.5406 -0.3383
16533TIP3   OH271013   6.765   3.264   5.955  0.1751 -0.1480 -0.4263
16533TIP3    H171014   6.673   3.256   5.933  0.2700  0.4181 -1.0698
16533TIP3    H271015   6.800   3.175   5.947 -0.1505 -0.2325 -0.9336
16534TIP3   OH271016   5.720   5.242   5.587 -0.0545  0.0252 -0.3723
16534TIP3    H171017   5.632   5.207   5.600  0.1032 -0.1957  0.1546
16534TIP3    H271018   5.714   5.295   5.508 -0.3909 -0.9102 -0.9944
16535TIP3   OH271019   5.338   0.538   5.510  0.1307  0.2081  0.0968
16535TIP3    H171020   5.310   0.491   5.588  1.0824 -0.3050  0.1465
16535TIP3    H271021   5.259   0.546   5.457 -0.2810 -0.4823  0.5869
16536TIP3   OH271022   2.817   3.790  13.003 -0.0550  0.3856  0.0080
16536TIP3    H171023   2.884   3.813  13.067 -0.1774 -0.9326  0.6193
16536TIP3    H271024   2.820   3.695  12.997 -0.9450  0.3983 -0.9796
16537TIP3   OH271025   0.278   5.227   5.134  0.1428 -0.0114  0.1578
16537TIP3    H171026   0.304   5.233   5.042 -5.1898  1.1413 -1.6512
16537TIP3    H271027   0.300   5.137   5.159  1.3069 -0.5215 -2.4031
16538TIP3   OH271028   1.952   5.585   6.535  0.0972 -0.4690  0.2955
16538TIP3    H171029   1.877   5.530   6.557  0.3576 -0.5498  1.0202
16538TIP3    H271030   2.026   5.525   6.533  0.3112 -0.2214  0.6316
16539TIP3   OH271031   3.133   5.291  12.735  0.0445  0.5407  0.0835
16539TIP3    H171032   3.118   5.240  12.656 -0.9243  1.4425 -0.3396
16539TIP3    H271033   3.178   5.370  12.706 -0.9151  1.1930  0.3073
16540TIP3   OH271034   0.168   0.402   4.206  0.2163  0.0594 -0.0128
16540TIP3    H171035   0.138   0.350   4.132 -0.5955 -0.6680  0.8128
16540TIP3    H271036   0.089   0.444   4.240  0.6187  0.5545  0.3244
16541TIP3   OH271037   0.506   3.563  14.555 -0.6601  0.0622  0.3075
16541TIP3    H171038   0.547   3.617  14.622  1.1395 -1.1464  0.2682
16541TIP3    H271039   0.497   3.620  14.479  0.1948  0.6008  0.6018
16542TIP3   OH271040   1.025   1.984  16.643 -0.4415  0.1094 -0.0393
16542TIP3    H171041   0.958   2.018  16.703 -1.1867 -1.4104  0.0408
16542TIP3    H271042   1.090   1.943  16.700  0.0578  0.7043 -0.1699
16543TIP3   OH271043   4.475   1.281   2.587  0.0380  0.5823 -0.1024
16543TIP3    H171044   4.465   1.190   2.615  0.0167  1.0307  1.4378
16543TIP3    H271045   4.567   1.302   2.606  0.1844  0.7455 -0.9323
16544TIP3   OH271046   4.976   1.325   2.672 -0.2683 -0.2585  0.2565
16544TIP3    H171047   5.017   1.279   2.599  0.2146 -0.2655  0.5315
16544TIP3    H271048   5.049   1.363   2.721 -0.5894 -0.2500  0.7364
16545TIP3   OH271049   3.388   0.356  12.747  0.1139 -0.5916 -0.5254
16545TIP3    H171050   3.451   0.428  12.753 -0.7349  0.3205 -1.9755
16545TIP3    H271051   3.365   0.337  12.838  1.9600 -0.5138  0.0053
16546TIP3   OH271052   5.336   6.145  11.990  0.3755 -0.4203 -0.3269
16546TIP3    H171053   5.418   6.138  12.038 -0.2119 -0.9623  0.6261
16546TIP3    H271054   5.279   6.196  12.047  0.1839  0.3408 -1.1831
16547TIP3   OH271055   6.679   5.924   5.651 -0.2880 -0.0480  0.1477
16547TIP3    H171056   6.687   5.829   5.657 -1.9635 -0.2164  0.1315
16547TIP3    H271057   6.587   5.939   5.627  0.1632  1.5387 -0.7493
16548TIP3   OH271058   1.827   2.365   1.743 -0.1065  0.9354  0.7696
16548TIP3    H171059   1.783   2.293   1.788 -0.0293  0.3361 -0.0994
16548TIP3    H271060   1.762   2.398   1.680  1.0617 -0.8232 -1.4698
16549TIP3   OH271061   6.281   2.932   6.176 -0.5076  0.3952  0.2162
16549TIP3    H171062   6.319   2.867   6.235 -0.3326  1.2423  1.0422
16549TIP3    H271063   6.195   2.896   6.153 -0.5887  0.0742  1.0081
16550TIP3   OH271064   4.595   2.777  12.422 -0.5810 -0.2907 -0.0074
16550TIP3    H171065   4.585   2.703  12.363 -0.1556 -1.1871  1.0204
16550TIP3    H271066   4.577   2.742  12.509 -2.3521  1.2500  0.3397
16551TIP3   OH271067   3.731   1.521   6.549 -0.1451 -0.0688  0.3689
16551TIP3    H171068   3.758   1.502   6.459 -0.3228  0.2263  0.2511
16551TIP3    H271069   3.658   1.462   6.566 -1.7009  1.4924 -0.5214
16552TIP3   OH271070   6.084   2.801   5.423 -0.2100  0.2555  0.5858
16552TIP3    H171071   6.030   2.787   5.501 -0.6953 -0.5716  0.1146
16552TIP3    H271072   6.021   2.800   5.350  0.3334  0.2025  0.1138
16553TIP3   OH271073   1.737   6.539  15.439 -0.0845  0.1863 -0.3489
16553TIP3    H171074   1.695   6.491  15.511  0.1764 -0.9671 -0.9502
16553TIP3    H271075   1.726   6.631  15.463 -1.8960 -0.0988  0.1260
16554TIP3   OH271076   4.006   4.327   3.500  0.0389  0.0147  0.0749
16554TIP3    H171077   4.039   4.365   3.580 -0.2703  1.3925 -0.4180
16554TIP3    H271078   4.075   4.340   3.436  0.3784 -1.2812  0.1456
16555TIP3   OH271079   6.375   6.158  12.018  0.1802  0.3326 -0.1481
16555TIP3    H171080   6.377   6.242  11.971  0.4040  0.2987 -0.1986
16555TIP3    H271081   6.389   6.181  12.110 -0.8582  0.4621 -0.0048
16556TIP3   OH271082   5.927   1.865   5.951  0.1225 -0.5304 -0.2716
16556TIP3    H171083   6.017   1.838   5.971  0.3267 -0.5399 -1.1399
16556TIP3    H271084   5.938   1.939   5.891 -0.4493 -0.0072  0.2580
16557TIP3   OH271085   3.546   2.483  12.494  0.3273 -0.3954 -0.0480
16557TIP3    H171086   3.481   2.419  12.468 -0.4262  1.0381 -1.9295
16557TIP3    H271087   3.628   2.452  12.454  0.0959 -0.5229 -0.4252
16558TIP3   OH271088   0.169   2.174   0.362 -0.3660  0.0066  0.0701
16558TIP3    H171089   0.109   2.245   0.341  1.0290  1.1349 -0.3056
16558TIP3    H271090   0.203   2.195   0.449  1.4581  0.8796 -0.7916
16559TIP3   OH271091   5.697   2.842  13.267  0.3917  0.4450 -0.3730
16559TIP3    H171092   5.785   2.819  13.297  1.1436  2.2370 -1.0462
16559TIP3    H271093   5.663   2.762  13.227  1.1182 -0.6991  1.2002
16560TIP3   OH271094   5.652   0.392  16.638  0.2459 -0.2241  0.1538
16560TIP3    H171095   5.700   0.342  16.704  2.0640  1.7172  0.4160
16560TIP3    H271096   5.659   0.339  16.558  1.2728 -0.8497  0.6341
16561TIP3   OH271097   3.961   5.879   1.880  0.4864 -0.2388  0.2623
16561TIP3    H171098   3.950   5.835   1.964 -0.1930  0.0358  0.3306
16561TIP3    H271099   3.950   5.810   1.815 -1.2475 -0.0993  0.3444
16562TIP3   OH271100   2.369   0.816  13.224 -0.1951  0.2395 -0.0648
16562TIP3    H171101   2.289   0.845  13.268  1.5437 -0.6015  4.1985
16562TIP3    H271102   2.431   0.889  13.236  0.4379 -0.1092 -1.0546
16563TIP3   OH271103   0.456   1.093   5.245  0.1374 -0.1395  0.4630
16563TIP3    H171104   0.479   1.148   5.170  1.8804 -1.6265 -0.1626
16563TIP3    H271105   0.448   1.154   5.318  3.6168  0.8777  0.1470
16564TIP3   OH271106   4.168   5.015   4.012 -0.3341  0.3481  0.1911
16564TIP3    H171107   4.250   5.061   3.997  0.5557 -1.1400  0.3981
16564TIP3    H271108   4.187   4.952   4.082 -1.8531  0.5075  0.7855
16565TIP3   OH271109   6.666   3.407   4.321  1.3501 -0.0324  0.4044
16565TIP3    H171110   6.703   3.457   4.248  0.5251 -1.4997 -1.0955
16565TIP3    H271111   6.591   3.459   4.350  1.0592  0.0866 -0.5158
16566TIP3   OH271112   5.401   0.382   3.589  0.3952 -0.5144  0.5424
16566TIP3    H171113   5.454   0.449   3.632 -0.6397  0.1254  0.8600
16566TIP3    H271114   5.436   0.299   3.622  0.6942 -0.0878  1.3367
16567TIP3   OH271115   6.710   0.607   4.929 -0.4848 -0.2157 -0.5304
16567TIP3    H171116   6.793   0.640   4.894 -1.0038  0.2498 -1.3319
16567TIP3    H271117   6.672   0.557   4.856 -0.4377 -1.2908  0.1614
16568TIP3   OH271118   2.393   0.422  17.137  0.0835  0.7508  0.1878
16568TIP3    H171119   2.364   0.435  17.047  1.5053 -0.6029 -0.5270
16568TIP3    H271120   2.349   0.342  17.166 -0.2834  1.1187  0.6597
16569TIP3   OH271121   5.255   6.002   4.454  0.1903 -0.4229 -0.2967
16569TIP3    H171122   5.190   6.024   4.521 -0.1519  0.3602 -0.8670
16569TIP3    H271123   5.239   5.910   4.434  1.1078 -1.0326  1.5708
16570TIP3   OH271124   0.801   2.730   3.007  0.3336  0.4686 -0.1050
16570TIP3    H171125   0.802   2.821   2.979 -2.3367  0.5575 -0.1678
16570TIP3    H271126   0.722   2.694   2.968  0.7722 -1.6073  0.7899
16571TIP3   OH271127   5.982   1.347  16.325  0.1930  0.3683  0.4444
16571TIP3    H171128   5.947   1.349  16.414  0.3194 -0.4360  0.5250
16571TIP3    H271129   6.056   1.287  16.330 -1.6884 -2.3049 -0.8068
16572TIP3   OH271130   4.541   2.687  10.721 -0.1588  0.6590 -0.4476
16572TIP3    H171131   4.591   2.751  10.671 -0.7260  2.1088  0.7780
16572TIP3    H271132   4.451   2.720  10.722 -0.3670  0.1322  0.6345
16573TIP3   OH271133   6.643   0.181   0.747 -0.4126 -0.0844  0.3478
16573TIP3    H171134   6.638   0.215   0.836  0.9431 -1.1958  0.9017
16573TIP3    H271135   6.605   0.093   0.753 -0.2450 -0.1945 -0.1530
16574TIP3   OH271136   2.673   4.473   0.168 -0.4713  0.0478 -0.2244
16574TIP3    H171137   2.767   4.489   0.162 -0.0475 -1.7001  1.0479
16574TIP3    H271138   2.646   4.524   0.245 -0.2615 -0.5945  0.2858
16575TIP3   OH271139   1.076   4.570   4.160 -0.4976  0.2923  0.1086
16575TIP3    H171140   0.996   4.517   4.153 -0.3363  0.1900 -1.3818
16575TIP3    H271141   1.144   4.516   4.120  0.2568  0.5340  1.0356
16576TIP3   OH271142   2.196   2.255   1.653 -0.0339 -0.3324 -0.0850
16576TIP3    H171143   2.246   2.220   1.727  0.5300 -1.0426 -0.7955
16576TIP3    H271144   2.221   2.201   1.579 -0.6576  0.3273 -0.7926
16577TIP3   OH271145   3.054   1.403   0.433 -0.1640 -0.1193 -0.3336
16577TIP3    H171146   3.033   1.496   0.442 -2.7953 -0.6795  0.0263
16577TIP3    H271147   3.101   1.382   0.513  1.5010  1.1092 -0.9277
16578TIP3   OH271148   4.707   0.790   5.704 -0.4666 -0.0464  0.4720
16578TIP3    H171149   4.636   0.853   5.692 -0.8160 -0.4139  0.5699
16578TIP3    H271150   4.694   0.756   5.793 -2.7473 -3.1768 -0.8360
16579TIP3   OH271151   5.183   0.564   2.257  0.2693  0.4379  0.3677
16579TIP3    H171152   5.212   0.654   2.244 -0.9322  0.6448 -1.2450
16579TIP3    H271153   5.117   0.550   2.188  0.7497 -1.8193  0.2888
16580TIP3   OH271154   4.869   4.437  17.075  0.5776  0.1218 -0.1642
16580TIP3    H171155   4.916   4.379  17.135  1.2092 -0.3060 -1.0475
16580TIP3    H271156   4.793   4.467  17.125  1.3152  0.1190  0.9873
16581TIP3   OH271157   6.360   2.044   5.324  0.2937 -0.4865 -0.4120
16581TIP3    H171158   6.406   2.023   5.243  0.8044  0.9311 -0.5167
16581TIP3    H271159   6.291   2.105   5.298  0.1909 -0.3539  0.1468
16582TIP3   OH271160   6.377   0.057   2.085 -0.0550 -0.5889 -0.3379
16582TIP3    H171161   6.360   0.146   2.118 -1.0400 -0.8234 -0.1832
16582TIP3    H271162   6.371   0.001   2.163 -0.2026 -0.8818 -0.5594
16583TIP3   OH271163   2.338   6.303  17.162  0.1270 -0.5196 -0.1679
16583TIP3    H171164   2.420   6.286  17.117  0.5087  1.1648 -0.1623
16583TIP3    H271165   2.273   6.312  17.092  0.5249  1.0663 -0.3650
16584TIP3   OH271166   5.060   0.075  16.077 -0.3816 -0.3487 -0.0339
16584TIP3    H171167   5.113   0.114  16.147  1.3274 -1.4021 -0.6859
16584TIP3    H271168   5.058   0.143  16.009  0.0653 -0.2672  0.0284
16585TIP3   OH271169   1.784   1.922  11.997 -0.0705  0.4376 -0.4866
16585TIP3    H171170   1.819   1.975  12.069 -2.0488  2.0232 -0.5987
16585TIP3    H271171   1.748   1.985  11.935 -0.2330 -0.9736 -1.9020
16586TIP3   OH271172   0.614   6.145  14.733 -0.2517 -0.2624 -0.8617
16586TIP3    H171173   0.692   6.105  14.772  0.4830  0.6443 -1.3642
16586TIP3    H271174   0.607   6.104  14.647 -0.8238 -0.9450 -0.5005
16587TIP3   OH271175   3.729   1.367  15.307 -0.3782  0.6244  0.3492
16587TIP3    H171176   3.724   1.451  15.260 -0.9913  1.5470  1.9864
16587TIP3    H271177   3.675   1.308  15.255  0.6310  1.0202 -1.2217
16588TIP3   OH271178   5.847   5.760   0.383 -0.2940  0.2122 -0.3715
16588TIP3    H171179   5.818   5.838   0.431  1.0441  0.6970 -0.2985
16588TIP3    H271180   5.774   5.699   0.390  0.3084 -0.3289  3.5776
16589TIP3   OH271181   1.435   1.115  16.927  0.5654 -0.1158  0.2104
16589TIP3    H171182   1.473   1.198  16.956 -0.4746  0.2483  0.5682
16589TIP3    H271183   1.384   1.137  16.849 -0.4658 -0.2223  0.8289
16590TIP3   OH271184   3.511   2.678   5.501 -0.6346 -0.3105 -0.4114
16590TIP3    H171185   3.417   2.665   5.500 -0.7420  0.4379 -0.5036
16590TIP3    H271186   3.525   2.761   5.455 -0.0319  0.1325  0.5354
16591TIP3   OH271187   0.120   2.511  12.870  0.2304 -0.1020 -0.5203
16591TIP3    H171188   0.151   2.551  12.951 -0.1921 -0.4264 -0.1933
16591TIP3    H271189   0.184   2.442  12.853 -0.1326 -0.5789 -0.0036
16592TIP3   OH271190   0.756   5.721  12.633  0.3442  0.6774  0.0552
16592TIP3    H171191   0.839   5.684  12.602 -0.2779  1.0578 -2.2246
16592TIP3    H271192   0.719   5.765  12.556 -0.8449  2.6029  1.6275
16593TIP3   OH271193   3.621   0.792   0.639 -0.3658  0.7381  0.1152
16593TIP3    H171194   3.564   0.715   0.634  1.3461 -0.6325  1.0271
16593TIP3    H271195   3.564   0.860   0.676 -2.0951  0.1588 -1.2915
16594TIP3   OH271196   3.956   6.103  16.628 -0.2745 -0.2777 -0.2497
16594TIP3    H171197   3.903   6.027  16.651 -3.3570  1.6659 -0.2949
16594TIP3    H271198   3.928   6.127  16.540  0.2403  1.1685 -0.0544
16595TIP3   OH271199   5.334   4.069  12.685  0.6294  0.4979 -0.1620
16595TIP3    H171200   5.253   4.036  12.648  1.8330 -0.0102 -2.6002
16595TIP3    H271201   5.345   4.022  12.767 -0.9036 -0.3678 -0.4293
16596TIP3   OH271202   6.435   5.123  11.242 -0.1616  0.0487  0.8428
16596TIP3    H171203   6.505   5.057  11.244  1.9863  2.0855 -1.0277
16596TIP3    H271204   6.411   5.128  11.149 -0.8120  1.3784  1.0721
16597TIP3   OH271205   2.360   6.270  14.863  0.3741  0.0409 -0.3063
16597TIP3    H171206   2.456   6.267  14.857  0.3620  0.6785 -1.0123
16597TIP3    H271207   2.341   6.240  14.952  1.2514  0.3157 -0.0075
16598TIP3   OH271208   0.634   2.301  11.455  0.7618 -0.4967 -0.2541
16598TIP3    H171209   0.660   2.393  11.443 -0.0761 -0.2445 -0.2352
16598TIP3    H271210   0.538   2.305  11.463  0.7884 -1.2800  0.5925
16599TIP3   OH271211   1.352   6.506   0.172 -0.1785 -0.8836  0.0671
16599TIP3    H171212   1.346   6.412   0.187  0.3878 -0.8391  0.6294
16599TIP3    H271213   1.351   6.544   0.260  0.5530 -0.4360 -0.1100
16600TIP3   OH271214   1.876   2.445   4.048  0.2488  0.0728  0.1386
16600TIP3    H171215   1.871   2.352   4.070  0.3865 -0.2251 -1.0186
16600TIP3    H271216   1.803   2.485   4.095 -0.7889 -0.8983 -0.6076
16601TIP3   OH271217   4.101   0.007  16.849 -0.0149 -0.3132 -0.6882
16601TIP3    H171218   4.021   0.004  16.797 -0.2067  2.1119 -0.6804
16601TIP3    H271219   4.154  -0.065  16.816 -1.6064 -1.0741 -1.7051
16602TIP3   OH271220   3.400   6.598   0.914  0.5212 -0.0351  0.0026
16602TIP3    H171221   3.485   6.638   0.896  0.0607  0.9884  0.0391
16602TIP3    H271222   3.347   6.617   0.837  0.8292 -2.2125 -0.8203
16603TIP3   OH271223   6.480   0.657   0.500 -0.4535  0.0593 -0.3323
16603TIP3    H171224   6.491   0.737   0.449 -1.1420  0.0521 -0.5041
16603TIP3    H271225   6.544   0.596   0.462 -0.2337  0.3860 -0.4920
16604TIP3   OH271226   5.479   0.275  16.209 -0.3605 -0.1023  0.1189
16604TIP3    H171227   5.407   0.271  16.272  0.2180 -1.8228  0.7286
16604TIP3    H271228   5.540   0.338  16.247 -0.3107 -0.6574  0.9984
16605TIP3   OH271229   5.578   3.316   4.940  0.1538 -0.2025  0.1047
16605TIP3    H171230   5.589   3.410   4.926  0.2679 -0.3098 -0.5568
16605TIP3    H271231   5.648   3.293   5.002  0.5420  0.0291 -0.2420
16606TIP3   OH271232   0.791   5.137  16.216  0.2764 -0.6274  0.2052
16606TIP3    H171233   0.736   5.061  16.235  0.5827 -0.8278  0.3190
16606TIP3    H271234   0.807   5.131  16.121  0.3528 -0.7469  0.2237
16607TIP3   OH271235   4.294   1.743   4.928 -0.2535  0.0675  0.3082
16607TIP3    H171236   4.276   1.650   4.911  1.1404  0.0447 -1.4259
16607TIP3    H271237   4.355   1.743   5.001 -1.6422 -0.2449  1.5041
16608TIP3   OH271238   1.293   2.420  15.569  0.0120 -0.1340  0.0864
16608TIP3    H171239   1.332   2.394  15.653 -3.9175  0.5954  2.3715
16608TIP3    H271240   1.274   2.514  15.579 -1.0844 -0.1576 -1.3862
16609TIP3   OH271241   5.528   4.377   4.893  0.3469  0.0640 -0.0307
16609TIP3    H171242   5.433   4.391   4.903 -0.0675 -1.7415 -0.9814
16609TIP3    H271243   5.567   4.427   4.965 -1.2025  2.0511 -0.4970
16610TIP3   OH271244   6.155   4.850  16.002 -0.0383  0.1364  0.1209
16610TIP3    H171245   6.186   4.778  15.947  0.8131 -0.2950  1.1315
16610TIP3    H271246   6.062   4.831  16.016 -0.3144  0.3301 -1.2451
16611TIP3   OH271247   5.961   6.082   0.464 -0.5155  0.1210  0.3658
16611TIP3    H171248   5.975   6.174   0.482  0.5912  0.0494 -0.0333
16611TIP3    H271249   5.867   6.068   0.478 -0.5358  1.1018  1.2668
16612TIP3   OH271250   4.231   3.548   2.376  0.3084 -0.2925  0.1596
16612TIP3    H171251   4.267   3.602   2.305 -2.6930  0.3964 -0.9764
16612TIP3    H271252   4.227   3.608   2.451 -1.2046  0.5943 -0.5672
16613TIP3   OH271253   6.631   3.291  12.598  0.0425 -0.4664  0.5474
16613TIP3    H171254   6.690   3.365  12.612 -0.2458  0.5543 -2.7214
16613TIP3    H271255   6.684   3.227  12.550 -0.4073 -1.3672  1.2083
16614TIP3   OH271256   0.986   1.745  11.104  0.6268 -0.0143  0.2772
16614TIP3    H171257   0.969   1.692  11.025  0.5805  0.4653 -0.0361
16614TIP3    H271258   1.016   1.829  11.070  1.5459 -0.1297  0.7990
16615TIP3   OH271259   2.661   4.696  11.664 -0.3439  0.0763  0.4048
16615TIP3    H171260   2.692   4.606  11.678  0.9957  0.1654 -1.6169
16615TIP3    H271261   2.741   4.747  11.652 -1.1235  1.4237  0.7205
16616TIP3   OH271262   4.195   3.217  11.553  0.2100 -0.1665  0.2100
16616TIP3    H171263   4.102   3.191  11.551  0.6583 -2.2466  2.0033
16616TIP3    H271264   4.231   3.168  11.627  2.8112  0.4027 -0.6002
16617TIP3   OH271265   4.126   1.332  16.708  0.3744  0.0411 -0.2691
16617TIP3    H171266   4.122   1.256  16.766 -1.8138 -1.5420 -2.3627
16617TIP3    H271267   4.180   1.304  16.634  0.7967  1.0764 -0.3796
16618TIP3   OH271268   6.524   2.115  11.206 -0.4297  1.1137 -0.5523
16618TIP3    H171269   6.442   2.126  11.158  0.2924 -1.2103 -2.5038
16618TIP3    H271270   6.561   2.203  11.211 -2.3188  1.9780 -0.9181
16619TIP3   OH271271   4.728   5.924  12.717  0.1647  0.0033  0.0813
16619TIP3    H171272   4.715   5.854  12.654  0.7751  0.2957 -0.3801
16619TIP3    H271273   4.656   5.985  12.700  0.4813  0.2168 -0.5314
16620TIP3   OH271274   2.591   0.921  16.501  0.2137 -0.4849 -0.0765
16620TIP3    H171275   2.510   0.926  16.450  0.3235  0.2950 -0.1800
16620TIP3    H271276   2.653   0.876  16.443 -0.4372 -2.0787  0.4031
16621TIP3   OH271277   0.951   4.708  15.613  0.3197  0.3457  0.3076
16621TIP3    H171278   0.944   4.734  15.705 -0.7473 -0.5413  0.4984
16621TIP3    H271279   0.941   4.790  15.564 -0.8828  0.6021  0.9426
16622TIP3   OH271280   2.378   3.682   4.067  0.1064  0.5000  0.0014
16622TIP3    H171281   2.310   3.741   4.034 -1.0496 -0.3830  0.7429
16622TIP3    H271282   2.413   3.640   3.988 -1.7395 -0.6466 -0.2664
16623TIP3   OH271283   5.060   5.944  12.218 -0.3247  0.3701 -0.4047
16623TIP3    H171284   4.972   5.912  12.201 -1.1485  1.6767  1.0879
16623TIP3    H271285   5.090   5.979  12.133 -1.1109 -0.3567 -0.9954
16624TIP3   OH271286   2.732   1.484  14.762  0.3472 -0.0597  0.4086
16624TIP3    H171287   2.752   1.576  14.783  0.3258 -0.2884  1.5229
16624TIP3    H271288   2.780   1.467  14.682 -1.8327  1.7259 -1.4346
16625TIP3   OH271289   1.213   6.556  11.091 -0.9872 -0.0846  0.1820
16625TIP3    H171290   1.240   6.600  11.010  1.2055  0.4472  1.1348
16625TIP3    H271291   1.278   6.486  11.102 -1.4948 -0.3945  1.2989
16626TIP3   OH271292   5.330   3.745  16.824  0.3019  0.3267  0.0275
16626TIP3    H171293   5.334   3.701  16.909 -1.3659  2.2996  1.2321
16626TIP3    H271294   5.264   3.813  16.836  0.7628  1.3383 -2.5703
16627TIP3   OH271295   3.032   3.603  17.140 -0.3009 -0.1663 -0.2166
16627TIP3    H171296   2.947   3.560  17.129 -0.4185 -0.1649  0.6111
16627TIP3    H271297   3.072   3.557  17.214 -0.3191  0.9779  0.5209
16628TIP3   OH271298   3.921   2.702  12.711 -0.1368  0.2017 -0.7455
16628TIP3    H171299   3.872   2.622  12.729  0.1067 -0.1324 -1.5285
16628TIP3    H271300   3.873   2.744  12.639  0.8167 -0.2359 -1.6649
16629TIP3   OH271301   4.287   2.652   3.324 -0.4697  0.4435  0.5754
16629TIP3    H171302   4.210   2.687   3.370 -0.4186 -0.2183  1.1719
16629TIP3    H271303   4.356   2.716   3.341 -0.3803  0.0796  1.6528
16630TIP3   OH271304   0.192   6.642   2.013 -0.2511 -0.4913 -0.1601
16630TIP3    H171305   0.131   6.642   1.938  3.2831  1.0955 -3.3596
16630TIP3    H271306   0.253   6.571   1.993 -0.5252 -1.6526  2.6455
16631TIP3   OH271307   4.017   1.803  16.115 -0.0802  0.1891  0.0458
16631TIP3    H171308   4.029   1.898  16.110  1.5207 -0.0317 -1.0947
16631TIP3    H271309   3.962   1.790  16.192  1.8041  1.9023  1.7969
16632TIP3   OH271310   4.925   5.781  17.228  0.0856 -0.6404  0.3731
16632TIP3    H171311   4.984   5.729  17.282  1.8428 -0.8709 -1.6304
16632TIP3    H271312   4.957   5.768  17.138 -2.5301 -0.0909 -0.7302
16633TIP3   OH271313   1.772   3.178  16.142  1.2258 -0.0992  0.3027
16633TIP3    H171314   1.733   3.103  16.185 -1.4538  2.0130  1.8242
16633TIP3    H271315   1.753   3.164  16.049  1.0224 -1.4098  0.5192
16634TIP3   OH271316   1.602   4.364  16.749 -0.2014  0.0921  0.6622
16634TIP3    H171317   1.645   4.447  16.728 -0.6550 -0.2947 -2.3865
16634TIP3    H271318   1.670   4.297  16.736 -1.0281 -0.3489 -2.2437
16635TIP3   OH271319   3.246   4.673   3.502  0.5340  0.1066 -0.0747
16635TIP3    H171320   3.210   4.692   3.416  0.4006  1.0706  0.1751
16635TIP3    H271321   3.325   4.621   3.485 -0.0582 -0.5885 -0.7094
16636TIP3   OH271322   4.080   1.624   0.300 -0.5552 -0.0238 -0.5319
16636TIP3    H171323   4.137   1.614   0.376 -1.6551  2.1755  0.7024
16636TIP3    H271324   4.135   1.665   0.234 -0.0039 -0.4535 -0.3427
16637TIP3   OH271325   3.053   2.431  11.915 -0.1313 -0.2931  0.1740
16637TIP3    H171326   3.015   2.367  11.855  0.7058 -0.2560 -0.4054
16637TIP3    H271327   3.139   2.395  11.937  0.1141  0.3605  0.2924
16638TIP3   OH271328   4.167   2.328   1.742  0.5951 -0.4658 -0.2915
16638TIP3    H171329   4.235   2.339   1.677  2.2076 -1.5156  1.1374
16638TIP3    H271330   4.100   2.275   1.698  1.3903 -0.7054 -1.2477
16639TIP3   OH271331   5.707   6.696   1.853  0.3919 -0.2746 -0.0152
16639TIP3    H171332   5.709   6.603   1.828 -2.2700 -0.7631  1.2349
16639TIP3    H271333   5.759   6.701   1.933  0.9478 -0.5872 -0.3523
16640TIP3   OH271334   5.094   5.039  11.249 -0.6708 -0.7161 -0.5588
16640TIP3    H171335   5.037   5.080  11.313 -0.2571  0.6460 -1.0238
16640TIP3    H271336   5.053   5.059  11.164 -0.5685 -1.4440 -0.7814
16641TIP3   OH271337   0.812   4.862   0.101 -0.1484  0.3937 -0.4399
16641TIP3    H171338   0.877   4.914   0.147 -1.3280  0.1024  1.6584
16641TIP3    H271339   0.855   4.777   0.087 -0.3854 -0.1941  1.9709
16642TIP3   OH271340   4.979   1.967  13.675  0.3111 -0.0189  0.6802
16642TIP3    H171341   4.967   2.014  13.757  1.1513 -1.5665  1.7350
16642TIP3    H271342   5.034   2.025  13.622  0.0109  0.8602  1.3003
16643TIP3   OH271343   1.125   5.177  12.566 -0.9417  0.4588  0.0343
16643TIP3    H171344   1.182   5.173  12.489  1.2733 -2.7326  1.5948
16643TIP3    H271345   1.185   5.196  12.639 -2.4298  0.2851  1.3587
16644TIP3   OH271346   5.612   3.295   5.531 -0.3689 -0.5187 -0.0183
16644TIP3    H171347   5.622   3.313   5.624 -0.3672 -0.9779  0.0709
16644TIP3    H271348   5.681   3.231   5.511  0.1306  0.1545 -0.5001
16645TIP3   OH271349   0.122   6.508   3.744  0.0048  0.4351  0.4512
16645TIP3    H171350   0.199   6.547   3.784  1.4456 -1.8272  0.0365
16645TIP3    H271351   0.068   6.480   3.818  1.8417 -2.1694  0.9108
16646TIP3   OH271352   0.414   2.669   1.233  0.1618 -0.0397 -0.2281
16646TIP3    H171353   0.349   2.615   1.189  0.2437  0.0922 -0.5111
16646TIP3    H271354   0.388   2.759   1.212  0.6907  0.0042 -0.7147
16647TIP3   OH271355   3.387   5.693   2.539 -0.3612 -0.3033 -0.0272
16647TIP3    H171356   3.432   5.775   2.559 -0.6029 -0.0593 -0.4577
16647TIP3    H271357   3.296   5.718   2.525 -0.1630 -0.3877 -1.6955
16648TIP3   OH271358   6.571   2.528  14.260 -0.0552  0.6200 -0.3066
16648TIP3    H171359   6.571   2.578  14.342 -0.0540  1.3769 -0.7527
16648TIP3    H271360   6.537   2.442  14.284 -0.9077  1.1140  0.3227
16649TIP3   OH271361   0.996   1.200   0.432 -0.3161  0.1296  0.5275
16649TIP3    H171362   0.992   1.108   0.408 -0.0610  0.0748  0.6866
16649TIP3    H271363   1.082   1.210   0.474 -1.2498 -0.0682  2.6144
16650TIP3   OH271364   2.724   0.002   1.944 -0.0222 -0.6796  0.4819
16650TIP3    H171365   2.747  -0.072   1.888 -1.3118 -0.2278 -0.7077
16650TIP3    H271366   2.795   0.064   1.931 -1.4061  0.4585 -2.6804
16651TIP3   OH271367   5.978   5.112   4.865 -0.3560 -0.1728  0.0720
16651TIP3    H171368   5.956   5.089   4.955  0.8544  0.5871  0.5841
16651TIP3    H271369   5.948   5.202   4.856 -0.2047 -0.1496 -0.1915
16652TIP3   OH271370   3.875   2.630   0.325  0.2951 -0.2587  0.2687
16652TIP3    H171371   3.853   2.688   0.398 -1.4101  0.1736 -0.5204
16652TIP3    H271372   3.828   2.668   0.250  1.6707 -0.8996 -0.9886
16653TIP3   OH271373   1.663   0.511  11.224 -0.3313 -0.3949 -0.1824
16653TIP3    H171374   1.585   0.480  11.178  0.4472 -0.1292 -1.7406
16653TIP3    H271375   1.672   0.603  11.198 -0.3691  0.0463  1.2438
16654TIP3   OH271376   0.501   6.324   3.890 -0.1548  0.3476 -0.4782
16654TIP3    H171377   0.565   6.355   3.827  0.3209 -1.2311 -0.8118
16654TIP3    H271378   0.543   6.335   3.975  0.0821  0.4225 -0.6055
16655TIP3   OH271379   2.997   2.707   0.605  0.5046 -1.3766 -0.4526
16655TIP3    H171380   2.929   2.728   0.541 -0.3404 -0.7304  0.6283
16655TIP3    H271381   3.067   2.768   0.586 -1.2064  1.4171  1.5279
16656TIP3   OH271382   2.280   2.053   2.402  0.8610 -0.4122  0.5245
16656TIP3    H171383   2.332   2.006   2.337  0.5781  0.4092 -0.3088
16656TIP3    H271384   2.224   2.111   2.351 -0.8424 -1.2264  1.4077
16657TIP3   OH271385   1.605   6.250  16.202  0.2556 -0.7176  0.1115
16657TIP3    H171386   1.610   6.162  16.239 -1.3234 -1.2494 -0.8109
16657TIP3    H271387   1.551   6.239  16.123  0.0236  1.0716 -0.0171
16658TIP3   OH271388   2.814   4.310  13.010  0.2718  0.1183 -0.1540
16658TIP3    H171389   2.840   4.401  13.024 -0.3008  0.1046  1.0996
16658TIP3    H271390   2.893   4.259  13.029  0.6960  0.3518 -1.2051
16659TIP3   OH271391   5.908   2.491   4.379  0.1968 -0.0542 -0.6025
16659TIP3    H171392   5.884   2.480   4.471 -0.8110 -0.6228 -0.9111
16659TIP3    H271393   5.842   2.441   4.331  1.2609 -0.5652 -1.5942
16660TIP3   OH271394   4.579   1.715  16.309 -0.6584 -0.2296 -0.1319
16660TIP3    H171395   4.486   1.694  16.323 -0.7177 -0.3931 -0.7532
16660TIP3    H271396   4.607   1.653  16.242 -0.5408  0.9347 -1.1902
16661TIP3   OH271397   0.223   2.872  14.184 -0.4357 -0.0475 -0.2220
16661TIP3    H171398   0.292   2.824  14.231 -0.2847  1.9030  1.6988
16661TIP3    H271399   0.214   2.825  14.101  2.2301 -1.1934  0.0278
16662TIP3   OH271400   5.279   0.239   0.985 -0.3883  0.1889 -0.2140
16662TIP3    H171401   5.246   0.151   1.004 -1.8969  0.3798 -1.6587
16662TIP3    H271402   5.364   0.224   0.944 -0.0910 -0.5208  0.6325
16663TIP3   OH271403   6.352   3.056  15.806  0.4592  0.0628 -0.3753
16663TIP3    H171404   6.421   3.040  15.742 -0.4970  0.0460 -1.4256
16663TIP3    H271405   6.370   2.994  15.877  1.7745  0.3780 -0.4137
16664TIP3   OH271406   4.079   2.262   4.299  0.1471 -0.3884  0.1841
16664TIP3    H171407   4.033   2.214   4.231 -1.0497 -1.2291  1.5478
16664TIP3    H271408   4.172   2.249   4.279 -0.1733 -0.2788 -1.4922
16665TIP3   OH271409   6.749   4.851   4.287 -0.0705  1.0355  0.2521
16665TIP3    H171410   6.684   4.792   4.326 -0.4746  1.6578  0.5232
16665TIP3    H271411   6.808   4.873   4.359  0.1788  0.8323  0.1115
16666TIP3   OH271412   6.187   3.375   5.781 -0.0866 -0.0990 -0.4026
16666TIP3    H171413   6.251   3.419   5.838  0.2540  0.3838 -1.1517
16666TIP3    H271414   6.237   3.303   5.742  0.3938  1.0622 -2.0047
16667TIP3   OH271415   3.080   1.733  12.208  0.1401  0.0131  0.2731
16667TIP3    H171416   3.131   1.677  12.150 -1.2525 -1.2742  0.2087
16667TIP3    H271417   3.145   1.780  12.259  1.3854 -0.9357 -0.3720
16668TIP3   OH271418   5.753   2.243   1.771  0.7358  0.1717 -0.3492
16668TIP3    H171419   5.676   2.234   1.715  1.0046 -0.4606 -0.6284
16668TIP3    H271420   5.728   2.200   1.853  0.6565  0.3139 -0.2978
16669TIP3   OH271421   0.821   4.724  16.145  0.4895 -0.1781 -0.4928
16669TIP3    H171422   0.765   4.697  16.218  1.1107 -0.7575 -0.2099
16669TIP3    H271423   0.763   4.726  16.069  0.2174 -1.4439 -0.3402
16670TIP3   OH271424   0.303   2.831  15.687 -0.0742  0.4403  1.0663
16670TIP3    H171425   0.301   2.735  15.682  0.8928  0.4652 -0.2737
16670TIP3    H271426   0.338   2.849  15.774 -0.8739 -0.3959  1.5899
16671TIP3   OH271427   1.514   1.475  12.393  0.1590 -0.4601  0.3161
16671TIP3    H171428   1.606   1.485  12.368 -0.0190  1.2929  0.2694
16671TIP3    H271429   1.469   1.455  12.311  0.1457  1.3564 -0.1642
16672TIP3   OH271430   3.113   1.604   3.899  0.1256  0.5215  0.1304
16672TIP3    H171431   3.178   1.617   3.968 -1.0392  0.3871  1.3113
16672TIP3    H271432   3.039   1.659   3.926 -1.4342 -1.6351  0.5063
16673TIP3   OH271433   1.772   2.475  16.769  0.0252  0.0892 -0.2636
16673TIP3    H171434   1.835   2.405  16.781  1.8678  1.6766 -0.1766
16673TIP3    H271435   1.719   2.448  16.694  2.5026 -0.1798 -2.0384
16674TIP3   OH271436   1.514   0.012  11.949 -0.1278  0.3276  0.7449
16674TIP3    H171437   1.585   0.063  11.910 -0.4621  1.0574  1.0568
16674TIP3    H271438   1.464  -0.020  11.875  0.3874  0.0033  0.5304
16675TIP3   OH271439   1.331   2.873   1.314  0.6074  0.3979  0.3851
16675TIP3    H171440   1.421   2.903   1.310  0.3426  1.2805  0.7156
16675TIP3    H271441   1.283   2.935   1.259 -0.1568  1.4163  2.1192
16676TIP3   OH271442   2.248   6.408  13.242  0.1306 -0.2127  0.4823
16676TIP3    H171443   2.222   6.373  13.327  1.1826 -0.5784  0.6707
16676TIP3    H271444   2.192   6.484  13.230 -0.9378 -0.8984  0.9001
16677TIP3   OH271445   4.020   5.387   3.129  0.3269 -0.0116  0.1071
16677TIP3    H171446   4.041   5.366   3.220 -0.1367  0.5407  0.3491
16677TIP3    H271447   4.099   5.365   3.080  1.0587  0.8969  0.8296
16678TIP3   OH271448   3.484   2.891  16.206 -0.0724 -0.0059  0.3356
16678TIP3    H171449   3.492   2.965  16.267  0.7013 -1.1131  1.6561
16678TIP3    H271450   3.535   2.917  16.130  0.3798  0.7368  0.8757
16679TIP3   OH271451   4.115   1.700  14.308 -0.2679  0.3940 -0.4930
16679TIP3    H171452   4.209   1.719  14.298 -0.2311 -0.4956 -2.1506
16679TIP3    H271453   4.113   1.609  14.339 -0.5847  0.3441 -0.6654
16680TIP3   OH271454   1.544   5.355  11.113  0.3957  0.2803  0.1369
16680TIP3    H171455   1.572   5.438  11.074  1.3058  0.6931  1.5537
16680TIP3    H271456   1.547   5.292  11.042  1.9917  0.9926 -0.4837
16681TIP3   OH271457   4.619   3.958  11.845 -0.2437  0.5808  0.2022
16681TIP3    H171458   4.635   3.986  11.755 -0.3742 -0.5463 -0.1947
16681TIP3    H271459   4.539   4.002  11.871  0.4497  1.8674  0.2044
16682TIP3   OH271460   0.715   4.880  14.081 -0.2066 -0.1692  0.3335
16682TIP3    H171461   0.637   4.864  14.027 -0.3630 -0.9251  0.7624
16682TIP3    H271462   0.743   4.792  14.108  0.0288  0.1825  1.2593
16683TIP3   OH271463   5.502   2.952   0.972  0.9401 -0.1649 -0.2728
16683TIP3    H171464   5.425   2.987   1.017  0.9840 -1.2857  0.7223
16683TIP3    H271465   5.471   2.931   0.884  0.8222  1.9387 -0.7940
16684TIP3   OH271466   6.443   6.376  13.224 -0.0014  0.5723  0.7982
16684TIP3    H171467   6.450   6.452  13.281 -1.7711  2.5227 -1.4170
16684TIP3    H271468   6.355   6.382  13.187  0.7798 -1.0555 -1.5026
16685TIP3   OH271469   4.014   4.851  12.595 -0.4695  0.3453  0.1640
16685TIP3    H171470   4.079   4.781  12.604 -0.8344  0.0427  0.4581
16685TIP3    H271471   4.055   4.914  12.535 -0.0669 -0.0323  0.0370
16686TIP3   OH271472   0.267   0.531   4.902 -0.0156 -1.0812 -0.1781
16686TIP3    H171473   0.363   0.526   4.902  0.1485  1.0204 -0.0002
16686TIP3    H271474   0.241   0.489   4.820  1.3594  1.4604 -2.0810
16687TIP3   OH271475   6.253   0.328   2.702 -0.5068 -0.2325  0.2325
16687TIP3    H171476   6.286   0.417   2.714  0.3425 -0.0983 -2.4639
16687TIP3    H271477   6.175   0.339   2.646 -0.5832 -1.1555  0.1386
16688TIP3   OH271478   0.079   2.465  17.154  0.2735  0.0939 -0.3941
16688TIP3    H171479   0.057   2.414  17.076  0.5322 -0.2264 -0.2601
16688TIP3    H271480   0.174   2.471  17.152  0.2461  0.5574 -0.3965
16689TIP3   OH271481   3.011   6.043   1.969  0.3493 -0.1135 -0.1704
16689TIP3    H171482   3.039   6.121   1.920 -1.1246  0.8878  0.5294
16689TIP3    H271483   2.916   6.043   1.963  0.0784  0.0500  2.6530
16690TIP3   OH271484   2.984   0.762  15.923 -0.3540  0.7169  0.2693
16690TIP3    H171485   3.023   0.772  15.836  0.5533 -1.2287  0.3907
16690TIP3    H271486   2.941   0.676  15.920  0.1168  0.3896  1.8797
16691TIP3   OH271487   2.601   3.295  13.479 -0.0790  0.0215  0.4172
16691TIP3    H171488   2.592   3.389  13.468 -0.8158  0.2164  2.2370
16691TIP3    H271489   2.653   3.266  13.404 -0.8656  1.6824 -0.8202
16692TIP3   OH271490   1.044   6.079   5.425  0.2334  0.1478 -0.3132
16692TIP3    H171491   1.005   5.992   5.430  0.2175  0.0837 -1.3092
16692TIP3    H271492   1.053   6.107   5.516 -1.9972  0.1118 -0.0325
16693TIP3   OH271493   1.006   2.836   3.858 -0.3123 -0.4941  0.3298
16693TIP3    H171494   1.045   2.781   3.926  0.3490 -0.4042  0.0388
16693TIP3    H271495   0.912   2.824   3.868 -0.1871 -1.8973  0.1111
16694TIP3   OH271496   2.157   3.350  14.515 -0.1208  0.0118 -0.0601
16694TIP3    H171497   2.180   3.442  14.501  1.1888 -0.5264 -1.8341
16694TIP3    H271498   2.203   3.325  14.595  1.2477  0.3819 -0.7069
16695TIP3   OH271499   2.807   3.450  11.993  0.6013 -0.2593 -0.1063
16695TIP3    H171500   2.765   3.389  12.052  0.8748  0.7751  1.2175
16695TIP3    H271501   2.805   3.407  11.907 -0.9075 -1.2690  0.3977
16696TIP3   OH271502   5.531   1.576   4.842  0.1779 -0.4416 -0.3991
16696TIP3    H171503   5.597   1.550   4.778 -2.1455 -4.5928 -1.5359
16696TIP3    H271504   5.546   1.519   4.917 -0.1802  0.8533  0.6910
16697TIP3   OH271505   4.754   2.433   5.719  0.3600 -0.3266  0.5889
16697TIP3    H171506   4.781   2.515   5.760  1.6476 -0.5024  0.1137
16697TIP3    H271507   4.713   2.459   5.637  3.5754 -0.2263 -1.1240
16698TIP3   OH271508   5.148   2.781  14.834  0.3286  1.0884 -0.5089
16698TIP3    H171509   5.155   2.711  14.769 -2.0571  1.2861 -1.0490
16698TIP3    H271510   5.217   2.843  14.810  1.0277  0.0226 -1.3676
16699TIP3   OH271511   1.308   6.612   5.306  0.3810 -0.2551 -0.1357
16699TIP3    H171512   1.240   6.553   5.271 -0.4261 -0.8852  2.2726
16699TIP3    H271513   1.273   6.640   5.391  2.3988  0.7872  0.3990
16700TIP3   OH271514   5.601   3.755   1.233  0.3047  0.3034  0.5713
16700TIP3    H171515   5.572   3.742   1.143 -0.9001  0.4838  0.9253
16700TIP3    H271516   5.680   3.700   1.241 -0.2116 -0.5838 -0.2516
16701TIP3   OH271517   5.212   4.927   3.675 -0.5569 -0.1964 -0.1522
16701TIP3    H171518   5.239   4.904   3.586 -0.6397 -1.0586  0.0333
16701TIP3    H271519   5.213   5.022   3.677  1.0702 -0.1815 -0.5835
16702TIP3   OH271520   4.190   1.212   1.850  0.0125 -1.1596  0.3342
16702TIP3    H171521   4.109   1.179   1.890 -0.1578 -0.0894  0.9004
16702TIP3    H271522   4.242   1.133   1.834 -1.0281 -1.8431  0.1977
16703TIP3   OH271523   0.371   6.695  13.909 -0.1669 -0.0836 -0.0571
16703TIP3    H171524   0.383   6.601  13.924 -0.0256  0.0998  1.0124
16703TIP3    H271525   0.316   6.699  13.830  0.2053 -1.0500 -0.3850
16704TIP3   OH271526   3.839   3.860  12.760 -0.3352 -0.0163  0.2899
16704TIP3    H171527   3.769   3.839  12.822 -0.2730 -1.1170 -0.0010
16704TIP3    H271528   3.862   3.777  12.719  0.5541  0.4721 -0.2513
16705TIP3   OH271529   4.670   6.315   1.286  0.1950 -0.4993  0.4412
16705TIP3    H171530   4.751   6.268   1.308 -0.5774 -0.3173  4.3541
16705TIP3    H271531   4.690   6.407   1.305 -0.9996 -0.5201  2.0360
16706TIP3   OH271532   2.943   1.365   2.824 -0.0796  0.1521  0.1164
16706TIP3    H171533   2.882   1.292   2.827 -0.6964  0.6569 -0.0028
16706TIP3    H271534   2.888   1.442   2.818  0.5676  0.6350  0.2956
16707TIP3   OH271535   0.101   5.274   1.629  0.1864  0.2899 -0.2990
16707TIP3    H171536   0.055   5.273   1.545 -1.0444  1.5671  0.3150
16707TIP3    H271537   0.040   5.318   1.689  1.2668 -0.0915  1.1291
16708TIP3   OH271538   0.205   0.304   1.684 -0.0341 -0.0756 -0.4597
16708TIP3    H171539   0.118   0.275   1.710 -1.1748  3.2270 -0.1294
16708TIP3    H271540   0.260   0.288   1.760 -0.7983 -0.3766  0.0413
16709TIP3   OH271541   5.075   0.834   6.221  0.1056  0.0609 -0.0621
16709TIP3    H171542   5.152   0.887   6.243 -0.5273  0.6454  0.8104
16709TIP3    H271543   5.074   0.766   6.288  0.4783 -0.6183 -0.7310
16710TIP3   OH271544   3.765   5.697  11.950 -0.0730 -0.5077  0.3257
16710TIP3    H171545   3.791   5.638  11.879 -0.7378  0.0876 -0.4331
16710TIP3    H271546   3.753   5.782  11.908  0.7173  0.1425  1.3813
16711TIP3   OH271547   0.123   4.780  14.915 -0.8254 -0.4262  0.5440
16711TIP3    H171548   0.072   4.709  14.956  0.0299 -0.5934  1.3429
16711TIP3    H271549   0.213   4.749  14.918 -0.5001  0.4886  0.4393
16712TIP3   OH271550   6.566   2.735  14.494  0.1797 -0.5559 -0.2577
16712TIP3    H171551   6.525   2.820  14.477  0.7019 -0.7407 -2.7300
16712TIP3    H271552   6.654   2.743  14.457  0.4702 -1.9697  0.0718
16713TIP3   OH271553   4.528   3.247   5.881 -0.7137 -0.2635  0.1525
16713TIP3    H171554   4.567   3.334   5.892 -1.0219  0.2381 -2.1999
16713TIP3    H271555   4.602   3.187   5.890 -0.1866  0.3733  0.1547
16714TIP3   OH271556   2.023   3.869   0.816 -0.5512 -0.2505  0.1502
16714TIP3    H171557   2.039   3.777   0.837  0.5949  0.5368  3.4453
16714TIP3    H271558   2.097   3.896   0.763 -0.1893 -0.9145  0.3122
16715TIP3   OH271559   6.266   6.291   0.308  0.0458  0.0312 -0.1535
16715TIP3    H171560   6.198   6.286   0.374  0.2221 -0.1877  0.0125
16715TIP3    H271561   6.256   6.378   0.269 -0.5951 -0.1545 -0.4164
16716TIP3   OH271562   4.709   5.007  16.757  0.4623 -0.2331  0.8265
16716TIP3    H171563   4.686   4.922  16.719 -2.0731  0.2378  1.1371
16716TIP3    H271564   4.691   4.998  16.850 -0.7192  0.8713  0.7380
16717TIP3   OH271565   3.946   4.569  11.519  0.1012  0.4596  0.7606
16717TIP3    H171566   3.920   4.538  11.606  1.0908  0.8254  1.2059
16717TIP3    H271567   3.940   4.665  11.525  0.5037  0.5012  0.5458
16718TIP3   OH271568   3.782   5.891   3.062  0.0455  0.2947  0.1464
16718TIP3    H171569   3.726   5.868   3.137  0.8418 -0.5269  0.5031
16718TIP3    H271570   3.865   5.917   3.100  0.4020  0.0512 -0.4502
16719TIP3   OH271571   2.470   2.333  14.886  0.8913 -0.2500  0.4366
16719TIP3    H171572   2.415   2.341  14.808  1.5495 -1.6260 -0.2001
16719TIP3    H271573   2.505   2.420  14.900  1.0297 -0.0522 -1.0080
16720TIP3   OH271574   0.171   1.592   0.661 -0.2156 -0.2590 -0.3081
16720TIP3    H171575   0.154   1.683   0.685  1.0771 -0.3872  1.2489
16720TIP3    H271576   0.127   1.581   0.576 -0.4096  1.7939 -0.5253
16721TIP3   OH271577   0.106   4.510  12.755  0.9325  0.2945 -0.3180
16721TIP3    H171578   0.094   4.596  12.794 -2.0621 -0.0078 -0.2816
16721TIP3    H271579   0.098   4.449  12.828 -1.8266 -0.1402 -0.8582
16722TIP3   OH271580   2.325   1.545  12.145  0.3977 -0.6683  0.5003
16722TIP3    H171581   2.310   1.558  12.239  1.3360 -0.2427  0.5963
16722TIP3    H271582   2.266   1.608  12.102  0.7936 -0.0653  0.8320
16723TIP3   OH271583   2.855   1.537  15.336  0.2846 -0.3889 -0.7678
16723TIP3    H171584   2.847   1.447  15.305  0.5606 -0.7208  0.1093
16723TIP3    H271585   2.774   1.553  15.385  2.0164 -1.6957  2.8779
16724TIP3   OH271586   0.698   4.301  16.593  0.1016 -0.2161 -0.1554
16724TIP3    H171587   0.732   4.229  16.540  2.1228 -0.4082  1.3147
16724TIP3    H271588   0.680   4.261  16.679 -1.1838  0.5180 -0.0596
16725TIP3   OH271589   1.945   0.699  12.226  0.1621 -0.9874 -0.3438
16725TIP3    H171590   1.900   0.619  12.251  0.2814 -2.1530 -3.4591
16725TIP3    H271591   1.921   0.714  12.135 -1.5314  3.7622  0.5655
16726TIP3   OH271592   3.953   0.946  15.187 -0.0292  0.7522 -0.0440
16726TIP3    H171593   3.901   0.983  15.115  0.4535  1.5104 -0.0108
16726TIP3    H271594   3.918   0.989  15.265 -0.3010  0.2034  0.1460
16727TIP3   OH271595   1.104   3.340   1.129  0.4866 -0.0089  0.0284
16727TIP3    H171596   1.015   3.345   1.093 -0.2029  2.6172  1.7533
16727TIP3    H271597   1.161   3.340   1.052 -0.9694 -1.2314 -1.1108
16728TIP3   OH271598   4.117   0.486   1.029  0.2436 -0.1402  0.5371
16728TIP3    H171599   4.177   0.413   1.014  0.5871  0.3756 -0.8221
16728TIP3    H271600   4.175   0.561   1.043 -0.0678  0.3175 -0.5412
16729TIP3   OH271601   4.857   5.279   1.821 -0.0559 -0.0361  0.1683
16729TIP3    H171602   4.909   5.209   1.783  1.1516  1.8793 -1.9754
16729TIP3    H271603   4.770   5.269   1.783  0.0095 -0.5433  0.1503
16730TIP3   OH271604   6.556   4.839   1.881 -0.2443  0.1591  0.5173
16730TIP3    H171605   6.580   4.747   1.887  1.5082  0.6297  1.4085
16730TIP3    H271606   6.610   4.882   1.947 -0.9386  1.8472  0.0340
16731TIP3   OH271607   3.892   4.969  12.197 -0.2561 -0.3050  0.3691
16731TIP3    H171608   3.962   4.939  12.254 -0.3681  0.4147  0.8869
16731TIP3    H271609   3.892   4.906  12.124  1.1023 -0.1519  0.2247
16732TIP3   OH271610   1.646   5.082  14.593 -0.7600 -0.1698  0.2519
16732TIP3    H171611   1.641   5.067  14.688  0.4445  0.8623  0.5027
16732TIP3    H271612   1.730   5.126  14.580 -1.1224  0.1310 -1.2485
16733TIP3   OH271613   3.889   0.028   4.184  0.4422  0.0512  0.2615
16733TIP3    H171614   3.845   0.058   4.264 -1.3448 -3.5717  0.8135
16733TIP3    H271615   3.982   0.029   4.206  0.2225  1.7854  1.3337
16734TIP3   OH271616   0.772   5.785   0.474  0.2695 -0.5790 -0.2595
16734TIP3    H171617   0.728   5.772   0.389 -0.9846  3.6078 -0.4700
16734TIP3    H271618   0.717   5.737   0.536 -1.7049  0.2659 -1.2392
16735TIP3   OH271619   5.118   5.768  14.198 -0.1029 -0.5546 -0.1296
16735TIP3    H171620   5.133   5.794  14.289  1.5120  1.0167 -0.7828
16735TIP3    H271621   5.036   5.812  14.174 -0.5395 -0.9793  0.5520
16736TIP3   OH271622   3.164   3.726   4.517 -0.4411  0.6149  0.4219
16736TIP3    H171623   3.190   3.813   4.487  0.0865  0.4303  0.3258
16736TIP3    H271624   3.091   3.741   4.576 -2.4280  0.9318 -1.9264
16737TIP3   OH271625   1.487   3.362   4.439 -0.4126  0.1709  0.0688
16737TIP3    H171626   1.566   3.392   4.395  0.5259  0.0983  1.6265
16737TIP3    H271627   1.511   3.278   4.477 -1.0173  0.4360  1.0942
16738TIP3   OH271628   5.347   6.575   4.930 -0.1247 -0.0109  0.0540
16738TIP3    H171629   5.398   6.526   4.866 -1.0689 -1.1415  0.1398
16738TIP3    H271630   5.401   6.652   4.950  0.6362 -0.1621 -1.3243
16739TIP3   OH271631   4.657   3.210  13.947 -0.0355  0.2393 -0.4184
16739TIP3    H171632   4.604   3.280  13.986  1.2258  0.8898  0.1801
16739TIP3    H271633   4.740   3.213  13.994 -0.5898 -2.9590  1.0049
16740TIP3   OH271634   4.034   2.043  15.378  0.3808  0.1195 -0.2706
16740TIP3    H171635   4.093   2.064  15.451 -0.1991  1.5590 -0.1836
16740TIP3    H271636   4.090   2.049  15.301  0.5923  0.3936 -0.1006
16741TIP3   OH271637   3.057   2.966   5.250  0.2109 -1.4235  0.3423
16741TIP3    H171638   2.968   2.966   5.215  0.3517  2.3187 -0.4621
16741TIP3    H271639   3.106   2.910   5.189 -1.1451 -1.7082 -0.5341
16742TIP3   OH271640   0.490   4.718  16.283 -0.0583 -0.6903  0.1921
16742TIP3    H171641   0.459   4.681  16.200 -0.7421  1.3738 -0.5400
16742TIP3    H271642   0.411   4.727  16.336  0.1563 -0.7003  0.5104
16743TIP3   OH271643   0.174   4.356   3.992  0.1853  0.0854 -0.0355
16743TIP3    H171644   0.254   4.374   3.943  0.5729 -0.4246  0.3957
16743TIP3    H271645   0.193   4.389   4.080 -0.0991  0.0176  0.0499
16744TIP3   OH271646   3.585   5.943   5.795 -0.0030 -0.0277 -0.0641
16744TIP3    H171647   3.572   5.981   5.708  0.9563 -0.5030 -0.4357
16744TIP3    H271648   3.504   5.895   5.812 -0.6507  0.9702 -0.2031
16745TIP3   OH271649   3.857   0.360  14.468 -0.0890  0.3306  0.5630
16745TIP3    H171650   3.790   0.335  14.404 -0.0026 -0.1481  0.6494
16745TIP3    H271651   3.929   0.394  14.416  0.0421 -0.2008  0.3886
16746TIP3   OH271652   6.258   1.191  12.012  0.0632 -0.2262 -0.1148
16746TIP3    H171653   6.236   1.242  11.934 -0.1324 -1.3118 -0.8017
16746TIP3    H271654   6.341   1.227  12.042 -0.0459  0.4547 -0.6110
16747TIP3   OH271655   2.463   3.008   3.804 -0.6050 -0.2159 -0.1329
16747TIP3    H171656   2.424   3.033   3.720  1.0637 -0.7526 -1.1106
16747TIP3    H271657   2.488   2.916   3.793  0.0069 -0.1750  0.7888
16748TIP3   OH271658   0.175   1.930  13.714 -0.0583 -0.2192  0.0439
16748TIP3    H171659   0.115   1.940  13.639  0.1420  1.4639  0.0618
16748TIP3    H271660   0.261   1.948  13.678 -0.0725  1.7262  0.8440
16749TIP3   OH271661   3.026   0.609   2.174 -0.8373  0.1651 -0.2504
16749TIP3    H171662   3.004   0.522   2.142 -1.1222  0.2742 -0.3471
16749TIP3    H271663   3.122   0.608   2.180 -0.8324 -0.1191 -0.3470
16750TIP3   OH271664   1.323   2.001   0.267 -0.4412 -0.6050  0.5415
16750TIP3    H171665   1.236   1.989   0.228  0.0767 -0.1058 -0.8349
16750TIP3    H271666   1.341   2.094   0.257  0.3083 -0.7264  0.7073
16751TIP3   OH271667   6.122   2.779  12.540  0.1887 -0.3928 -0.0868
16751TIP3    H171668   6.139   2.750  12.450  2.4155  1.4743 -0.3785
16751TIP3    H271669   6.058   2.850  12.530  2.3346  1.6325 -0.6544
16752TIP3   OH271670   1.392   1.074   5.854 -0.2844 -0.3931  0.4407
16752TIP3    H171671   1.445   1.008   5.809 -1.1019 -0.5097 -0.3879
16752TIP3    H271672   1.436   1.086   5.938 -1.0955 -3.3180  1.4007
16753TIP3   OH271673   5.509   1.056   4.865 -0.3947  0.7549  0.9383
16753TIP3    H171674   5.591   1.043   4.913  0.6127  0.4906 -0.8049
16753TIP3    H271675   5.442   1.016   4.921  0.7823  0.1766  1.9713
16754TIP3   OH271676   3.965   3.352   0.953  0.2419  0.2972  0.3169
16754TIP3    H171677   3.894   3.296   0.986  0.1953 -0.1918 -0.5766
16754TIP3    H271678   3.939   3.372   0.863  0.5191  1.3321  0.4592
16755TIP3   OH271679   4.570   3.702  13.903  0.3149 -0.5991  0.3542
16755TIP3    H171680   4.504   3.633  13.916  0.8024 -1.5120 -1.6251
16755TIP3    H271681   4.519   3.782  13.892 -0.3635 -0.9799  0.6462
16756TIP3   OH271682   4.013   6.442  11.801 -0.0447 -0.0322 -0.2247
16756TIP3    H171683   3.919   6.462  11.807 -0.0205  0.2663 -0.7609
16756TIP3    H271684   4.029   6.432  11.707  0.4070 -0.3647 -0.1186
16757TIP3   OH271685   5.179   5.264  14.570  0.1168 -0.0934 -0.2272
16757TIP3    H171686   5.204   5.177  14.539  0.6784 -0.3155  0.8072
16757TIP3    H271687   5.260   5.302  14.604 -0.1397  0.7986 -0.5749
16758TIP3   OH271688   3.316   3.247  14.683  0.4157  0.0137  0.0139
16758TIP3    H171689   3.343   3.204  14.764  0.8148 -0.6877 -0.4813
16758TIP3    H271690   3.354   3.335  14.688 -0.6350  0.4258  1.1628
16759TIP3   OH271691   4.987   3.879  13.443  0.3708  0.1438 -0.1863
16759TIP3    H171692   5.071   3.845  13.473  0.8229  0.1165 -1.4036
16759TIP3    H271693   4.994   3.879  13.347 -0.9644  0.2828 -0.3031
16760TIP3   OH271694   1.149   1.910  16.395  0.3218  0.3047 -0.1964
16760TIP3    H171695   1.243   1.904  16.411 -0.2179 -1.3418  3.2566
16760TIP3    H271696   1.115   1.966  16.465 -1.3394  0.4430 -1.0488
16761TIP3   OH271697   0.791   2.985   5.063 -0.7722 -0.3317 -0.0731
16761TIP3    H171698   0.873   3.017   5.025 -0.6749  1.1420  1.2517
16761TIP3    H271699   0.805   2.892   5.077  1.0320  0.0467  0.9255
16762TIP3   OH271700   2.002   2.491  12.212 -0.1392 -0.8825 -0.2857
16762TIP3    H171701   1.943   2.461  12.281  1.5074 -0.8109  1.2097
16762TIP3    H271702   2.022   2.412  12.162 -1.3261 -0.9402 -0.7044
16763TIP3   OH271703   4.386   3.196  11.281 -0.9750  0.1380  0.4308
16763TIP3    H171704   4.369   3.287  11.304 -1.5401  0.2095 -0.2275
16763TIP3    H271705   4.373   3.193  11.186  0.8328 -0.2265  0.1589
16764TIP3   OH271706   4.300   5.220  12.860 -0.6767 -0.0701  0.2984
16764TIP3    H171707   4.348   5.180  12.932 -0.1015  1.0932  0.5864
16764TIP3    H271708   4.230   5.158  12.841 -1.4197 -0.0068  2.4855
16765TIP3   OH271709   0.504   3.313  13.390  0.3427  0.0456 -0.1769
16765TIP3    H171710   0.464   3.226  13.385  0.1380  0.0835  0.6127
16765TIP3    H271711   0.564   3.316  13.316 -0.5863 -0.2885 -0.9562
16766TIP3   OH271712   3.120   2.615  16.689  0.2076  0.1908 -0.0079
16766TIP3    H171713   3.065   2.540  16.709 -0.2086 -0.1100 -2.1320
16766TIP3    H271714   3.153   2.599  16.601  3.5695  0.4544  1.0657
16767TIP3   OH271715   4.234   4.801  13.363  0.3493 -0.6628 -0.2577
16767TIP3    H171716   4.283   4.741  13.306  1.6216 -0.0542  0.1544
16767TIP3    H271717   4.179   4.851  13.303  2.2426  0.5232 -1.1214
16768TIP3   OH271718   5.747   3.292  11.339 -0.0175  0.1880 -0.3992
16768TIP3    H171719   5.723   3.234  11.266 -0.9682 -3.2324  2.3716
16768TIP3    H271720   5.684   3.365  11.333 -1.7991 -1.3368 -1.5081
16769TIP3   OH271721   4.513   2.866  14.472  0.1751 -0.0395  0.4788
16769TIP3    H171722   4.503   2.811  14.551  0.3519 -1.0160 -0.1611
16769TIP3    H271723   4.546   2.806  14.406 -1.9472  0.2368 -0.9405
16770TIP3   OH271724   6.519   5.395  12.080 -0.4713 -0.1264  0.2791
16770TIP3    H171725   6.462   5.421  12.152 -1.0882  0.3680 -0.3802
16770TIP3    H271726   6.518   5.299  12.081 -2.0307 -0.1316 -0.2769
16771TIP3   OH271727   1.316   6.554   2.619 -0.1690 -0.4364 -0.8006
16771TIP3    H171728   1.392   6.563   2.562 -0.4894  0.8624 -1.0738
16771TIP3    H271729   1.242   6.581   2.564 -0.2568  2.9903  0.7262
16772TIP3   OH271730   1.393   5.143   1.717  0.4079 -0.3382  0.2583
16772TIP3    H171731   1.454   5.073   1.691 -0.4169 -1.2919  0.8297
16772TIP3    H271732   1.450   5.215   1.743  1.2835 -0.4735 -1.1415
16773TIP3   OH271733   4.854   0.042   4.513 -0.0981 -0.5394 -0.4886
16773TIP3    H171734   4.949   0.034   4.526  0.1555  0.8217 -1.3142
16773TIP3    H271735   4.816  -0.023   4.572  1.2740  0.0326  1.0942
16774TIP3   OH271736   0.832   0.661  12.011 -0.4101 -0.0032  0.3951
16774TIP3    H171737   0.765   0.603  11.974  0.6536 -1.8050  1.2125
16774TIP3    H271738   0.826   0.648  12.106  1.7796 -1.0280  0.4484
16775TIP3   OH271739   3.192   3.348   0.893  0.2428 -0.0605  0.1288
16775TIP3    H171740   3.162   3.372   0.980  0.5360 -0.7323  0.4257
16775TIP3    H271741   3.288   3.347   0.900  0.3295  1.3598 -0.6085
16776TIP3   OH271742   2.151   2.167  14.852  0.2957  0.7122 -0.0708
16776TIP3    H171743   2.203   2.142  14.928 -0.5508 -0.6875  0.0814
16776TIP3    H271744   2.070   2.117  14.860 -0.3756  1.5645 -1.1878
16777TIP3   OH271745   6.127   0.172   2.908  0.0120  0.1533  0.0288
16777TIP3    H171746   6.192   0.199   2.843  1.9793 -2.1068  0.9070
16777TIP3    H271747   6.149   0.081   2.927 -3.1927 -0.5729  0.7431
16778TIP3   OH271748   5.898   3.704  11.834  0.5694  0.2150  0.1329
16778TIP3    H171749   5.874   3.616  11.804 -0.1824  0.3111  0.4256
16778TIP3    H271750   5.868   3.762  11.765 -0.1065  0.3409  0.5226
16779TIP3   OH271751   1.753   5.121  15.176 -0.6376  0.2966 -0.0204
16779TIP3    H171752   1.746   5.181  15.102 -1.3138  0.6349  0.3049
16779TIP3    H271753   1.695   5.049  15.154 -1.0503  0.5297  0.3017
16780TIP3   OH271754   0.865   0.943  12.262  0.0285  0.3489 -0.1589
16780TIP3    H171755   0.800   0.896  12.209  0.6466 -0.4529 -0.2147
16780TIP3    H271756   0.842   0.922  12.353 -2.0501  3.0178  0.0849
16781TIP3   OH271757   1.674   6.390  12.809 -0.7025 -0.5965  0.4482
16781TIP3    H171758   1.626   6.464  12.771  0.5909  0.3971  0.6551
16781TIP3    H271759   1.659   6.397  12.903  0.1097 -0.0745  0.5449
16782TIP3   OH271760   2.821   2.685   5.206  0.3851  0.3293 -0.2973
16782TIP3    H171761   2.911   2.654   5.211  0.0997 -0.4869 -0.0094
16782TIP3    H271762   2.824   2.775   5.239  1.0027  0.1261  0.2039
16783TIP3   OH271763   1.884   2.637   1.345  0.3773  0.1460 -0.3043
16783TIP3    H171764   1.926   2.645   1.430 -2.8252 -0.2398  1.4725
16783TIP3    H271765   1.842   2.551   1.347 -3.2653  1.7505 -0.4230
16784TIP3   OH271766   5.718   3.288  13.568  0.4408 -0.2887  0.3056
16784TIP3    H171767   5.786   3.355  13.580  1.0466 -1.1217  1.7501
16784TIP3    H271768   5.714   3.274  13.474  0.8073  1.2561  0.0343
16785TIP3   OH271769   4.705   3.732  13.439  0.7894  0.8825 -0.7261
16785TIP3    H171770   4.758   3.704  13.514  0.0649 -1.6058 -1.0491
16785TIP3    H271771   4.642   3.794  13.476  1.1500  0.5501  0.5050
16786TIP3   OH271772   2.023   1.737  14.247  0.4845 -0.3208 -0.1559
16786TIP3    H171773   2.047   1.649  14.274  2.3171 -0.1001 -0.8995
16786TIP3    H271774   2.040   1.739  14.153 -1.5318  0.2261 -0.5641
16787TIP3   OH271775   5.186   1.526   2.938 -0.0391 -0.4637 -0.1835
16787TIP3    H171776   5.205   1.596   2.875  0.7094 -0.1880  0.3284
16787TIP3    H271777   5.138   1.570   3.008  2.4470  0.1073  1.2858
16788TIP3   OH271778   6.093   0.972   3.185  0.3952 -0.2951 -0.2642
16788TIP3    H171779   6.023   0.992   3.123  0.3514 -0.5512 -0.3019
16788TIP3    H271780   6.076   1.029   3.259  1.3322  1.1295 -1.0988
16789TIP3   OH271781   4.635   6.484  13.437 -0.5252 -0.1955 -0.0549
16789TIP3    H171782   4.578   6.420  13.395 -2.0264 -0.6847  2.4917
16789TIP3    H271783   4.706   6.431  13.475 -0.2066  0.0006 -0.3777
16790TIP3   OH271784   0.575   2.318  17.131  0.0167  0.0751 -0.9134
16790TIP3    H171785   0.589   2.259  17.205 -1.6268 -2.0501 -2.1714
16790TIP3    H271786   0.499   2.371  17.157  0.6082  0.6727 -0.3585
16791TIP3   OH271787   3.391   1.785  13.477  0.2478 -0.2158 -0.5551
16791TIP3    H171788   3.308   1.778  13.523  0.5962 -2.3538 -0.1540
16791TIP3    H271789   3.458   1.769  13.543  0.9059 -0.0407 -1.1563
16792TIP3   OH271790   0.182   2.467   6.110  0.3301 -0.4721 -0.2415
16792TIP3    H171791   0.192   2.439   6.019  0.2248  1.4440 -0.8776
16792TIP3    H271792   0.155   2.387   6.156  1.3701 -1.7176 -1.6801
16793TIP3   OH271793   5.746   3.052  16.688  0.5725 -0.2512 -0.4803
16793TIP3    H171794   5.727   3.053  16.782  2.0191  4.7219  0.0599
16793TIP3    H271795   5.811   2.982  16.677 -0.4818 -1.7393  1.9007
16794TIP3   OH271796   4.999   3.073  12.077 -0.3991 -0.0043  0.4083
16794TIP3    H171797   4.915   3.109  12.106 -0.8872 -0.2729 -0.6351
16794TIP3    H271798   4.991   3.066  11.982  0.8676  0.1119  0.2680
16795TIP3   OH271799   2.777   5.544   3.930  0.1737  0.2927 -0.2119
16795TIP3    H171800   2.739   5.475   3.985  1.3259  0.1368  0.4283
16795TIP3    H271801   2.857   5.570   3.977  0.6708  0.8386 -1.3345
16796TIP3   OH271802   2.724   1.180  16.403  0.0360 -0.2737  0.2428
16796TIP3    H171803   2.726   1.101  16.457 -2.6201 -1.1273 -0.7153
16796TIP3    H271804   2.633   1.211  16.410 -0.1855  0.1080 -2.9242
16797TIP3   OH271805   5.318   3.588  13.930 -0.2158  0.3590 -0.0535
16797TIP3    H171806   5.383   3.649  13.962  2.3167 -0.9774 -2.2108
16797TIP3    H271807   5.274   3.555  14.008  2.6376  0.3825  1.6940
16798TIP3   OH271808   0.948   3.357  16.973  0.1284 -0.3910 -0.6876
16798TIP3    H171809   0.935   3.369  17.067  1.2698  2.6723 -0.8028
16798TIP3    H271810   0.904   3.274  16.953 -2.0969 -0.0597  2.1373
16799TIP3   OH271811   4.519   1.502   2.824  0.2333 -0.4392  0.1848
16799TIP3    H171812   4.587   1.566   2.842  1.3016 -0.6157 -2.7913
16799TIP3    H271813   4.566   1.419   2.815 -0.9841 -1.5218  2.6629
16800TIP3   OH271814   5.659   1.304  11.351 -0.1727 -0.2618  0.6833
16800TIP3    H171815   5.724   1.270  11.413  1.1946 -0.1324 -0.6202
16800TIP3    H271816   5.696   1.284  11.265 -2.0432 -0.4741 -0.1053
16801TIP3   OH271817   5.697   4.836  14.727 -0.0578  0.0162 -0.4825
16801TIP3    H171818   5.764   4.843  14.659 -0.7415  1.1939 -1.0718
16801TIP3    H271819   5.635   4.771  14.693  0.0840 -0.0741 -0.5687
16802TIP3   OH271820   0.190   5.068   0.257  0.0243 -0.3092 -0.3454
16802TIP3    H171821   0.140   5.041   0.334  0.4335  1.7260  0.7115
16802TIP3    H271822   0.124   5.104   0.197  0.0647  2.1628  0.9530
16803TIP3   OH271823   5.594   2.740  12.450 -0.3990  0.4359 -0.1665
16803TIP3    H171824   5.521   2.707  12.396  0.2278 -1.0337 -0.1727
16803TIP3    H271825   5.569   2.829  12.473 -1.5686  0.4290 -1.3086
16804TIP3   OH271826   0.536   3.564   3.931  0.2222  0.4339 -0.0972
16804TIP3    H171827   0.566   3.542   3.842 -0.6134 -0.8825 -0.0825
16804TIP3    H271828   0.446   3.594   3.919 -0.2161 -0.6515  0.3936
16805TIP3   OH271829   6.014   3.370   0.001 -0.3906 -0.0564 -0.6796
16805TIP3    H171830   5.945   3.371  -0.065  0.5719  1.2090 -1.7049
16805TIP3    H271831   6.062   3.451  -0.013  0.6870 -0.4271  0.6848
16806TIP3   OH271832   0.002   1.588  14.465 -0.0840  0.2203 -0.2485
16806TIP3    H171833   0.046   1.577  14.381  0.8062 -0.5051  0.2966
16806TIP3    H271834  -0.019   1.498  14.492  0.3839  0.3837  0.6875
16807TIP3   OH271835   0.392   6.653  13.493 -0.2886  0.1604 -0.1048
16807TIP3    H171836   0.470   6.603  13.516 -1.2005 -1.2284  0.1234
16807TIP3    H271837   0.331   6.638  13.566 -0.9184  0.8705 -0.4690
16808TIP3   OH271838   2.124   4.492   3.918  0.3636 -0.5667 -0.2777
16808TIP3    H171839   2.061   4.425   3.946 -1.5138  0.3307 -2.1415
16808TIP3    H271840   2.107   4.567   3.975 -1.2195  0.1236 -1.5867
16809TIP3   OH271841   4.273   0.630   5.511 -0.5323 -0.2942 -0.0939
16809TIP3    H171842   4.265   0.569   5.584 -0.1007  1.4243  1.4561
16809TIP3    H271843   4.249   0.715   5.547 -1.6642  0.4074 -2.3329
16810TIP3   OH271844   6.698   5.606  15.670  0.1087 -0.0345  0.0861
16810TIP3    H171845   6.780   5.565  15.643 -1.2955 -1.6228 -2.0929
16810TIP3    H271846   6.648   5.534  15.709 -2.2725 -0.5788 -3.5134
16811TIP3   OH271847   4.624   1.755   5.735 -0.2379  0.0095 -0.8457
16811TIP3    H171848   4.653   1.846   5.731  1.7307 -0.5733 -1.2709
16811TIP3    H271849   4.576   1.748   5.818 -0.4624  1.4305 -0.8376
16812TIP3   OH271850   0.489   3.318  12.923 -0.0972 -0.3669 -0.1768
16812TIP3    H171851   0.442   3.374  12.985 -0.8502 -1.7616  0.5818
16812TIP3    H271852   0.465   3.351  12.837  1.0971  1.7275  0.2358
16813TIP3   OH271853   1.299   2.397  15.136 -0.2020  0.2606  0.2003
16813TIP3    H171854   1.212   2.435  15.128  0.6004  2.1420 -0.1900
16813TIP3    H271855   1.291   2.333  15.206 -1.5327  1.5726  1.3206
16814TIP3   OH271856   6.600   0.824   4.285  0.0363  0.7093  0.3654
16814TIP3    H171857   6.625   0.896   4.342 -1.7086  1.0093  0.8042
16814TIP3    H271858   6.508   0.806   4.308  0.4525 -1.7361  0.3814
16815TIP3   OH271859   4.073   1.979  13.250 -0.5145  0.2038  0.1160
16815TIP3    H171860   4.069   1.891  13.287  1.5474 -0.2063 -0.5075
16815TIP3    H271861   4.128   2.028  13.310 -0.5524  0.6955 -0.2419
16816TIP3   OH271862   2.462   3.761   6.141  0.1481 -0.1509  0.3017
16816TIP3    H171863   2.396   3.810   6.092 -0.7893 -0.4174  1.2688
16816TIP3    H271864   2.445   3.669   6.119 -0.5837 -0.3131  1.4495
16817TIP3   OH271865   2.484   0.667   6.186 -0.0789  0.9254  0.6245
16817TIP3    H171866   2.504   0.600   6.120 -0.5106  1.9067 -0.5242
16817TIP3    H271867   2.536   0.641   6.262  0.3304 -0.3028 -0.0450
16818TIP3   OH271868   5.526   2.953  16.199 -0.0177 -0.0592 -0.2155
16818TIP3    H171869   5.469   2.934  16.124  0.9688 -0.4688 -0.8817
16818TIP3    H271870   5.470   3.000  16.261 -0.7731  0.5493 -1.3324
16819TIP3   OH271871   0.224   5.320   2.651  0.5200  0.4351 -0.4616
16819TIP3    H171872   0.262   5.306   2.564  2.4729 -3.4265  0.7778
16819TIP3    H271873   0.295   5.297   2.712 -1.3685  1.0883  2.1803
16820TIP3   OH271874   3.313   3.744  14.204 -0.8502  0.3332  0.1804
16820TIP3    H171875   3.268   3.675  14.252 -0.9882  1.4523  1.7695
16820TIP3    H271876   3.402   3.746  14.241 -0.3906  0.0811 -0.8595
16821TIP3   OH271877   3.717   5.216  13.356  0.0329  0.5198  0.6793
16821TIP3    H171878   3.733   5.272  13.280  0.3185 -0.3818  0.0593
16821TIP3    H271879   3.665   5.270  13.415 -1.9924  0.5724 -1.0385
16822TIP3   OH271880   4.914   6.447  17.293  0.2153 -0.1719  0.3212
16822TIP3    H171881   4.840   6.492  17.335 -0.1666  0.3400 -0.8763
16822TIP3    H271882   4.927   6.493  17.211  0.7903 -1.3298 -0.2582
16823TIP3   OH271883   3.852   4.899   5.522 -0.3564  0.1634  0.1135
16823TIP3    H171884   3.779   4.928   5.468 -0.6255 -1.0123 -0.1898
16823TIP3    H271885   3.840   4.945   5.605 -1.8630 -0.5295  0.3231
16824TIP3   OH271886   3.790   2.703   3.580  0.3670 -0.3085  0.0331
16824TIP3    H171887   3.857   2.640   3.605  0.6541  0.1313  0.3828
16824TIP3    H271888   3.722   2.650   3.538  1.8292 -0.5486 -2.2677
16825TIP3   OH271889   1.844   6.127  14.795  0.0460  0.0446 -0.3546
16825TIP3    H171890   1.847   6.152  14.887  0.3661  0.6815 -0.5318
16825TIP3    H271891   1.934   6.132  14.765 -0.0340 -0.3122 -0.6655
16826TIP3   OH271892   5.620   5.634   2.937 -0.1860  0.0745  0.5305
16826TIP3    H171893   5.628   5.604   3.027  0.6329  0.6001  0.6443
16826TIP3    H271894   5.693   5.592   2.892 -1.0363 -0.8108 -0.0864
16827TIP3   OH271895   6.613   1.369   0.666  0.1247 -0.1964 -0.0562
16827TIP3    H171896   6.691   1.345   0.716  0.5858  1.6214  0.1843
16827TIP3    H271897   6.549   1.393   0.733 -0.4030 -0.9636 -0.2739
16828TIP3   OH271898   6.391   1.769   5.320 -0.0505 -0.0049 -0.1023
16828TIP3    H171899   6.487   1.773   5.322  0.0172 -1.0299  2.2536
16828TIP3    H271900   6.363   1.856   5.349  0.0587  0.9659 -2.6920
16829TIP3   OH271901   3.942   6.640   2.254  0.2177 -0.0390  0.1928
16829TIP3    H171902   3.897   6.709   2.303 -0.9431 -0.0539 -0.7987
16829TIP3    H271903   4.025   6.628   2.301  0.7694  2.4802  0.0142
16830TIP3   OH271904   6.263   3.011   5.497 -0.0999  0.1201  0.3495
16830TIP3    H171905   6.198   3.070   5.460  1.4963  0.0498 -2.9459
16830TIP3    H271906   6.225   2.923   5.486 -0.4301  0.2229  0.6585
16831TIP3   OH271907   0.539   2.505  16.132  0.4274 -0.1592  0.5435
16831TIP3    H171908   0.559   2.419  16.170  0.9654  0.0744  0.8061
16831TIP3    H271909   0.571   2.567  16.197  1.8321  0.2564 -0.4939
16832TIP3   OH271910   0.141   3.648  11.547  0.0703  0.2009 -0.8437
16832TIP3    H171911   0.097   3.588  11.607  0.4860 -0.0140 -0.7521
16832TIP3    H271912   0.084   3.725  11.544  0.7550  0.8404  0.9613
16833TIP3   OH271913   3.156   6.694   5.334 -0.0239 -0.0876  0.3237
16833TIP3    H171914   3.225   6.652   5.284  0.9620  1.1968  0.5638
16833TIP3    H271915   3.105   6.743   5.270  0.6171  0.7205  0.4151
16834TIP3   OH271916   2.552   4.703   0.301  0.5045 -0.4427  0.4431
16834TIP3    H171917   2.467   4.690   0.259 -0.4179 -0.4799  2.2430
16834TIP3    H271918   2.585   4.784   0.263  0.3333 -1.1477 -1.3006
16835TIP3   OH271919   2.336   6.539   6.225  0.0404 -0.7352 -0.3062
16835TIP3    H171920   2.320   6.445   6.234  2.5437 -1.0747  1.6665
16835TIP3    H271921   2.265   6.580   6.274 -1.4316 -1.4899 -1.6996
16836TIP3   OH271922   3.066   5.680   2.865 -0.0103 -0.1981  0.0181
16836TIP3    H171923   3.080   5.585   2.864 -0.7401 -0.3173 -0.2060
16836TIP3    H271924   2.973   5.690   2.844  0.0469  0.5673  0.0961
16837TIP3   OH271925   5.535   3.034   1.317 -0.5828 -0.1880  0.0993
16837TIP3    H171926   5.569   2.969   1.256 -0.2531 -1.6136  1.7413
16837TIP3    H271927   5.446   3.052   1.286 -0.1174 -0.1870 -1.3050
16838TIP3   OH271928   1.572   0.707  12.003 -0.1900  0.1461 -0.1667
16838TIP3    H171929   1.531   0.716  12.089 -0.4163 -0.6548 -0.1783
16838TIP3    H271930   1.504   0.735  11.941 -0.1952  0.2659 -0.1067
16839TIP3   OH271931   6.134   5.497  14.025 -0.0704  0.0165 -0.0005
16839TIP3    H171932   6.161   5.515  13.935  0.7917  1.3801  0.4906
16839TIP3    H271933   6.142   5.402  14.034  2.1653  0.0828 -0.6826
16840TIP3   OH271934   1.048   3.208   3.492 -0.3050 -0.2299  0.1574
16840TIP3    H171935   1.025   3.214   3.399  1.3215  0.7503 -0.2320
16840TIP3    H271936   1.047   3.114   3.511 -0.6662 -0.4455 -0.8543
16841TIP3   OH271937   4.079   3.139   1.621 -0.1042  0.5528 -0.1810
16841TIP3    H171938   3.992   3.158   1.586 -0.1365  1.8409  0.5383
16841TIP3    H271939   4.092   3.203   1.691  0.6855 -0.7980  0.9710
16842TIP3   OH271940   5.355   3.733  13.701  0.0125 -0.1959 -0.5230
16842TIP3    H171941   5.405   3.679  13.639  1.3845 -0.7082  0.9868
16842TIP3    H271942   5.338   3.675  13.775  1.8155  1.4601  1.3136
16843TIP3   OH271943   4.092   6.011  16.351  0.9252  0.0094  0.1365
16843TIP3    H171944   4.072   6.102  16.372  1.0027  0.2686 -0.8585
16843TIP3    H271945   4.007   5.967  16.351  0.5186  0.6930 -2.1520
16844TIP3   OH271946   0.577   0.752  16.814 -0.2232 -0.6400 -0.9116
16844TIP3    H171947   0.554   0.675  16.865  0.6415 -1.6060 -1.9442
16844TIP3    H271948   0.524   0.745  16.735 -0.8322  0.3399 -0.6124
16845TIP3   OH271949   0.493   6.240   1.612  0.1625  0.6101 -0.1469
16845TIP3    H171950   0.410   6.286   1.623  0.4211  0.5573  2.7784
16845TIP3    H271951   0.548   6.301   1.563 -0.9247  1.5097 -0.2950
16846TIP3   OH271952   5.295   0.517  17.033  0.2722  0.1629 -0.0477
16846TIP3    H171953   5.264   0.461  16.963 -0.9222  1.4503 -0.5960
16846TIP3    H271954   5.218   0.533  17.087 -0.0775  3.1819 -1.2506
16847TIP3   OH271955   0.212   4.124  15.428  0.4621  0.0607  0.5322
16847TIP3    H171956   0.208   4.126  15.332 -0.3786  0.3126  0.5636
16847TIP3    H271957   0.243   4.035  15.448 -1.8644 -0.9340  0.0626
16848TIP3   OH271958   3.873   3.345   5.005  0.0015 -0.5135 -0.0307
16848TIP3    H171959   3.888   3.402   4.930 -0.4395 -0.1896  0.1209
16848TIP3    H271960   3.946   3.363   5.065 -0.3074  0.1277  0.1554
16849TIP3   OH271961   1.605   5.266   4.911  0.2938  0.9320 -0.3244
16849TIP3    H171962   1.589   5.312   4.993  0.8528 -0.1004  0.3752
16849TIP3    H271963   1.658   5.328   4.859 -0.0452  1.5773  0.0850
16850TIP3   OH271964   1.750   3.121   0.750 -0.2421 -0.1384  0.0502
16850TIP3    H171965   1.711   3.137   0.836  0.1268 -0.3622  0.2609
16850TIP3    H271966   1.823   3.183   0.746  0.5967 -1.0754  0.4701
16851TIP3   OH271967   1.953   3.960  15.327 -0.3528 -0.3283  0.4730
16851TIP3    H171968   1.895   3.935  15.255 -0.1307  1.8197 -0.5479
16851TIP3    H271969   2.041   3.956  15.290 -0.1560 -0.0480  0.9011
16852TIP3   OH271970   2.078   1.550  15.575 -0.2569 -0.4150  0.2726
16852TIP3    H171971   1.994   1.510  15.600  0.3128 -3.3455 -1.8709
16852TIP3    H271972   2.140   1.519  15.641 -0.0891 -2.1033 -0.6164
16853TIP3   OH271973   3.127   5.701   2.464  0.3576 -0.0618 -0.3772
16853TIP3    H171974   3.126   5.752   2.383  1.0570 -1.1464 -1.0911
16853TIP3    H271975   3.083   5.620   2.442  1.3481 -0.7419  0.0598
16854TIP3   OH271976   6.460   1.687  14.292 -0.4057 -0.2202  0.3922
16854TIP3    H171977   6.468   1.597  14.262 -2.0787  0.5633 -2.8648
16854TIP3    H271978   6.411   1.680  14.374 -0.1454 -2.2859  0.4215
16855TIP3   OH271979   2.621   2.229   4.898  1.2234 -0.4102  0.0636
16855TIP3    H171980   2.691   2.263   4.843 -0.1077  2.8443  0.1262
16855TIP3    H271981   2.587   2.306   4.943 -2.5463 -1.6994 -0.1881
16856TIP3   OH271982   5.317   3.987   3.389 -0.5195  0.5688  0.0881
16856TIP3    H171983   5.260   4.061   3.370 -0.2209  0.2322 -2.5380
16856TIP3    H271984   5.316   3.935   3.308 -1.1266 -2.6085  1.9411
16857TIP3   OH271985   3.419   4.342   5.298 -0.2225  0.0247 -0.1434
16857TIP3    H171986   3.489   4.315   5.238  0.6511 -2.1007  1.7097
16857TIP3    H271987   3.375   4.260   5.322  0.7999  0.4059  3.6892
16858TIP3   OH271988   3.426   2.217   5.124 -0.0365 -0.6998 -0.6427
16858TIP3    H171989   3.360   2.155   5.154 -1.1627  1.7336  2.6030
16858TIP3    H271990   3.507   2.189   5.167 -0.3594 -0.4444  0.1603
16859TIP3   OH271991   6.299   3.496  10.825  0.1702  0.0682 -0.2655
16859TIP3    H171992   6.362   3.468  10.758  0.4355  1.4963 -0.6573
16859TIP3    H271993   6.224   3.439  10.813  1.4455 -1.8303  0.3570
16860TIP3   OH271994   4.798   3.450   0.137 -0.5093  0.0265 -0.8073
16860TIP3    H171995   4.703   3.444   0.135 -0.5318  0.3489 -0.7771
16860TIP3    H271996   4.821   3.495   0.056 -0.4385  0.6499 -0.4441
16861TIP3   OH271997   4.999   0.111   3.272  0.6857 -0.7367 -0.1864
16861TIP3    H171998   4.906   0.103   3.291  0.6863 -0.3976 -0.0534
16861TIP3    H271999   5.029   0.186   3.323  0.7236  0.0581 -1.3439
16862TIP3   OH272000   3.453   2.328   1.495  0.2864 -0.1029  0.3118
16862TIP3    H172001   3.488   2.380   1.423  0.2591 -1.3264 -0.6089
16862TIP3    H272002   3.475   2.378   1.574  0.7557  1.0065 -0.5023
16863TIP3   OH272003   5.605   1.577  13.554  0.3601  0.1608 -0.2708
16863TIP3    H172004   5.557   1.598  13.634  1.1772  0.5345  0.1253
16863TIP3    H272005   5.670   1.513  13.581 -0.1640 -0.6684 -0.8928
16864TIP3   OH272006   3.212   2.086   4.751 -0.4460  0.1772 -0.0201
16864TIP3    H172007   3.132   2.066   4.702 -1.3714 -0.1815  1.5864
16864TIP3    H272008   3.181   2.131   4.830  1.0589  1.3691 -0.0662
16865TIP3   OH272009   6.313   2.022   3.833 -0.1964 -0.1572 -0.9404
16865TIP3    H172010   6.357   2.103   3.806  1.7794 -0.6484  0.5533
16865TIP3    H272011   6.254   2.048   3.903 -0.8082  0.2064 -1.5775
16866TIP3   OH272012   2.455   4.547  11.826  0.3761  0.3917 -0.2469
16866TIP3    H172013   2.406   4.496  11.760  2.4042 -1.3231 -0.5295
16866TIP3    H272014   2.474   4.484  11.895  2.0949  1.0029 -0.1226
16867TIP3   OH272015   3.253   4.717   4.444  0.4864  0.5575  0.1868
16867TIP3    H172016   3.302   4.795   4.469  2.4480 -0.6894  0.4600
16867TIP3    H272017   3.261   4.658   4.519  0.0890 -0.3662 -0.4720
16868TIP3   OH272018   6.098   4.833  13.900 -0.1319 -0.0338  0.1238
16868TIP3    H172019   6.172   4.825  13.960  0.9979 -3.2967 -1.4840
16868TIP3    H272020   6.138   4.838  13.813 -1.7262 -1.9113 -0.7960
16869TIP3   OH272021   4.336   1.854  12.783  0.5240 -0.2041 -0.2711
16869TIP3    H172022   4.334   1.896  12.869  1.6973 -1.0535  0.2039
16869TIP3    H272023   4.359   1.763  12.802 -0.6177 -0.7527 -1.3791
16870TIP3   OH272024   3.013   5.579   6.689  0.2179  0.4635 -0.2631
16870TIP3    H172025   3.103   5.596   6.719  0.6160  0.5410 -1.4462
16870TIP3    H272026   2.999   5.486   6.709  1.3937 -0.1545 -2.0319
16871TIP3   OH272027   3.640   2.213   2.384  0.4320  0.0395 -0.4815
16871TIP3    H172028   3.616   2.132   2.429  0.5116 -0.9039 -2.0711
16871TIP3    H272029   3.563   2.235   2.331  0.2355  1.2770  0.2833
16872TIP3   OH272030   3.209   2.772  14.848  0.2991 -0.1654  0.0084
16872TIP3    H172031   3.234   2.825  14.924 -0.1240  0.6537 -0.4030
16872TIP3    H272032   3.268   2.801  14.778  0.5156 -0.7292 -0.0447
16873TIP3   OH272033   3.864   1.212  12.065  0.1098 -0.4495  0.5191
16873TIP3    H172034   3.781   1.254  12.044  1.1568  1.1806 -0.5218
16873TIP3    H272035   3.926   1.245  12.000  0.9798 -3.8709 -0.6290
16874TIP3   OH272036   5.691   5.888   4.588  0.2604 -0.3424  0.5231
16874TIP3    H172037   5.639   5.814   4.557  0.9949 -0.8504  0.4684
16874TIP3    H272038   5.781   5.854   4.593  0.5425  0.4244  0.8991
16875TIP3   OH272039   2.968   2.374  12.820  0.7060  0.2858 -0.3984
16875TIP3    H172040   2.963   2.357  12.914  2.7889  3.0869  0.3358
16875TIP3    H272041   3.053   2.415  12.807  0.4510  0.0437 -3.5234
16876TIP3   OH272042   6.479   6.267   0.786  0.4679  0.9779 -0.1648
16876TIP3    H172043   6.495   6.303   0.699 -2.3846  3.3631  0.1529
16876TIP3    H272044   6.516   6.331   0.846 -1.6174  1.7505  0.3733
16877TIP3   OH272045   1.361   4.168  10.768 -0.0804 -0.6695 -0.3276
16877TIP3    H172046   1.407   4.252  10.771  1.2330 -1.3887  0.2642
16877TIP3    H272047   1.270   4.192  10.750  0.8692  0.6579 -4.3742
16878TIP3   OH272048   6.106   4.173   1.871 -0.7672 -0.3675 -0.0451
16878TIP3    H172049   6.139   4.213   1.952 -1.6375  0.5628 -0.1178
16878TIP3    H272050   6.032   4.229   1.846 -1.0784 -1.1756 -0.9929
16879TIP3   OH272051   0.586   6.278   4.601  0.0023 -0.4652  0.2332
16879TIP3    H172052   0.661   6.298   4.544 -0.0194 -1.7832 -0.3002
16879TIP3    H272053   0.532   6.357   4.599  1.2379  0.4112  0.4165
16880TIP3   OH272054   1.001   2.225   2.654  0.0553 -0.0980  0.2591
16880TIP3    H172055   1.040   2.194   2.572 -0.0863  1.7157 -0.5373
16880TIP3    H272056   0.948   2.151   2.685 -0.2029 -0.6861 -1.4797
16881TIP3   OH272057   5.717   6.419  16.701 -0.5229 -0.2582  0.3313
16881TIP3    H172058   5.788   6.390  16.759 -1.3004 -0.8164  1.0198
16881TIP3    H272059   5.697   6.342  16.648 -1.5386 -0.5318  1.0892
16882TIP3   OH272060   1.324   0.764  16.006 -0.5324 -0.5305 -0.3521
16882TIP3    H172061   1.274   0.746  15.926 -1.3533  0.3890 -0.0472
16882TIP3    H272062   1.359   0.852  15.993 -0.7583 -0.3379  0.3580
16883TIP3   OH272063   0.797   3.746   4.329 -0.2011 -0.0464 -0.6636
16883TIP3    H172064   0.794   3.789   4.415 -0.3568  2.1433 -1.7090
16883TIP3    H272065   0.844   3.664   4.345  0.9067  0.8981  1.2760
16884TIP3   OH272066   3.984   3.034   0.373 -0.4057  0.0650  0.1803
16884TIP3    H172067   3.999   2.954   0.423 -0.6042  0.4492  0.8666
16884TIP3    H272068   4.001   3.009   0.282  0.2850 -0.5584  0.4745
16885TIP3   OH272069   2.343   0.521  11.299  0.4563  0.0829  0.4817
16885TIP3    H172070   2.327   0.610  11.331 -0.0975  0.4116 -0.6392
16885TIP3    H272071   2.414   0.531  11.236  0.2424 -0.2297  0.1885
16886TIP3   OH272072   5.901   0.728  15.388 -0.0712  0.7901 -0.4807
16886TIP3    H172073   5.873   0.815  15.417 -0.3323  0.6761 -0.3818
16886TIP3    H272074   5.880   0.671  15.462  3.0367  1.1174  0.8167
16887TIP3   OH272075   0.234   3.843   2.520  0.3643 -0.4347 -0.6431
16887TIP3    H172076   0.260   3.818   2.431  0.1416 -1.0175 -0.5476
16887TIP3    H272077   0.154   3.894   2.509  1.4132  1.2454 -0.9296
16888TIP3   OH272078   5.444   0.340  11.792 -0.6924 -0.1206 -0.0545
16888TIP3    H172079   5.479   0.315  11.707 -3.5414  0.4097 -1.5150
16888TIP3    H272080   5.476   0.273  11.852  2.6613  0.3183 -1.1343
16889TIP3   OH272081   3.704   4.946  17.026 -0.6563 -0.2852  0.0337
16889TIP3    H172082   3.766   4.959  17.098 -0.7664  1.5212 -0.1510
16889TIP3    H272083   3.618   4.965  17.065 -0.6765  1.1236 -0.6403
16890TIP3   OH272084   4.560   0.793   1.252 -0.2214  0.1687  0.1629
16890TIP3    H172085   4.472   0.823   1.274 -0.4453 -0.2472 -0.1472
16890TIP3    H272086   4.580   0.833   1.167 -0.6507 -0.8017 -0.4062
16891TIP3   OH272087   6.607   4.405  17.306 -0.3943  0.1271 -0.4374
16891TIP3    H172088   6.545   4.349  17.257  0.5159 -0.9746 -0.3717
16891TIP3    H272089   6.575   4.402  17.396 -1.4384  1.2679 -0.7467
16892TIP3   OH272090   4.890   4.406   0.534  0.0550  0.1507 -0.2019
16892TIP3    H172091   4.897   4.365   0.620 -0.5131 -0.9916 -0.6797
16892TIP3    H272092   4.951   4.479   0.537  1.7158 -1.1944  0.4420
16893TIP3   OH272093   1.299   4.123   3.392 -0.2709 -0.6418  0.2075
16893TIP3    H172094   1.345   4.119   3.308 -1.3870 -1.5717 -0.3807
16893TIP3    H272095   1.325   4.043   3.438  2.2306  0.9361  1.8401
16894TIP3   OH272096   2.142   1.132   5.276  0.2464 -0.0302  0.5181
16894TIP3    H172097   2.185   1.070   5.216  0.5271 -0.0406  0.7249
16894TIP3    H272098   2.202   1.137   5.351  0.0670  0.2478  0.6425
16895TIP3   OH272099   4.806   5.002   2.486  0.3751 -0.2141  0.2370
16895TIP3    H172100   4.841   5.077   2.438 -0.0328 -0.3122 -0.2259
16895TIP3    H272101   4.770   4.945   2.418 -0.1951 -0.3693  0.6597
16896TIP3   OH272102   1.024   1.256  14.694 -0.5647 -0.1727 -0.1432
16896TIP3    H172103   0.974   1.175  14.688  2.3372 -2.1761  0.7048
16896TIP3    H272104   1.038   1.269  14.788  0.7606  0.0880 -0.3498
16897TIP3   OH272105   2.195   4.864  13.785 -0.1988  0.4569  0.1922
16897TIP3    H172106   2.210   4.814  13.865  0.1985  1.5267  0.8065
16897TIP3    H272107   2.122   4.922  13.805 -0.4179  0.3962 -0.3920
16898TIP3   OH272108   3.405   6.378   3.961  0.2209  0.4610  0.0103
16898TIP3    H172109   3.401   6.317   3.887 -1.4191 -0.7780  1.0553
16898TIP3    H272110   3.340   6.345   4.023  0.2379  2.5263  1.2150
16899TIP3   OH272111   4.000   5.556  13.248 -0.0367  0.2640  0.3686
16899TIP3    H172112   4.088   5.518  13.258  0.2032 -0.0584 -2.2333
16899TIP3    H272113   3.953   5.530  13.327  1.7119 -0.9801  1.0609
16900TIP3   OH272114   2.965   2.479  13.804 -0.4294 -0.1345 -0.5227
16900TIP3    H172115   3.007   2.465  13.889  0.8505 -2.6843 -1.4662
16900TIP3    H272116   2.885   2.426  13.808 -0.0055 -0.8396 -1.1140
16901TIP3   OH272117   0.543   0.980  11.735  0.0139 -0.1369  0.1872
16901TIP3    H172118   0.472   0.966  11.796  1.1923 -1.4811  1.3268
16901TIP3    H272119   0.511   0.944  11.652 -1.4573  1.3829  0.0350
16902TIP3   OH272120   3.930   4.172   1.438  0.3109  0.1088 -0.5327
16902TIP3    H172121   3.961   4.225   1.364  1.6554 -0.7658 -0.6293
16902TIP3    H272122   4.002   4.174   1.501  0.1484 -1.0747 -0.2743
16903TIP3   OH272123   0.132   3.518   5.128  0.0701  0.2754  0.0642
16903TIP3    H172124   0.148   3.424   5.127  0.0140  0.2498 -1.6106
16903TIP3    H272125   0.218   3.558   5.140  0.1164  0.0254  0.5953
16904TIP3   OH272126   5.307   6.156  12.386  0.0805  0.4864  0.3008
16904TIP3    H172127   5.339   6.074  12.348 -1.3016  0.0144  0.1094
16904TIP3    H272128   5.216   6.138  12.410 -0.5816  2.2567 -0.6876
16905TIP3   OH272129   6.218   0.224  14.344  0.0323  0.0474 -0.4307
16905TIP3    H172130   6.278   0.289  14.381  1.6374 -0.2398 -2.3536
16905TIP3    H272131   6.274   0.149  14.323 -1.6355 -1.7342  1.0151
16906TIP3   OH272132   5.065   6.511   3.169 -0.0153 -0.4428  0.0882
16906TIP3    H172133   5.021   6.558   3.240 -2.5235 -0.7481 -1.1467
16906TIP3    H272134   5.131   6.572   3.138 -0.2846  0.5301  1.3350
16907TIP3   OH272135   2.329   3.961   5.906 -0.8859  0.0706  0.7177
16907TIP3    H172136   2.320   3.996   5.994 -0.5997 -0.0277  0.7852
16907TIP3    H272137   2.410   3.999   5.873 -1.4413  0.8186  0.1696
16908TIP3   OH272138   4.528   2.704  11.064 -0.3274  0.0988  0.2690
16908TIP3    H172139   4.540   2.616  11.028  0.6949  0.1863  0.3886
16908TIP3    H272140   4.612   2.748  11.051 -0.3633  0.5804  1.5080
16909TIP3   OH272141   2.827   4.607   3.720 -0.6964  0.1712 -0.8399
16909TIP3    H172142   2.774   4.669   3.670 -2.0986 -0.9848 -0.8642
16909TIP3    H272143   2.796   4.521   3.691 -1.0166 -0.5345  1.4597
16910TIP3   OH272144   2.084   6.620  15.401 -0.1903 -0.2191  0.1371
16910TIP3    H172145   2.174   6.646  15.424 -0.1975 -0.2933  0.2463
16910TIP3    H272146   2.091   6.528  15.378  0.3625  0.4741 -2.9479
16911TIP3   OH272147   4.546   4.263  13.134  0.6630 -0.3595  0.2517
16911TIP3    H172148   4.549   4.318  13.212  0.0454 -0.0874  0.0882
16911TIP3    H272149   4.634   4.270  13.096  0.7443  0.0976  0.5191
16912TIP3   OH272150   2.719   4.974  14.615 -0.1245  0.1994  0.1224
16912TIP3    H172151   2.668   5.012  14.543 -0.3036 -0.3190 -0.0262
16912TIP3    H272152   2.798   4.939  14.573 -0.8165 -1.2472 -0.0252
16913TIP3   OH272153   0.423   4.583  14.645  0.3196 -0.2195  0.6425
16913TIP3    H172154   0.342   4.566  14.598 -0.5642  2.0514  1.2076
16913TIP3    H272155   0.467   4.498  14.650 -1.2863 -1.2039 -1.0098
16914TIP3   OH272156   3.389   2.584  15.032 -0.3755  0.3189  0.1232
16914TIP3    H172157   3.345   2.667  15.043  1.2679  1.2084  0.3625
16914TIP3    H272158   3.420   2.561  15.120 -0.5035 -0.3730 -0.0025
16915TIP3   OH272159   5.535   0.913   6.247  0.1970 -0.0501  0.8203
16915TIP3    H172160   5.526   0.833   6.299 -0.3789 -0.7337 -0.3024
16915TIP3    H272161   5.593   0.889   6.175 -0.5213  0.3326  0.0917
16916TIP3   OH272162   4.891   5.790  14.407 -0.3510  0.0993 -0.1050
16916TIP3    H172163   4.830   5.721  14.382 -1.3234  0.9094 -0.0079
16916TIP3    H272164   4.857   5.824  14.490  1.8288 -1.3473  1.5167
16917TIP3   OH272165   6.329   4.357   1.702  0.5141  0.2065 -0.0314
16917TIP3    H172166   6.319   4.445   1.664  0.5573  0.6312  0.9081
16917TIP3    H272167   6.347   4.373   1.795 -1.6940 -0.8260  0.6404
16918TIP3   OH272168   5.431   5.856   3.589 -0.0901  0.6269 -0.6100
16918TIP3    H172169   5.474   5.840   3.505  2.4501  0.7349  0.5710
16918TIP3    H272170   5.496   5.907   3.639 -1.6310  0.7914  1.3265
16919TIP3   OH272171   3.707   4.386  15.109 -0.6147 -0.1728  0.0535
16919TIP3    H172172   3.780   4.439  15.140 -1.5853  0.0430  2.1359
16919TIP3    H272173   3.702   4.403  15.015  3.0651 -1.5242 -0.5413
16920TIP3   OH272174   1.085   6.228  11.761 -0.6410 -0.1799  0.0006
16920TIP3    H172175   1.089   6.157  11.825 -0.3433 -1.6567 -1.5777
16920TIP3    H272176   1.013   6.203  11.703 -0.2299  0.5588 -0.8458
16921TIP3   OH272177   1.182   2.912   0.697  0.0918  0.4078 -0.0487
16921TIP3    H172178   1.217   2.987   0.746 -0.3778 -1.3406  3.2583
16921TIP3    H272179   1.112   2.878   0.752 -0.1772 -2.0555 -1.7464
16922TIP3   OH272180   5.724   4.872   0.025  0.4458 -0.6729  0.3303
16922TIP3    H172181   5.720   4.791  -0.026  1.0718  0.0350 -0.9204
16922TIP3    H272182   5.812   4.873   0.063  1.5485  0.6921 -2.0063
16923TIP3   OH272183   3.887   1.461  15.797 -0.4195  0.2016 -0.3318
16923TIP3    H172184   3.892   1.475  15.702 -1.3667 -0.6233 -0.5132
16923TIP3    H272185   3.871   1.367  15.807 -0.3299  0.2767  0.6574
16924TIP3   OH272186   0.451   3.391  12.299 -0.3397  0.1558 -0.3005
16924TIP3    H172187   0.476   3.455  12.233  0.5195  0.0313 -0.1126
16924TIP3    H272188   0.500   3.417  12.378 -1.5820  0.4869  0.3859
16925TIP3   OH272189   1.304   3.214  15.881  0.0538 -0.3889 -0.3880
16925TIP3    H172190   1.225   3.225  15.827  1.7167 -0.4474 -2.9876
16925TIP3    H272191   1.314   3.119  15.891 -1.2390 -0.3769  1.7227
16926TIP3   OH272192   5.473   2.900   2.624 -0.2587 -0.0405  0.1809
16926TIP3    H172193   5.534   2.925   2.556 -1.7662  1.5275 -0.6666
16926TIP3    H272194   5.512   2.822   2.664  1.5003  0.0204 -1.3060
16927TIP3   OH272195   4.325   2.657   4.921  0.0825  0.5169  0.2610
16927TIP3    H172196   4.362   2.677   5.007  1.4460  1.8792 -0.5871
16927TIP3    H272197   4.344   2.564   4.908  0.9119  0.5712  0.9563
16928TIP3   OH272198   2.117   4.869   1.663 -0.4956 -0.7196  0.1742
16928TIP3    H172199   2.136   4.778   1.644 -0.1197 -0.2613 -1.8240
16928TIP3    H272200   2.198   4.903   1.701 -0.1304 -0.8409 -0.4960
16929TIP3   OH272201   2.747   2.705  12.697  0.0915  0.0684 -0.1478
16929TIP3    H172202   2.669   2.687  12.644  1.1780  1.6937 -2.4783
16929TIP3    H272203   2.793   2.773  12.648  1.4793  1.3110  2.7070
16930TIP3   OH272204   1.216   0.833  13.370  0.6118  0.4531 -0.4452
16930TIP3    H172205   1.258   0.917  13.385  0.3868  0.3521  0.8181
16930TIP3    H272206   1.128   0.843  13.407  0.5321 -0.2948 -0.4213
16931TIP3   OH272207   3.769   5.327  16.163 -0.2054  0.1531 -0.2391
16931TIP3    H172208   3.844   5.269  16.152  0.0837  0.4781  0.0012
16931TIP3    H272209   3.769   5.383  16.086  0.5942  1.0429  0.3808
16932TIP3   OH272210   6.615   1.330  14.169 -0.0623 -0.4188  0.2320
16932TIP3    H172211   6.561   1.388  14.222 -1.7141 -3.2109  1.8396
16932TIP3    H272212   6.698   1.376  14.159 -1.4045  2.3416  1.0102
16933TIP3   OH272213   0.826   3.346  15.165  0.7007 -0.0722 -0.4773
16933TIP3    H172214   0.755   3.283  15.170 -1.3455  2.1820  1.3130
16933TIP3    H272215   0.783   3.432  15.165  3.3808  1.3935 -0.8694
16934TIP3   OH272216   4.261   3.959   4.583 -0.0076  0.3820 -1.0362
16934TIP3    H172217   4.232   4.042   4.621  0.6700  0.4021 -0.5496
16934TIP3    H272218   4.257   3.974   4.489 -2.3281  0.1253 -1.0547
16935TIP3   OH272219   6.502   1.811  16.839  0.0638 -0.5604 -0.3269
16935TIP3    H172220   6.477   1.753  16.910 -1.0864 -0.6128 -0.7492
16935TIP3    H272221   6.596   1.824  16.850 -0.0434 -0.7922  1.0258
16936TIP3   OH272222   4.373   6.359  14.823 -0.4628 -0.0279 -0.0033
16936TIP3    H172223   4.377   6.339  14.917 -0.8171 -0.2744 -0.0376
16936TIP3    H272224   4.295   6.413  14.813 -0.8189 -0.5779 -0.2530
16937TIP3   OH272225   3.039   4.745   4.690 -0.6241 -0.3599  0.2801
16937TIP3    H172226   3.110   4.804   4.713 -0.1893 -0.4026 -0.9116
16937TIP3    H272227   3.080   4.678   4.635 -1.8589  0.6201 -1.9850
16938TIP3   OH272228   2.743   3.536  12.765 -0.2226 -0.4543 -0.5063
16938TIP3    H172229   2.822   3.488  12.790  0.3224  0.1941 -0.9588
16938TIP3    H272230   2.688   3.470  12.722  0.6404 -0.6254 -1.3856
16939TIP3   OH272231   2.926   2.217   0.257 -0.1527  0.1150  0.5706
16939TIP3    H172232   3.000   2.277   0.249  0.1439 -0.3507 -0.2309
16939TIP3    H272233   2.855   2.271   0.292 -0.2153  1.2230 -1.1442
16940TIP3   OH272234   1.229   5.337   6.153 -0.1181 -0.9869  0.2071
16940TIP3    H172235   1.293   5.409   6.146  0.7272 -1.7340  0.1112
16940TIP3    H272236   1.228   5.298   6.065 -1.2654 -0.5279  0.0011
16941TIP3   OH272237   3.814   2.219  16.117  0.6172  0.2140  0.0950
16941TIP3    H172238   3.796   2.253  16.205 -1.2401  1.1078 -0.5706
16941TIP3    H272239   3.763   2.277  16.059  1.7594 -0.3891 -1.5594
16942TIP3   OH272240   1.045   6.300  14.297 -0.7116  0.8546  0.2247
16942TIP3    H172241   0.960   6.272  14.331 -0.5336 -0.7973 -0.5883
16942TIP3    H272242   1.079   6.223  14.252  1.6920  1.1408  1.4161
16943TIP3   OH272243   0.322   3.731  12.904 -0.2292 -0.5048  1.0914
16943TIP3    H172244   0.274   3.746  12.986  0.1029  1.1473  1.0241
16943TIP3    H272245   0.408   3.770  12.920 -0.4080  0.5130 -0.2730
16944TIP3   OH272246   3.297   6.047   5.327  0.2371 -0.6942  0.2369
16944TIP3    H172247   3.290   5.953   5.311  0.9072 -0.7051 -0.0028
16944TIP3    H272248   3.311   6.085   5.240  0.4652 -0.4188  0.3938
16945TIP3   OH272249   4.841   3.117   4.837  0.3421  0.1615  0.3882
16945TIP3    H172250   4.928   3.079   4.837  0.3527  0.1830  0.6860
16945TIP3    H272251   4.782   3.042   4.852  0.4576  0.4389  2.6660
16946TIP3   OH272252   0.651   2.561   1.505 -0.2151 -0.0793 -0.1386
16946TIP3    H172253   0.732   2.569   1.556 -1.0551  0.1338  1.2274
16946TIP3    H272254   0.648   2.641   1.453 -0.2749  0.6471  0.9414
16947TIP3   OH272255   5.949   1.843  15.370 -0.0281 -0.0932  0.2084
16947TIP3    H172256   5.869   1.797  15.397 -0.1947 -0.7158 -1.2619
16947TIP3    H272257   6.009   1.774  15.345 -0.5902  0.4179 -2.9004
16948TIP3   OH272258   2.981   4.492   0.195  0.0077  0.1338  0.4063
16948TIP3    H172259   2.955   4.535   0.276 -0.4420  0.8154 -0.0965
16948TIP3    H272260   3.071   4.464   0.211  0.3111  1.2585  0.7504
16949TIP3   OH272261   6.292   1.782   6.310 -0.2143 -0.3599 -0.0256
16949TIP3    H172262   6.240   1.796   6.389 -0.3085  0.2871 -0.1974
16949TIP3    H272263   6.328   1.694   6.320 -1.4280 -0.8630  0.0549
16950TIP3   OH272264   2.247   1.519   2.714  0.3089 -0.8928 -0.1507
16950TIP3    H172265   2.318   1.573   2.680 -0.5784  1.3367  1.2665
16950TIP3    H272266   2.286   1.433   2.728  2.4699  0.0135 -0.2453
16951TIP3   OH272267   1.620   2.784  12.977  0.1619 -0.3058 -0.1827
16951TIP3    H172268   1.599   2.703  13.024  0.1766 -1.0219 -1.3902
16951TIP3    H272269   1.534   2.821  12.955  0.0972  1.1018  2.1240
16952TIP3   OH272270   1.496   1.033  11.236 -0.3678 -0.0590  0.4246
16952TIP3    H172271   1.467   0.942  11.249  1.6405 -0.5905  1.7198
16952TIP3    H272272   1.506   1.067  11.325 -1.1368  1.4873 -0.0450
16953TIP3   OH272273   2.947   1.794  15.860  0.3805  0.0403 -0.0067
16953TIP3    H172274   2.909   1.882  15.858 -2.6972 -1.1790 -0.9174
16953TIP3    H272275   2.947   1.766  15.768  0.6885 -1.1705  0.3420
16954TIP3   OH272276   2.703   6.665  15.224 -0.0250 -0.1826  0.2019
16954TIP3    H172277   2.797   6.671  15.241  0.0810  0.4565 -0.5503
16954TIP3    H272278   2.685   6.734  15.160 -0.5314 -1.9902 -1.6978
16955TIP3   OH272279   6.622   1.162  16.322  0.6271 -0.1484  0.0043
16955TIP3    H172280   6.636   1.253  16.346  0.4991  0.2481 -1.3259
16955TIP3    H272281   6.710   1.125  16.317  0.6232 -0.5340  2.0168
16956TIP3   OH272282   2.060   4.930   2.608  0.1031 -0.2246 -0.7207
16956TIP3    H172283   2.101   4.857   2.562 -3.2036 -2.7549 -0.0465
16956TIP3    H272284   1.974   4.940   2.565 -0.4817  1.7365  0.7283
16957TIP3   OH272285   4.103   5.184   1.378  0.1387  0.1287  0.0571
16957TIP3    H172286   4.057   5.250   1.429  1.5978  1.0650  0.2182
16957TIP3    H272287   4.164   5.233   1.324  0.7768 -1.0462 -0.3341
16958TIP3   OH272288   1.760   3.084  10.655 -0.0030  0.4928 -0.4012
16958TIP3    H172289   1.793   3.158  10.603  2.5300  0.0541  0.4291
16958TIP3    H272290   1.802   3.007  10.616 -1.3885 -0.3570 -0.2855
16959TIP3   OH272291   2.821   2.437   0.856  0.2173 -0.4591  0.0495
16959TIP3    H172292   2.726   2.424   0.850  0.1968 -0.7058  0.7690
16959TIP3    H272293   2.853   2.361   0.905  0.6101  0.2626  0.9529
16960TIP3   OH272294   4.194   3.250  16.730  0.1817  0.2343  0.0737
16960TIP3    H172295   4.279   3.261  16.772  0.6789 -1.8413 -0.2745
16960TIP3    H272296   4.215   3.214  16.643 -1.0212  0.0737 -0.1684
16961TIP3   OH272297   4.137   2.410   3.217  0.2638  0.1446 -0.1046
16961TIP3    H172298   4.171   2.490   3.257 -0.4491  0.6825 -0.5603
16961TIP3    H272299   4.045   2.408   3.243  0.9486 -2.2424  2.6855
16962TIP3   OH272300   0.843   4.646   5.343  0.0944  0.5332  0.3978
16962TIP3    H172301   0.793   4.640   5.261 -0.2224 -0.0517  0.6263
16962TIP3    H272302   0.778   4.630   5.412  0.5404  0.0558  0.7131
16963TIP3   OH272303   0.045   1.674  11.624  0.9197  0.1821 -0.0372
16963TIP3    H172304   0.033   1.652  11.716 -0.9731  1.6813  0.1451
16963TIP3    H272305   0.067   1.767  11.624 -3.0483  1.3289 -1.1360
16964TIP3   OH272306   0.907   4.296  12.405  0.4768  0.0756  0.1295
16964TIP3    H172307   0.884   4.288  12.497  0.5789 -1.6727  0.0328
16964TIP3    H272308   0.976   4.231  12.391  0.2749  0.1232 -1.2396
16965TIP3   OH272309   6.630   6.116   6.395 -0.8265  0.0643 -0.2535
16965TIP3    H172310   6.711   6.073   6.420 -0.2927  0.3130 -1.4751
16965TIP3    H272311   6.561   6.055   6.421 -0.2111 -0.4853  0.1049
16966TIP3   OH272312   4.176   5.282  10.539  0.0355  0.0230  0.0790
16966TIP3    H172313   4.097   5.291  10.592  0.8633  3.5388  1.0165
16966TIP3    H272314   4.238   5.237  10.597 -0.2430  0.3362  0.6298
16967TIP3   OH272315   5.673   2.651   2.952  0.0213  0.1940 -0.0697
16967TIP3    H172316   5.644   2.587   3.016 -1.0328  0.4438 -0.2865
16967TIP3    H272317   5.622   2.632   2.874  0.5834  0.5256 -0.5279
16968TIP3   OH272318   1.369   4.057  16.955 -0.0554  0.1158  0.5879
16968TIP3    H172319   1.354   3.964  16.970 -3.0391  0.7576  2.2688
16968TIP3    H272320   1.371   4.066  16.859  1.4883 -1.7587  0.3845
16969TIP3   OH272321   0.597   6.350  10.805 -0.9025 -0.1102 -0.2391
16969TIP3    H172322   0.524   6.352  10.868 -0.6744 -2.9220  0.2419
16969TIP3    H272323   0.676   6.349  10.860 -0.5908  0.2529 -0.6732
16970TIP3   OH272324   0.688   3.262  12.062  0.0954  0.0308 -0.0366
16970TIP3    H172325   0.597   3.288  12.049  0.5602  1.0841 -1.3819
16970TIP3    H272326   0.733   3.342  12.088  0.7881 -0.3073 -0.1611
16971TIP3   OH272327   2.460   2.762   3.067  0.1697 -0.7938  0.2072
16971TIP3    H172328   2.402   2.697   3.027 -0.6133 -0.9069  1.4851
16971TIP3    H272329   2.441   2.843   3.019  1.0144 -1.4116 -1.2672
16972TIP3   OH272330   3.206   5.143   4.471 -0.1463  0.3049 -0.2802
16972TIP3    H172331   3.202   5.238   4.474 -1.4836  0.2833 -0.6031
16972TIP3    H272332   3.183   5.120   4.381 -1.5960 -0.3457  0.2065
16973TIP3   OH272333   3.137   1.839  11.284  0.4806  0.1878  0.9365
16973TIP3    H172334   3.201   1.902  11.252  0.2594  0.3259  0.7601
16973TIP3    H272335   3.060   1.851  11.227  1.3398 -2.0927 -0.9090
16974TIP3   OH272336   1.518   1.642   4.098  0.0204 -0.3351  0.2410
16974TIP3    H172337   1.605   1.667   4.067 -0.1803 -0.2015 -0.2164
16974TIP3    H272338   1.478   1.597   4.023 -0.1036 -0.8833  0.6255
16975TIP3   OH272339   1.708   2.853   5.528  0.1494  0.3743 -0.9096
16975TIP3    H172340   1.615   2.878   5.521  0.3488  1.0341 -1.2274
16975TIP3    H272341   1.706   2.758   5.541 -0.7564  0.7362  2.7677
16976TIP3   OH272342   2.098   5.067  12.347 -0.3261  0.4116  0.9294
16976TIP3    H172343   2.086   5.154  12.308  0.4781  0.2181  0.2121
16976TIP3    H272344   2.076   5.079  12.439  0.0345  1.4513  0.8929
16977TIP3   OH272345   0.942   4.962   1.054  0.4029  0.5399 -0.2572
16977TIP3    H172346   1.035   4.948   1.075  0.5559 -0.3897 -1.4231
16977TIP3    H272347   0.898   4.886   1.092  0.3522  0.1504 -1.0695
16978TIP3   OH272348   3.393   1.873   3.413  0.2432 -0.3891  0.2357
16978TIP3    H172349   3.360   1.941   3.470  0.2467  0.1139 -0.3489
16978TIP3    H272350   3.485   1.864   3.436  1.2070  2.2799 -1.9748
16979TIP3   OH272351   6.435   0.149   0.938 -0.0914  0.1185 -0.2171
16979TIP3    H172352   6.482   0.110   1.011  1.7297 -0.3013 -1.5400
16979TIP3    H272353   6.397   0.075   0.891 -0.2105  0.2834 -0.3857
16980TIP3   OH272354   5.572   6.499   4.504 -0.4171 -0.3584  0.1070
16980TIP3    H172355   5.541   6.426   4.557  0.6496 -0.2849  0.8453
16980TIP3    H272356   5.666   6.503   4.520 -0.1882  0.1516 -1.2019
16981TIP3   OH272357   3.010   3.445  15.714  0.1553  0.5253 -0.2258
16981TIP3    H172358   2.987   3.525  15.666 -0.1287  1.2227  1.0524
16981TIP3    H272359   2.949   3.442  15.787  0.7254 -0.4032  0.2304
16982TIP3   OH272360   2.909   4.024   2.756  0.4076 -0.5251  0.1429
16982TIP3    H172361   2.837   3.982   2.709  0.6209 -2.6195  1.5482
16982TIP3    H272362   2.988   3.998   2.709  0.3522  2.7992 -2.1688
16983TIP3   OH272363   5.621   2.826  11.107  0.5170 -0.5272 -0.2283
16983TIP3    H172364   5.698   2.818  11.051  1.1572  2.5124  0.0215
16983TIP3    H272365   5.581   2.909  11.081 -1.9717 -1.3793  0.5545
16984TIP3   OH272366   1.601   1.754  11.152  0.1217  0.2281 -0.1011
16984TIP3    H172367   1.521   1.745  11.204  1.3831  0.2480  1.9471
16984TIP3    H272368   1.616   1.848  11.147 -0.1470  0.2436 -0.8067
16985TIP3   OH272369   5.490   1.093  11.900  0.6059 -0.0426 -0.3946
16985TIP3    H172370   5.421   1.146  11.859  2.1545  0.7413 -2.1247
16985TIP3    H272371   5.511   1.026  11.835 -1.7636 -3.4647  1.9768
16986TIP3   OH272372   6.290   0.126   5.692 -0.1034  0.0003 -0.3445
16986TIP3    H172373   6.382   0.138   5.669  1.0076 -1.9878  2.4747
16986TIP3    H272374   6.263   0.212   5.726  0.7303  0.5783 -1.0915
16987TIP3   OH272375   6.667   1.003   4.499  0.6818 -0.4478 -0.0030
16987TIP3    H172376   6.652   1.041   4.585  1.0939  0.3018 -0.2594
16987TIP3    H272377   6.667   0.908   4.515 -1.7578 -0.4603  0.4190
16988TIP3   OH272378   2.828   3.817   4.915  0.4162 -0.2595  0.2308
16988TIP3    H172379   2.807   3.727   4.888 -0.1741  0.0860 -0.5019
16988TIP3    H272380   2.923   3.818   4.924  0.2942 -1.4786  2.2045
16989TIP3   OH272381   5.327   2.804  12.608 -0.1290  0.5634 -0.0635
16989TIP3    H172382   5.330   2.710  12.628  1.3497  0.9307  1.6635
16989TIP3    H272383   5.275   2.842  12.678 -1.5882  0.9664 -1.3014
16990TIP3   OH272384   4.044   5.658   1.610  0.0952  0.4307 -0.6993
16990TIP3    H172385   4.126   5.699   1.637  0.0198 -0.0280  0.2733
16990TIP3    H272386   4.017   5.707   1.533  0.8370  1.1456 -0.5205
16991TIP3   OH272387   4.490   3.085  15.491  0.3614 -0.0022  0.5146
16991TIP3    H172388   4.502   3.001  15.447  0.5010 -0.4145  1.3275
16991TIP3    H272389   4.552   3.144  15.448  0.0948 -0.2462 -0.2199
16992TIP3   OH272390   1.257   0.926   3.003  0.4553 -0.0223 -0.3218
16992TIP3    H172391   1.201   1.000   2.978  0.3435 -0.1061 -0.3232
16992TIP3    H272392   1.345   0.952   2.977  0.8863  1.2776  2.1412
16993TIP3   OH272393   4.165   1.769   3.149 -0.4829  0.3861 -0.5114
16993TIP3    H172394   4.084   1.717   3.148 -2.2214  2.8638  0.0392
16993TIP3    H272395   4.218   1.731   3.219 -0.8655 -1.6736 -1.2805
16994TIP3   OH272396   3.143   6.592  14.340  0.0391 -0.1219  0.1392
16994TIP3    H172397   3.225   6.642  14.334  1.1632 -1.5978  1.9008
16994TIP3    H272398   3.100   6.626  14.419 -0.4172 -0.2165 -0.0672
16995TIP3   OH272399   3.064   6.692  14.581 -0.1169  0.1174  0.0262
16995TIP3    H172400   2.970   6.677  14.588 -0.0692 -0.2615 -0.1373
16995TIP3    H272401   3.077   6.779  14.618 -0.1442 -0.9609  2.7692
16996TIP3   OH272402   3.989   4.308  14.674  0.1404 -0.5701 -0.4962
16996TIP3    H172403   4.023   4.397  14.664  0.6668 -0.4335  1.7791
16996TIP3    H272404   3.945   4.289  14.592 -0.2090  1.8873 -0.9537
16997TIP3   OH272405   1.237   1.792  13.529 -0.2352 -0.1610  0.6230
16997TIP3    H172406   1.297   1.861  13.500 -0.7939 -0.6126 -1.8655
16997TIP3    H272407   1.252   1.720  13.467 -1.7537 -1.1499  1.3427
16998TIP3   OH272408   0.828   5.673  13.571 -0.6782 -0.3559 -0.2926
16998TIP3    H172409   0.777   5.592  13.579 -1.1417 -0.0488 -0.0644
16998TIP3    H272410   0.766   5.742  13.594 -0.5279  0.1316 -1.2942
16999TIP3   OH272411   2.825   4.851   0.419  0.0433  0.0592  0.1115
16999TIP3    H172412   2.914   4.844   0.386 -0.0298 -1.9975  0.2427
16999TIP3    H272413   2.770   4.844   0.341 -0.0321  0.2849  0.1433
17000TIP3   OH272414   6.193   6.212   4.123  0.1962  0.7302 -0.4913
17000TIP3    H172415   6.262   6.275   4.101  1.3286 -0.5026 -0.6141
17000TIP3    H272416   6.127   6.223   4.055 -0.5014  2.9725  0.4498
17001TIP3   OH272417   4.371   2.416   0.750  0.4998 -0.3616 -0.2104
17001TIP3    H172418   4.464   2.429   0.734  0.4614 -0.6417 -0.6615
17001TIP3    H272419   4.367   2.337   0.805  0.4902 -0.6988 -0.6963
17002TIP3   OH272420   3.004   4.098  15.556 -0.6108 -0.0819  0.4453
17002TIP3    H172421   2.960   4.034  15.612 -1.2752 -0.4080 -0.4131
17002TIP3    H272422   2.996   4.181  15.603 -0.5999 -0.4569  1.1187
17003TIP3   OH272423   3.948   0.616  13.175 -0.1923  0.8680 -0.1883
17003TIP3    H172424   3.914   0.676  13.108  0.2566  1.5091  0.1460
17003TIP3    H272425   3.891   0.630  13.251 -2.0109 -1.3426 -1.0339
17004TIP3   OH272426   0.453   2.631  14.850  0.3374 -0.3402  0.4696
17004TIP3    H172427   0.450   2.656  14.758  1.8514 -0.4856  0.3524
17004TIP3    H272428   0.487   2.542  14.850  2.2666  0.3319  1.2216
17005TIP3   OH272429   0.784   1.482  13.931 -0.2926 -0.0053  0.2624
17005TIP3    H172430   0.828   1.559  13.895 -0.4910  0.1723  0.3967
17005TIP3    H272431   0.834   1.407  13.898  0.1721  0.2009  0.5028
17006TIP3   OH272432   4.890   0.879  12.778 -0.0956 -0.0595 -0.7094
17006TIP3    H172433   4.840   0.956  12.805 -1.4116 -1.0700 -0.1654
17006TIP3    H272434   4.974   0.888  12.823 -0.2822  0.9862 -0.5519
17007TIP3   OH272435   4.801   2.692  13.098  0.0290 -0.3131 -0.9962
17007TIP3    H172436   4.743   2.750  13.048  0.3706  0.3359 -0.6548
17007TIP3    H272437   4.747   2.660  13.170 -0.3036 -0.8173 -1.4551
17008TIP3   OH272438   3.293   2.588   0.999 -0.6250  0.2849  0.2171
17008TIP3    H172439   3.263   2.499   1.014  0.1015 -0.2875 -1.5407
17008TIP3    H272440   3.281   2.603   0.906 -0.0798  1.7737  0.3547
17009TIP3   OH272441   1.795   5.711  14.425  0.0868  0.6931  0.7427
17009TIP3    H172442   1.713   5.699  14.378  0.7270  0.9265 -0.4754
17009TIP3    H272443   1.769   5.731  14.515 -1.1748  0.5249  0.4291
17010TIP3   OH272444   3.478   3.382   1.020  0.1870  0.9624  0.1300
17010TIP3    H172445   3.416   3.375   1.092 -0.5338  1.6976 -0.4018
17010TIP3    H272446   3.531   3.303   1.026 -0.3646  0.6465  0.9972
17011TIP3   OH272447   0.308   4.674   3.002  0.3848  0.3361 -0.0982
17011TIP3    H172448   0.246   4.634   2.940 -1.6576  2.0021  0.7337
17011TIP3    H272449   0.387   4.690   2.951 -0.5449 -0.1261 -1.7490
17012TIP3   OH272450   6.754   4.565  16.669  0.4582 -0.1953  0.1590
17012TIP3    H172451   6.703   4.628  16.720  1.6453 -0.7443  2.1205
17012TIP3    H272452   6.755   4.602  16.581  0.9934  2.5275  1.1911
17013TIP3   OH272453   5.528   0.913   1.836 -0.1413  0.3881 -0.1110
17013TIP3    H172454   5.488   0.826   1.828  0.3566  0.1545 -0.0494
17013TIP3    H272455   5.577   0.909   1.918  0.5248  0.4693 -0.4999
17014TIP3   OH272456   6.315   5.344   1.568  1.0132 -0.6124 -0.4275
17014TIP3    H172457   6.222   5.332   1.547  0.8097  0.9285 -0.4929
17014TIP3    H272458   6.333   5.276   1.634 -0.4492 -0.2513  0.3912
17015TIP3   OH272459   4.562   4.401   1.036  0.3184 -0.6664 -0.5203
17015TIP3    H172460   4.633   4.343   1.010  0.7618 -0.4945  0.2783
17015TIP3    H272461   4.482   4.354   1.011  0.6602 -1.7986  0.4703
17016TIP3   OH272462   3.683   2.789  17.169 -0.0012 -0.1575 -0.8609
17016TIP3    H172463   3.665   2.845  17.093 -1.3927  1.7008  0.7307
17016TIP3    H272464   3.608   2.731  17.174 -0.3630  0.3329 -0.4257
17017TIP3   OH272465   5.691   3.517  15.982  0.2254  0.5354 -0.7420
17017TIP3    H172466   5.689   3.424  16.008  1.5465  0.3449 -1.2041
17017TIP3    H272467   5.729   3.561  16.058 -2.0768  1.0044  0.1958
17018TIP3   OH272468   6.433   2.804  11.682  0.2741  0.0725 -0.2037
17018TIP3    H172469   6.388   2.837  11.759  1.1256  1.7235 -0.3588
17018TIP3    H272470   6.516   2.852  11.680  1.2838 -1.5861 -0.8928
17019TIP3   OH272471   5.342   0.670  10.708 -0.7556 -0.0590  0.2860
17019TIP3    H172472   5.250   0.642  10.709 -1.7892  2.8626 -1.2036
17019TIP3    H272473   5.360   0.696  10.798 -1.0783 -1.4064  0.7680
17020TIP3   OH272474   0.150   2.204   4.864  0.2874 -0.1459  0.4845
17020TIP3    H172475   0.179   2.140   4.799  0.9294  1.4194 -0.8345
17020TIP3    H272476   0.216   2.200   4.934 -0.2743 -1.6662  0.9616
17021TIP3   OH272477   0.037   5.224  12.412 -0.1393  0.2032  0.8279
17021TIP3    H172478   0.069   5.304  12.455 -2.3801  2.2758 -1.0725
17021TIP3    H272479  -0.057   5.238  12.403 -0.2440 -1.5443 -1.8113
17022TIP3   OH272480   6.385   6.328  15.002  0.1493  0.2015  0.1645
17022TIP3    H172481   6.329   6.270  14.950 -0.8350  0.2236  1.1564
17022TIP3    H272482   6.376   6.414  14.960 -0.5274  0.1934  0.2791
17023TIP3   OH272483   4.129   4.233  13.508 -0.2116 -0.1037 -0.5241
17023TIP3    H172484   4.086   4.292  13.569  0.6116  0.6143 -0.6166
17023TIP3    H272485   4.209   4.205  13.554 -0.7076 -1.3583 -0.3780
17024TIP3   OH272486   6.676   5.284  11.264  0.6399  0.2949 -0.2771
17024TIP3    H172487   6.636   5.264  11.179  0.9306 -0.2193 -0.2987
17024TIP3    H272488   6.749   5.222  11.272 -0.0329 -0.4090  0.8081
17025TIP3   OH272489   3.482   3.329  16.955  0.5560  0.4703  0.0637
17025TIP3    H172490   3.387   3.324  16.963  0.4875  0.9550 -0.4244
17025TIP3    H272491   3.507   3.252  16.904  0.3964  0.4987 -0.0553
17026TIP3   OH272492   5.934   4.363  12.817 -0.5191  0.4032  0.4007
17026TIP3    H172493   5.848   4.401  12.832 -1.7430 -1.6799 -0.8455
17026TIP3    H272494   5.960   4.395  12.731 -0.7568 -0.1733  0.1118
17027TIP3   OH272495   4.498   2.504   1.257 -0.4360 -0.2671 -0.0642
17027TIP3    H172496   4.585   2.496   1.219  0.0146 -1.2885  1.1308
17027TIP3    H272497   4.508   2.569   1.327 -0.6379 -0.3850  0.0765
17028TIP3   OH272498   5.585   6.748   5.214 -0.3321  0.2384  0.2586
17028TIP3    H172499   5.549   6.829   5.180 -0.4426  0.3116  0.5474
17028TIP3    H272500   5.628   6.707   5.139  2.5941  2.1167  0.7232
17029TIP3   OH272501   6.559   2.499   3.883 -0.2276 -0.4736  0.0117
17029TIP3    H172502   6.649   2.498   3.916 -0.2106  0.1375 -0.0116
17029TIP3    H272503   6.531   2.590   3.891 -1.0671 -0.7733  0.5956
17030TIP3   OH272504   6.429   3.509   5.908  0.4021 -0.3664  0.1551
17030TIP3    H172505   6.519   3.535   5.926 -0.5208  1.7643  2.1926
17030TIP3    H272506   6.406   3.450   5.980  0.0655 -0.6577 -0.1868
17031TIP3   OH272507   5.436   5.518   0.106  0.0413  0.0889 -0.0512
17031TIP3    H172508   5.508   5.472   0.062  0.8548  2.2077 -1.0817
17031TIP3    H272509   5.385   5.449   0.148  1.3142 -1.7018 -1.3182
17032TIP3   OH272510   4.353   0.289  15.589  0.0410 -0.1095  0.0501
17032TIP3    H172511   4.328   0.286  15.496  0.0030  2.5499 -0.1221
17032TIP3    H272512   4.274   0.263  15.636 -0.5912  0.4991 -0.6464
17033TIP3   OH272513   1.960   6.453  12.714  0.5925  0.3166  0.3479
17033TIP3    H172514   1.869   6.452  12.743  0.1395  0.6737 -0.9945
17033TIP3    H272515   1.956   6.436  12.620  1.9691 -0.2892  0.3738
17034TIP3   OH272516   0.374   2.262  13.417  0.1021 -0.6208 -0.1446
17034TIP3    H172517   0.462   2.240  13.389  0.2838  1.2706 -1.2569
17034TIP3    H272518   0.317   2.221  13.352  0.2083 -1.0158  0.0103
17035TIP3   OH272519   3.495   2.807   4.759 -0.2410 -0.2593  0.2364
17035TIP3    H172520   3.552   2.770   4.691  0.4561 -1.1833  1.2919
17035TIP3    H272521   3.553   2.863   4.811 -1.1338  1.8302 -0.9117
17036TIP3   OH272522   0.026   3.136  12.187  0.3352  0.2303  0.3318
17036TIP3    H172523  -0.007   3.046  12.195  1.5463 -0.2177  0.3838
17036TIP3    H272524   0.074   3.136  12.104  0.8068  0.6823  0.6020
17037TIP3   OH272525   6.318   1.211  11.154  0.2484 -0.4614  0.0605
17037TIP3    H172526   6.280   1.292  11.187 -1.8762 -0.9026 -1.0787
17037TIP3    H272527   6.383   1.239  11.090  2.2875  0.3385  2.3558
17038TIP3   OH272528   1.437   0.573   4.094  0.0811  0.2621 -0.2116
17038TIP3    H172529   1.426   0.478   4.084  0.9357  0.1860 -0.4835
17038TIP3    H272530   1.509   0.595   4.035  1.5124  0.6966  1.5950
17039TIP3   OH272531   3.384   2.738  15.832  0.1755 -0.0598  0.0798
17039TIP3    H172532   3.326   2.685  15.886 -0.0749  0.7578  0.6282
17039TIP3    H272533   3.326   2.778  15.766  0.1666  0.4713  0.4053
17040TIP3   OH272534   0.254   4.280  16.393  0.1824 -0.4594 -0.0612
17040TIP3    H172535   0.220   4.298  16.481  1.8598 -4.1008  1.5565
17040TIP3    H272536   0.344   4.312  16.394 -0.3525  1.1876 -1.1964
17041TIP3   OH272537   1.297   6.474   4.912 -1.0055 -0.1066  1.3084
17041TIP3    H172538   1.303   6.559   4.868  1.3431 -1.1801 -0.6371
17041TIP3    H272539   1.213   6.439   4.883 -0.4700  0.1335 -0.7139
17042TIP3   OH272540   5.634   4.015   2.045  0.1410 -0.5314 -0.0223
17042TIP3    H172541   5.652   3.927   2.076 -1.5890 -1.4912 -1.5865
17042TIP3    H272542   5.539   4.020   2.038  0.2571  1.0888 -0.9817
17043TIP3   OH272543   0.694   0.562  11.760 -0.5470 -0.0636  0.4489
17043TIP3    H172544   0.785   0.534  11.750  0.0648  1.7438  0.5718
17043TIP3    H272545   0.659   0.564  11.671 -0.9891 -2.2332  0.5155
17044TIP3   OH272546   3.212   5.132   4.842 -0.5613  0.3867 -0.3180
17044TIP3    H172547   3.256   5.125   4.927  0.5981  0.6945 -0.8771
17044TIP3    H272548   3.193   5.042   4.817  0.6948  0.1640 -0.5354
17045TIP3   OH272549   6.616   3.702   2.143 -0.0889 -0.4770 -0.2454
17045TIP3    H172550   6.533   3.734   2.107 -0.0480 -1.4198 -1.2349
17045TIP3    H272551   6.660   3.661   2.068  0.5772 -1.3545  0.6059
17046TIP3   OH272552   1.005   0.713   5.239  0.0327  0.3869  0.3622
17046TIP3    H172553   1.034   0.633   5.283  0.6440  1.7538  2.6038
17046TIP3    H272554   1.086   0.758   5.217 -0.3179  1.1249  0.5610
17047TIP3   OH272555   4.529   3.440   0.998  0.2470  0.1270 -0.2631
17047TIP3    H172556   4.559   3.369   0.940  0.3193 -0.3731  0.3747
17047TIP3    H272557   4.604   3.459   1.054 -0.7474 -1.6093  1.8204
17048TIP3   OH272558   0.049   2.574  13.299  0.2768  0.2307  0.0761
17048TIP3    H172559   0.123   2.568  13.239  1.5899  0.3191  1.6229
17048TIP3    H272560  -0.015   2.512  13.265  1.0767  0.1135 -1.2637
17049TIP3   OH272561   5.094   2.288   5.488 -0.7285  0.0047  0.5067
17049TIP3    H172562   5.071   2.314   5.577  0.0831  0.7948  0.5047
17049TIP3    H272563   5.017   2.309   5.436  0.0471  3.0402  0.4033
17050TIP3   OH272564   2.001   6.443  17.281 -0.5115 -0.1970  0.2226
17050TIP3    H172565   2.082   6.444  17.333  0.2803  0.7828 -0.9782
17050TIP3    H272566   1.965   6.531  17.292 -1.2364 -0.5124  0.4403
17051TIP3   OH272567   4.341   2.145  14.096  0.1378 -0.4411  0.5995
17051TIP3    H172568   4.424   2.099  14.086 -0.5560 -1.5963  0.0140
17051TIP3    H272569   4.275   2.077  14.106 -0.9105  0.3899 -0.2120
17052TIP3   OH272570   3.728   4.742  13.728 -0.3004  0.3505 -0.0882
17052TIP3    H172571   3.660   4.796  13.768 -1.0323 -0.3837 -0.3097
17052TIP3    H272572   3.808   4.766  13.773 -0.5312  1.9332 -0.4861
17053TIP3   OH272573   1.328   5.746  13.272 -0.1373 -0.1780 -0.2678
17053TIP3    H172574   1.255   5.706  13.321 -0.2140  0.0287 -0.2136
17053TIP3    H272575   1.299   5.744  13.181 -0.9249  1.3942 -0.0848
17054TIP3   OH272576   4.604   2.631  15.182  0.3118  0.3142 -0.4051
17054TIP3    H172577   4.536   2.565  15.194  1.2593 -0.6265 -0.0284
17054TIP3    H272578   4.561   2.715  15.201 -1.0282 -0.1344 -1.3529
17055TIP3   OH272579   3.577   4.660  11.595 -0.2044  0.4033 -0.0802
17055TIP3    H172580   3.507   4.596  11.582  1.0160 -0.7952 -1.0638
17055TIP3    H272581   3.607   4.681  11.507  0.2782  1.3659  0.2979
17056TIP3   OH272582   3.235   3.064   6.621  0.4513 -0.5641  0.3339
17056TIP3    H172583   3.172   3.069   6.548 -2.1935 -0.6925  2.4520
17056TIP3    H272584   3.224   2.976   6.656  1.4194 -0.3834  1.1205
17057TIP3   OH272585   5.650   6.059  13.548  0.4037 -0.7340  0.0143
17057TIP3    H172586   5.697   6.086  13.627 -1.3622  1.6960  0.3846
17057TIP3    H272587   5.592   6.133  13.529 -2.7897 -3.1819 -0.7358
17058TIP3   OH272588   4.783   6.468  11.235 -0.4890 -0.6655 -0.1731
17058TIP3    H172589   4.697   6.483  11.196 -0.5828  0.0730  0.2865
17058TIP3    H272590   4.837   6.540  11.201 -0.9827  0.9868  2.2248
17059TIP3   OH272591   3.777   4.862  11.740 -0.1270  0.2701  0.3900
17059TIP3    H172592   3.787   4.865  11.645 -0.3333 -1.0569  0.3136
17059TIP3    H272593   3.866   4.856  11.774 -0.1382 -1.4468  0.1698
17060TIP3   OH272594   5.773   3.473  13.108 -0.4036  0.0928  0.5579
17060TIP3    H172595   5.812   3.551  13.069  0.8447 -1.3319 -1.2408
17060TIP3    H272596   5.719   3.435  13.038  1.6282 -2.3754  0.1789
17061TIP3   OH272597   5.797   0.848  16.515 -0.7636  0.1691 -0.4048
17061TIP3    H172598   5.843   0.855  16.431 -0.0266 -0.5841 -0.0676
17061TIP3    H272599   5.813   0.932  16.558  2.0825 -0.7810  0.5949
17062TIP3   OH272600   1.727   0.902  13.778  0.3197 -0.0377  0.1585
17062TIP3    H172601   1.692   0.854  13.853  0.2945 -1.2633 -0.5958
17062TIP3    H272602   1.682   0.864  13.702 -1.1759  2.5429 -0.3786
17063TIP3   OH272603   6.197   5.649  14.445 -0.1205 -0.7364 -0.1580
17063TIP3    H172604   6.145   5.673  14.368  1.3809 -0.5292 -1.1558
17063TIP3    H272605   6.134   5.646  14.517 -1.5993 -1.0856 -1.4163
17064TIP3   OH272606   3.861   4.608   5.441  0.1803 -0.1266  0.1476
17064TIP3    H172607   3.841   4.682   5.499  1.9982  0.7784 -0.2767
17064TIP3    H272608   3.860   4.646   5.353  1.4771 -0.4818 -0.0493
17065TIP3   OH272609   2.989   3.428  10.734 -0.2212  0.6864  0.1148
17065TIP3    H172610   3.006   3.503  10.677 -0.4701  0.0562 -0.8056
17065TIP3    H272611   2.917   3.457  10.790  0.1093  1.3574  0.2053
17066TIP3   OH272612   6.055   0.999   0.127 -0.4949 -0.1735 -0.1559
17066TIP3    H172613   6.070   1.064   0.196 -0.3568  1.0976 -1.3446
17066TIP3    H272614   6.119   0.930   0.145  0.5400  0.8350  0.1422
17067TIP3   OH272615   6.744   5.860  15.241  0.2735  0.4617  0.2601
17067TIP3    H172616   6.799   5.899  15.173 -1.0924 -0.7010 -1.6122
17067TIP3    H272617   6.713   5.934  15.292  2.1239  1.2891  0.2575
17068TIP3   OH272618   4.476   1.050   1.768  0.5918 -0.1656  0.0213
17068TIP3    H172619   4.564   1.041   1.804  0.3316 -0.6427  0.5518
17068TIP3    H272620   4.466   1.144   1.753 -0.0052  0.3729  3.0808
17069TIP3   OH272621   4.298   5.879  13.978 -0.0486  0.4386 -1.2618
17069TIP3    H172622   4.261   5.795  13.952  0.4278  0.2935 -1.4915
17069TIP3    H272623   4.271   5.940  13.909 -1.4334  0.7549 -0.4615
17070TIP3   OH272624   3.923   5.818   2.168 -0.1590  0.2100 -0.0127
17070TIP3    H172625   3.952   5.728   2.182 -1.8168 -0.7210 -2.0355
17070TIP3    H272626   3.943   5.863   2.250  0.2176 -2.1293  1.2549
17071TIP3   OH272627   0.825   1.817   5.465  0.3038  0.7509 -0.9537
17071TIP3    H172628   0.858   1.824   5.555  1.6637  2.5013 -1.5310
17071TIP3    H272629   0.740   1.860   5.467  0.4364  1.0003 -0.5520
17072TIP3   OH272630   6.440   4.180  13.540  0.3064 -0.1373  0.1533
17072TIP3    H172631   6.372   4.208  13.479 -2.6047 -2.1758  2.1667
17072TIP3    H272632   6.489   4.113  13.492 -1.1821 -0.9000 -0.3812
17073TIP3   OH272633   4.617   5.755   3.977  0.0300  0.0896 -0.2410
17073TIP3    H172634   4.619   5.694   4.051 -0.1090 -1.4246 -1.4374
17073TIP3    H272635   4.530   5.794   3.981  0.1446  0.2959  0.5788
17074TIP3   OH272636   4.696   3.024  13.746 -0.4324 -0.1514  0.0776
17074TIP3    H172637   4.738   2.955  13.796 -0.0523  0.7114  0.9899
17074TIP3    H272638   4.693   3.099  13.806  1.2590  1.3444 -1.5579
17075TIP3   OH272639   5.263   1.127   4.429  0.2626  0.0290  0.5633
17075TIP3    H172640   5.298   1.160   4.347 -0.5859 -0.5666 -0.0580
17075TIP3    H272641   5.287   1.192   4.494 -0.7063  1.4828 -0.4831
17076TIP3   OH272642   1.502   5.129  12.902 -0.1114  0.2900  0.0827
17076TIP3    H172643   1.564   5.183  12.952 -1.1352  1.5154  0.0891
17076TIP3    H272644   1.549   5.108  12.821  0.8473 -0.0726  0.7103
17077TIP3   OH272645   2.096   6.605   1.969 -0.1193  0.0846  0.2037
17077TIP3    H172646   2.039   6.676   1.998  0.3371  1.1245 -1.3337
17077TIP3    H272647   2.160   6.648   1.912  1.4663 -1.2325  0.9181
17078TIP3   OH272648   0.281   4.562   0.015  0.5977 -0.3912 -0.2063
17078TIP3    H172649   0.241   4.512  -0.056 -0.4510  0.5479 -0.3167
17078TIP3    H272650   0.290   4.500   0.087 -1.6704 -0.5205  0.0278
17079TIP3   OH272651   5.947   5.652  13.542  0.4214  0.2041  0.2998
17079TIP3    H172652   5.991   5.650  13.457 -2.0781  2.4925 -1.2337
17079TIP3    H272653   5.983   5.729  13.586 -0.2442  0.6360  0.1007
17080TIP3   OH272654   6.065   1.051  13.441 -0.7839 -0.0554  0.1962
17080TIP3    H172655   6.080   1.063  13.534  1.7640  1.7453 -0.3349
17080TIP3    H272656   6.105   0.967  13.420 -2.2930 -0.9759  0.8369
17081TIP3   OH272657   3.200   4.670  14.860 -0.1893 -0.9773  0.6339
17081TIP3    H172658   3.246   4.614  14.922  0.5509 -0.0112  0.9722
17081TIP3    H272659   3.235   4.645  14.774  1.9503  0.6039  0.9782
17082TIP3   OH272660   6.011   5.044  13.069  0.3941  0.3098  0.3950
17082TIP3    H172661   5.994   5.104  13.142 -2.9808 -0.2179  0.2025
17082TIP3    H272662   6.010   5.100  12.991  0.1594  0.3708  0.4431
17083TIP3   OH272663   4.742   4.750  16.701 -0.3823 -0.1944  0.0778
17083TIP3    H172664   4.829   4.709  16.702  0.0274  0.6421 -0.0770
17083TIP3    H272665   4.686   4.685  16.658  0.2131 -0.6528 -0.0328
17084TIP3   OH272666   4.310   1.839   1.988  0.1614 -0.8924 -0.5657
17084TIP3    H172667   4.255   1.772   2.029  1.2418 -1.9766 -0.8160
17084TIP3    H272668   4.397   1.824   2.025  0.5603 -0.0456 -1.1352
17085TIP3   OH272669   4.095   3.597   5.335 -0.3604  0.4142 -0.1758
17085TIP3    H172670   4.054   3.523   5.292  1.1474 -0.4458 -0.1973
17085TIP3    H272671   4.177   3.611   5.287 -0.9667  2.6320 -0.6963
17086TIP3   OH272672   3.026   3.401   4.599  0.0560 -0.2524  0.3232
17086TIP3    H172673   2.997   3.348   4.674  1.0316 -0.3958  0.6132
17086TIP3    H272674   3.009   3.346   4.523 -2.2359  0.4307  0.2747
17087TIP3   OH272675   5.418   0.209   4.542 -0.6754  0.5825  0.0516
17087TIP3    H172676   5.379   0.123   4.559  0.6016  0.0562  0.4007
17087TIP3    H272677   5.512   0.194   4.547 -0.3917  1.7113 -1.3007
17088TIP3   OH272678   6.417   6.698   2.375  0.1084 -0.5821 -0.4325
17088TIP3    H172679   6.478   6.629   2.401 -0.1267 -0.5501  0.2409
17088TIP3    H272680   6.385   6.734   2.458 -0.9211 -0.6859 -0.7640
17089TIP3   OH272681   0.151   2.238  16.179  0.1355 -0.1408  0.2901
17089TIP3    H172682   0.125   2.291  16.104  2.1370  0.6642  0.1138
17089TIP3    H272683   0.090   2.265  16.248 -0.2743  0.8009 -0.4003
17090TIP3   OH272684   3.342   1.863   1.390 -0.1819 -0.2493 -0.3396
17090TIP3    H172685   3.332   1.951   1.426  0.3928 -0.2719 -0.1135
17090TIP3    H272686   3.433   1.840   1.408 -1.3069 -2.6769  3.7089
17091TIP3   OH272687   1.304   2.930   5.988 -0.1909 -0.0089 -0.0710
17091TIP3    H172688   1.301   2.871   6.063  0.5558  0.0813  0.0397
17091TIP3    H272689   1.224   2.911   5.939  0.3047 -1.5139 -0.3422
17092TIP3   OH272690   4.410   4.637  15.693 -1.1364 -0.2624 -0.6090
17092TIP3    H172691   4.326   4.683  15.701 -0.4027  1.5581 -2.4715
17092TIP3    H272692   4.405   4.594  15.608 -0.0481  0.2156 -0.9321
17093TIP3   OH272693   3.716   6.429   4.406  0.2536 -0.7969  0.0125
17093TIP3    H172694   3.685   6.510   4.448  0.2482 -1.3396  1.0965
17093TIP3    H272695   3.795   6.455   4.360 -1.1347  0.3815 -1.8573
17094TIP3   OH272696   2.063   3.677   2.938 -0.0031 -0.2042 -0.4012
17094TIP3    H172697   2.107   3.668   3.022 -1.6221  0.4665  0.5781
17094TIP3    H272698   2.122   3.730   2.885  0.7980 -0.1737  0.4989
17095TIP3   OH272699   4.841   3.956  15.484 -0.2631  0.2361 -0.3455
17095TIP3    H172700   4.866   4.046  15.502 -1.2676  0.9962 -2.4888
17095TIP3    H272701   4.745   3.956  15.490 -0.2609 -0.7582 -0.1187
17096TIP3   OH272702   4.399   3.010   3.553 -0.1484 -0.2758  0.6063
17096TIP3    H172703   4.361   3.078   3.497  0.2153  0.3388  1.0991
17096TIP3    H272704   4.428   2.942   3.491  0.9312  0.7330 -0.0373
17097TIP3   OH272705   5.374   5.905  13.834 -0.1044  0.0782  0.1285
17097TIP3    H172706   5.416   5.850  13.767  0.0840  2.7285 -2.1094
17097TIP3    H272707   5.437   5.975  13.851 -0.8649  0.3868  1.8886
17098TIP3   OH272708   0.141   5.235  16.530 -0.0874 -0.0442 -0.5396
17098TIP3    H172709   0.094   5.316  16.547  1.6527  0.8882  0.1113
17098TIP3    H272710   0.179   5.247  16.443 -1.5301 -1.0586 -1.3461
17099TIP3   OH272711   6.745   6.444   3.960 -0.3943 -0.1900 -0.0562
17099TIP3    H172712   6.715   6.364   3.917  0.8434 -0.2189 -0.9206
17099TIP3    H272713   6.756   6.418   4.052 -0.7730 -0.7976 -0.1754
17100TIP3   OH272714   4.319   5.820   4.512  0.1847  0.1905  0.0097
17100TIP3    H172715   4.247   5.848   4.455 -0.3515  0.7313  0.9267
17100TIP3    H272716   4.396   5.865   4.477 -0.4430  1.9095  0.7107
17101TIP3   OH272717   2.500   3.545  13.372  0.0672 -0.3016 -0.1734
17101TIP3    H172718   2.538   3.632  13.372  1.0772 -0.5991  3.1231
17101TIP3    H272719   2.419   3.554  13.421 -0.2121 -1.0930 -0.4680
17102TIP3   OH272720   2.399   6.626  13.412 -0.3902 -0.5328 -0.7618
17102TIP3    H172721   2.356   6.710  13.431 -1.0238 -1.0187  0.0728
17102TIP3    H272722   2.451   6.642  13.334 -1.1908  0.4073 -1.1257
17103TIP3   OH272723   0.162   5.686  13.007 -0.3114  0.3136 -0.5661
17103TIP3    H172724   0.131   5.599  13.031  0.2675  0.4482  0.7322
17103TIP3    H272725   0.197   5.675  12.918 -0.8681 -0.6060 -0.6914
17104TIP3   OH272726   4.849   0.023  11.141 -0.3573  0.3367 -0.2793
17104TIP3    H172727   4.865   0.117  11.137  0.0619  0.2613 -0.4587
17104TIP3    H272728   4.928  -0.016  11.103  0.0584 -0.1282  1.0030
17105TIP3   OH272729   2.761   1.471  13.347  0.1588 -0.6592 -0.0870
17105TIP3    H172730   2.715   1.548  13.383 -1.0575 -1.4646  0.1668
17105TIP3    H272731   2.838   1.507  13.303  0.2608  0.6006  1.0503
17106TIP3   OH272732   0.670   4.926  17.206 -0.3559  0.4589 -0.2212
17106TIP3    H172733   0.729   4.913  17.280  0.7774 -0.6691 -1.2527
17106TIP3    H272734   0.592   4.876  17.228 -0.2597  0.6112  0.4641
17107TIP3   OH272735   6.133   0.213  17.294  0.4730 -0.2508  0.0637
17107TIP3    H172736   6.164   0.187  17.381 -1.0951 -0.0242  0.7293
17107TIP3    H272737   6.175   0.298  17.279  0.4772 -0.1166  0.7665
17108TIP3   OH272738   4.505   3.332  14.787 -0.4418  0.3993  0.4541
17108TIP3    H172739   4.445   3.269  14.826 -0.1094 -1.2801 -1.5419
17108TIP3    H272740   4.450   3.387  14.731 -0.3649 -0.0331 -0.0544
17109TIP3   OH272741   4.193   3.225   0.988 -0.1596  0.3360  0.4063
17109TIP3    H172742   4.113   3.268   0.959 -0.8870 -0.8463  0.5660
17109TIP3    H272743   4.184   3.220   1.083 -0.6398 -1.1181  0.3204
17110TIP3   OH272744   2.889   0.650   3.283 -0.0525  0.5334  0.2574
17110TIP3    H172745   2.933   0.724   3.326 -0.7352  0.2711  1.4309
17110TIP3    H272746   2.797   0.660   3.305 -0.0076 -1.3389  1.4718
17111TIP3   OH272747   5.453   5.471   3.971 -0.2417 -0.3407 -0.4727
17111TIP3    H172748   5.424   5.409   3.904 -0.7633 -1.1334  0.4603
17111TIP3    H272749   5.502   5.418   4.033  2.6687  0.8419 -1.5871
17112TIP3   OH272750   2.488   0.068  14.705 -0.4871 -0.7559  0.1004
17112TIP3    H172751   2.437   0.130  14.654 -1.3531  0.0435  1.8484
17112TIP3    H272752   2.428  -0.006  14.720 -1.0390 -0.0127  1.7770
17113TIP3   OH272753   1.708   6.230   4.136  0.3985 -0.2928  0.2234
17113TIP3    H172754   1.772   6.215   4.206 -0.2806 -0.4875  0.8175
17113TIP3    H272755   1.674   6.143   4.116 -1.0602 -0.0096  1.2696
17114TIP3   OH272756   3.934   3.916   6.033  0.2813 -0.1236  0.0417
17114TIP3    H172757   3.925   3.882   5.944  0.0695 -2.6332  0.9634
17114TIP3    H272758   3.859   3.882   6.080 -0.3207  2.2392  0.9606
17115TIP3   OH272759   1.231   5.503  12.075  0.3075 -0.7623 -0.0460
17115TIP3    H172760   1.184   5.584  12.093  0.8087  0.0964 -2.2888
17115TIP3    H272761   1.187   5.466  11.998  0.8531 -1.9911  0.2061
17116TIP3   OH272762   2.930   0.141   1.819  0.1379 -0.5094 -0.6699
17116TIP3    H172763   3.022   0.165   1.815  0.1058  0.0846  1.2122
17116TIP3    H272764   2.884   0.225   1.830 -0.6241 -0.8070 -1.4705
17117TIP3   OH272765   2.531   1.139  15.437 -0.1383 -0.1178 -0.3020
17117TIP3    H172766   2.589   1.118  15.364 -0.3489 -0.9932 -0.2323
17117TIP3    H272767   2.443   1.141  15.397 -0.2560 -0.6217 -0.0723
17118TIP3   OH272768   0.897   4.022   4.306  0.3031 -0.3471  0.1816
17118TIP3    H172769   0.953   4.023   4.228  0.2492  0.0650  0.1494
17118TIP3    H272770   0.846   3.941   4.297  0.9796 -0.7890  0.2754
17119TIP3   OH272771   4.360   2.644  13.194 -0.4895 -0.0399  0.5300
17119TIP3    H172772   4.362   2.559  13.238  1.3088 -0.8262 -0.9138
17119TIP3    H272773   4.399   2.705  13.257 -2.1415 -0.1624  1.7207
17120TIP3   OH272774   0.180   2.648   1.516  0.6592  0.5485  0.4480
17120TIP3    H172775   0.085   2.649   1.503  0.8084 -0.2472 -0.8946
17120TIP3    H272776   0.195   2.574   1.575  0.3731  1.2568  1.4221
17121TIP3   OH272777   0.931   3.805   3.141 -0.6169 -0.4153 -0.1033
17121TIP3    H172778   0.945   3.807   3.235  0.0147 -0.0389 -0.1987
17121TIP3    H272779   0.839   3.783   3.130 -1.0640  1.0018  0.6262
17122TIP3   OH272780   0.011   5.515   2.667  0.1840 -0.2362 -0.0968
17122TIP3    H172781  -0.013   5.428   2.699  1.8600  0.1439  2.5190
17122TIP3    H272782   0.106   5.513   2.659  0.3103  1.4681  0.4831
17123TIP3   OH272783   0.872   0.444  15.781 -0.5848  0.4094  0.0608
17123TIP3    H172784   0.866   0.490  15.697 -1.4280  0.6571  0.2488
17123TIP3    H272785   0.788   0.462  15.824 -0.5575 -0.5521  0.5285
17124TIP3   OH272786   1.227   5.154  13.529 -0.3348  0.2095  0.3155
17124TIP3    H172787   1.147   5.142  13.477 -0.3446 -0.1057  0.3973
17124TIP3    H272788   1.242   5.248  13.529 -1.3141  0.3893  1.1784
17125TIP3   OH272789   6.232   5.703  11.370  0.1162  0.0995  0.2739
17125TIP3    H172790   6.197   5.678  11.284 -0.4662  0.9368  0.2669
17125TIP3    H272791   6.319   5.738  11.350 -0.8786  2.4454 -0.2833
17126TIP3   OH272792   5.827   3.343   2.937 -0.5774  0.4434 -0.2862
17126TIP3    H172793   5.921   3.359   2.944 -0.8506  1.9884  0.2556
17126TIP3    H272794   5.820   3.267   2.880  1.0440 -0.5543  0.7549
17127TIP3   OH272795   2.910   1.624  11.270 -0.3014  0.1611 -0.3280
17127TIP3    H172796   2.940   1.618  11.179 -0.8282 -1.4749 -0.4328
17127TIP3    H272797   2.860   1.543  11.284  1.1353 -0.4183  1.9126
17128TIP3   OH272798   5.016   3.211  11.550 -0.2704  0.2521 -0.0109
17128TIP3    H172799   5.018   3.253  11.637 -2.3076 -0.2528  0.3523
17128TIP3    H272800   5.014   3.284  11.489 -0.1896  0.6408  0.4423
17129TIP3   OH272801   5.577   3.043  13.645 -0.0996  0.5397  0.0179
17129TIP3    H172802   5.484   3.066  13.643 -0.1012  0.7250  1.3597
17129TIP3    H272803   5.623   3.127  13.638 -0.0326  0.4552 -0.5695
17130TIP3   OH272804   5.599   2.021  15.991  0.0123 -0.0626  1.0491
17130TIP3    H172805   5.506   2.001  15.995 -0.0785  0.2967  0.7268
17130TIP3    H272806   5.611   2.097  16.048  0.1719 -0.3373  1.3859
17131TIP3   OH272807   3.563   0.107   5.898 -0.2606 -0.0400 -0.2118
17131TIP3    H172808   3.518   0.042   5.952  0.9798 -1.7607 -1.1406
17131TIP3    H272809   3.656   0.094   5.917 -0.0153  3.4565  1.7085
17132TIP3   OH272810   2.334   4.552   4.509  0.2057  0.7439 -0.3545
17132TIP3    H172811   2.426   4.524   4.501  0.1397  0.9002 -1.9455
17132TIP3    H272812   2.287   4.471   4.527  0.5206  0.4632 -0.7572
17133TIP3   OH272813   3.537   5.804   3.212 -0.7819 -0.4719  0.5233
17133TIP3    H172814   3.546   5.786   3.306 -1.3397 -0.3098  0.6091
17133TIP3    H272815   3.449   5.774   3.190 -1.0445  0.4385  0.2761
17134TIP3   OH272816   0.052   1.938  11.714 -0.9571  0.0918  0.2324
17134TIP3    H172817   0.036   2.022  11.670 -0.6935 -0.4189 -0.8897
17134TIP3    H272818   0.140   1.947  11.751 -0.4209 -0.0856 -0.9308
17135TIP3   OH272819   5.072   2.625  13.461 -0.1731  0.3467 -0.2264
17135TIP3    H172820   5.045   2.714  13.438  0.0293  0.4857  0.0747
17135TIP3    H272821   5.153   2.611  13.411 -0.9977 -0.2263 -1.4717
17136TIP3   OH272822   5.889   3.896  16.899 -0.1260 -0.5522  0.0619
17136TIP3    H172823   5.861   3.927  16.985  1.4024  1.1527 -0.0106
17136TIP3    H272824   5.957   3.831  16.918  0.6570  0.2835  0.1451
17137TIP3   OH272825   0.553   1.739  12.869 -0.0082  0.2493 -0.1114
17137TIP3    H172826   0.643   1.740  12.837 -0.2650  0.2112 -0.8669
17137TIP3    H272827   0.528   1.647  12.868  0.4058  0.1052  1.4682
17138TIP3   OH272828   6.369   3.101   2.812  0.0679  0.4585  0.5735
17138TIP3    H172829   6.382   3.007   2.812  0.9910  0.5416 -1.1578
17138TIP3    H272830   6.425   3.133   2.741 -0.2371  2.3072  1.1006
17139TIP3   OH272831   3.272   1.284  10.760 -0.2112 -0.2249  0.4588
17139TIP3    H172832   3.214   1.292  10.836 -1.6185  2.0575 -0.7553
17139TIP3    H272833   3.228   1.333  10.691  0.7821 -2.6035 -2.0362
17140TIP3   OH272834   6.106   2.036   3.659 -0.7604  0.4466 -0.2316
17140TIP3    H172835   6.080   2.128   3.652 -0.8381  0.6204  1.7938
17140TIP3    H272836   6.166   2.034   3.733 -0.8991 -1.1694 -0.1412
17141TIP3   OH272837   1.957   3.284  17.283  0.2004  0.2025  0.0894
17141TIP3    H172838   1.951   3.257  17.191  0.5309  0.8425 -0.1254
17141TIP3    H272839   1.870   3.315  17.305 -0.8855 -3.0320  1.0150
17142TIP3   OH272840   3.743   0.536   5.403  0.2297 -0.0795  0.0133
17142TIP3    H172841   3.798   0.610   5.377 -0.4610  0.0876 -1.0734
17142TIP3    H272842   3.653   0.569   5.394 -0.1582 -1.4905 -2.1149
17143TIP3   OH272843   0.816   6.763   4.178  0.2731 -0.3216 -0.2488
17143TIP3    H172844   0.804   6.857   4.195 -1.6875 -0.6413  0.4587
17143TIP3    H272845   0.879   6.735   4.244 -2.0149 -0.1728  2.1905
17144TIP3   OH272846   3.295   5.334   6.682  0.0717 -0.1101  0.1798
17144TIP3    H172847   3.340   5.417   6.699 -0.2893  0.2602 -0.5980
17144TIP3    H272848   3.362   5.279   6.641  0.3186 -0.2182  0.7166
17145TIP3   OH272849   5.338   4.618  14.398  0.2292  0.4141 -0.2402
17145TIP3    H172850   5.341   4.687  14.332 -0.4570  0.7530  0.0663
17145TIP3    H272851   5.268   4.645  14.458  0.7205  0.0251  0.5263
17146TIP3   OH272852   6.299   4.088  12.073  0.2986 -0.2571 -0.6336
17146TIP3    H172853   6.392   4.070  12.059  0.1913 -2.4958  0.9406
17146TIP3    H272854   6.255   4.008  12.045 -1.0457  0.3272 -0.2417
17147TIP3   OH272855   6.341   4.487  13.138  0.5979 -0.1038  0.3219
17147TIP3    H172856   6.349   4.491  13.043 -0.7253  0.6397  0.2240
17147TIP3    H272857   6.329   4.578  13.166 -0.0341 -0.4025  1.0866
17148TIP3   OH272858   0.865   6.472  14.636  0.3121  0.1766  0.0712
17148TIP3    H172859   0.915   6.417  14.698 -1.2036 -2.7598 -1.0980
17148TIP3    H272860   0.801   6.517  14.691  0.8309 -0.1534  0.9825
17149TIP3   OH272861   0.049   5.290  15.049  0.3142 -0.2449  0.1559
17149TIP3    H172862   0.070   5.198  15.031  0.9687 -0.4639  1.8527
17149TIP3    H272863  -0.044   5.299  15.027  0.1659 -1.3922  0.2876
17150TIP3   OH272864   3.419   1.081  10.642 -0.2092 -0.0045 -0.0535
17150TIP3    H172865   3.387   1.151  10.699  0.5318 -1.5068  2.3919
17150TIP3    H272866   3.515   1.087  10.648 -0.1346 -1.0809  0.0503
17151TIP3   OH272867   5.780   3.390  12.091 -0.1411 -0.4519  0.0553
17151TIP3    H172868   5.705   3.416  12.145 -0.6699 -3.0945  0.7457
17151TIP3    H272869   5.758   3.421  12.003 -0.3747  1.8543  0.8597
17152TIP3   OH272870   2.015   2.925   3.086  0.5296  0.0772 -0.3902
17152TIP3    H172871   1.920   2.930   3.103  0.8850  3.6572  1.5754
17152TIP3    H272872   2.029   2.985   3.012  1.3620  0.4259  0.0391
17153TIP3   OH272873   5.087   2.832   3.227 -0.1936  0.0337 -0.3954
17153TIP3    H172874   5.176   2.858   3.248 -0.7299  0.1605  1.9732
17153TIP3    H272875   5.097   2.748   3.181  1.1543  0.6608 -1.3309
17154TIP3   OH272876   5.340   6.680  16.791  0.4269 -0.0286 -0.1356
17154TIP3    H172877   5.336   6.654  16.883  0.5326 -0.0411 -0.1344
17154TIP3    H272878   5.266   6.739  16.779 -0.4283 -1.1265 -0.3830
17155TIP3   OH272879   3.917   0.316  10.910  0.1091 -0.0156 -0.0072
17155TIP3    H172880   3.897   0.402  10.873 -0.3167  0.1685  0.6292
17155TIP3    H272881   3.843   0.261  10.883  0.2243 -0.1029 -0.1464
17156TIP3   OH272882   6.635   0.177   2.023 -0.4517  0.1298 -0.0451
17156TIP3    H172883   6.670   0.093   2.051 -0.4638 -0.7148 -2.3405
17156TIP3    H272884   6.542   0.174   2.047  0.0141  0.4901  1.9457
17157TIP3   OH272885   0.671   5.709  17.241  0.1347 -0.3301 -0.5423
17157TIP3    H172886   0.685   5.614  17.243 -0.9076 -0.4902  1.3274
17157TIP3    H272887   0.600   5.721  17.177  0.8009 -0.7022 -1.3761
17158TIP3   OH272888   5.059   5.595  11.300  0.2765  0.2362 -0.3996
17158TIP3    H172889   5.134   5.627  11.349 -0.0326  0.9297 -0.3714
17158TIP3    H272890   5.052   5.654  11.225 -1.2453  1.2247  0.4798
17159TIP3   OH272891   2.413   1.372  14.401  0.1519 -0.9474 -0.3531
17159TIP3    H172892   2.400   1.282  14.373  1.8489 -2.3236  2.7251
17159TIP3    H272893   2.479   1.407  14.342 -3.2271 -0.1750 -4.1086
17160TIP3   OH272894   2.737   2.323   5.532  0.1138  0.4183  0.2175
17160TIP3    H172895   2.817   2.345   5.485 -0.0717 -1.0605 -0.8546
17160TIP3    H272896   2.666   2.352   5.475 -0.1303  0.8861  0.7453
17161TIP3   OH272897   1.717   6.712   5.420  0.6305 -0.1756 -0.7190
17161TIP3    H172898   1.674   6.688   5.502 -1.0663  0.2845 -1.4150
17161TIP3    H272899   1.769   6.636   5.396 -0.8819 -1.3289 -0.4780
17162TIP3   OH272900   2.246   3.307  15.809 -0.2141  0.2072 -0.2470
17162TIP3    H172901   2.248   3.218  15.844 -1.1270  0.7121  1.1888
17162TIP3    H272902   2.295   3.359  15.874  1.0645  0.6365 -1.5070
17163TIP3   OH272903   3.395   0.381   6.053 -0.3032 -0.3971 -0.6984
17163TIP3    H172904   3.407   0.453   6.114 -0.6916  1.5960 -2.8544
17163TIP3    H272905   3.483   0.363   6.019 -0.6094  1.4071 -2.6112
17164TIP3   OH272906   2.794   6.191  15.019  0.3230  0.1230  0.4366
17164TIP3    H172907   2.750   6.244  15.085  2.1238  1.5527  0.5844
17164TIP3    H272908   2.848   6.130  15.070 -0.1875 -0.4760  0.2680
17165TIP3   OH272909   3.882   1.405   4.790 -0.4261 -0.3250  0.4445
17165TIP3    H172910   3.810   1.456   4.827 -0.7856 -1.4052  1.2763
17165TIP3    H272911   3.867   1.407   4.695 -0.4731  1.0265  0.4621
17166TIP3   OH272912   6.737   1.028  16.905  0.1887  0.6514  0.4008
17166TIP3    H172913   6.796   1.019  16.979 -0.0703  0.9678  0.6482
17166TIP3    H272914   6.666   0.966  16.923 -0.5241  1.6280  1.0590
17167TIP3   OH272915   3.652   0.391  14.277 -0.6996 -0.5483 -0.4002
17167TIP3    H172916   3.665   0.364  14.186 -1.7382  0.2571 -0.8056
17167TIP3    H272917   3.566   0.357  14.300 -1.3824  1.0939 -0.4329
17168TIP3   OH272918   3.771   0.569   3.168  0.6663 -0.0149  0.1907
17168TIP3    H172919   3.813   0.611   3.244  0.2132  1.1052 -0.1644
17168TIP3    H272920   3.702   0.515   3.206  1.8553 -1.2448  0.7235
17169TIP3   OH272921   5.862   4.688  13.529 -0.3038  0.0099  0.3134
17169TIP3    H172922   5.931   4.662  13.469 -0.8472 -1.2025  0.1844
17169TIP3    H272923   5.875   4.782  13.541 -0.9094  0.5809 -2.6848
17170TIP3   OH272924   3.051   2.366   0.617 -0.3047 -0.6035  0.1116
17170TIP3    H172925   3.022   2.303   0.683  1.2215 -1.2425  0.2055
17170TIP3    H272926   3.068   2.446   0.666 -3.9678  0.5627 -0.2365
17171TIP3   OH272927   0.929   3.442  13.086  0.2969  0.2712 -0.1990
17171TIP3    H172928   0.917   3.487  13.169 -3.6330 -0.0220 -0.4017
17171TIP3    H272929   0.922   3.511  13.020 -2.0413 -0.0452 -0.3724
17172TIP3   OH272930   4.285   6.307  16.952  0.5366 -0.2331  0.4554
17172TIP3    H172931   4.201   6.262  16.943  1.2086 -1.3991 -0.4397
17172TIP3    H272932   4.287   6.337  17.042 -1.8262  1.9204 -0.0877
17173TIP3   OH272933   6.326   2.096   1.669  0.9637 -0.1088 -0.2042
17173TIP3    H172934   6.368   2.011   1.661  0.5015 -0.2027 -2.2276
17173TIP3    H272935   6.243   2.086   1.623  1.5191  1.8019 -1.7673
17174TIP3   OH272936   2.466   2.993  15.785 -0.6038 -0.1174  0.5239
17174TIP3    H172937   2.483   2.968  15.876 -1.6872  0.1957  0.8330
17174TIP3    H272938   2.370   2.995  15.779 -0.5430  1.1687 -0.2570
17175TIP3   OH272939   4.528   1.837   0.564 -0.2559  0.2016 -0.6032
17175TIP3    H172940   4.607   1.882   0.594 -0.8260 -0.0553  1.4672
17175TIP3    H272941   4.470   1.837   0.641 -1.3931 -1.5478 -1.3939
17176TIP3   OH272942   1.349   2.844  12.489  0.1614 -0.5690  0.5526
17176TIP3    H172943   1.408   2.833  12.415  0.9139  1.1637  0.8414
17176TIP3    H272944   1.399   2.813  12.564  1.7274  2.9606  1.1518
17177TIP3   OH272945   1.544   5.470  11.756 -0.1001 -0.0457  0.6579
17177TIP3    H172946   1.615   5.532  11.773 -0.1136  0.5258 -1.1174
17177TIP3    H272947   1.585   5.399  11.706 -0.8598  0.6258 -0.9998
17178TIP3   OH272948   3.168   2.813   6.177  0.5680  0.0454 -0.0732
17178TIP3    H172949   3.107   2.835   6.107  1.4541 -0.7688 -1.1484
17178TIP3    H272950   3.137   2.729   6.210 -0.3779  0.8513  1.1667
17179TIP3   OH272951   4.184   6.397   3.037 -0.2019 -0.1722  0.5583
17179TIP3    H172952   4.140   6.466   3.086 -0.5925 -0.2151  0.2683
17179TIP3    H272953   4.117   6.331   3.023  0.3527 -0.9497  1.4611
17180TIP3   OH272954   5.267   2.729  10.810 -0.1863 -0.7322 -0.1450
17180TIP3    H172955   5.284   2.645  10.767  0.1673 -0.0095 -1.4808
17180TIP3    H272956   5.290   2.794  10.744 -0.0588  0.4294  1.0169
17181TIP3   OH272957   5.414   6.168   2.388  0.1033 -0.4056 -0.0226
17181TIP3    H172958   5.435   6.114   2.464  2.2565  2.0350  1.2829
17181TIP3    H272959   5.367   6.243   2.423 -0.9026 -0.3169 -1.4583
17182TIP3   OH272960   3.098   0.304  14.518 -0.2822  0.3130  0.5049
17182TIP3    H172961   3.081   0.300  14.612 -0.6536 -1.5789  0.3973
17182TIP3    H272962   3.181   0.352  14.510 -1.1110  2.0160  1.6471
17183TIP3   OH272963   1.603   0.544  16.446 -0.6186 -0.1685  0.3163
17183TIP3    H172964   1.605   0.452  16.421 -2.1014  0.1757 -1.2548
17183TIP3    H272965   1.655   0.548  16.526 -1.5303 -2.5815  1.1236
17184TIP3   OH272966   0.970   2.025   2.024  0.5997 -0.2201  0.8598
17184TIP3    H172967   1.044   2.040   1.964  1.4599 -2.5625  1.2319
17184TIP3    H272968   0.956   2.110   2.066  0.4669  1.3447 -2.0260
17185TIP3   OH272969   3.195   3.251  12.082 -0.1369  0.1198  0.5137
17185TIP3    H172970   3.232   3.169  12.048 -0.1849  0.6027 -0.7826
17185TIP3    H272971   3.224   3.317  12.019 -0.7511  0.9760  1.1172
17186TIP3   OH272972   4.407   5.743  11.588  0.1640 -0.0758 -0.0627
17186TIP3    H172973   4.451   5.778  11.511  0.7050 -1.5589 -0.4569
17186TIP3    H272974   4.460   5.773  11.662 -0.6726  1.8401 -0.1627
17187TIP3   OH272975   1.590   6.398   3.770 -0.1792 -0.4600 -0.4954
17187TIP3    H172976   1.681   6.367   3.775 -0.1071 -0.0961  0.7500
17187TIP3    H272977   1.591   6.481   3.818 -1.0795 -0.2253 -0.8757
17188TIP3   OH272978   6.426   3.069   4.358  0.2040 -0.4180  0.1197
17188TIP3    H172979   6.404   2.978   4.335 -1.4903  0.4483 -1.9887
17188TIP3    H272980   6.522   3.071   4.355  0.2981 -2.1606  0.4023
17189TIP3   OH272981   6.456   1.931   0.037  0.2210  0.3596  0.2088
17189TIP3    H172982   6.470   1.879  -0.043  1.2149  2.0368 -0.7721
17189TIP3    H272983   6.416   1.869   0.099  0.3960 -1.2773 -1.2200
17190TIP3   OH272984   5.974   2.248   0.008  0.4110  0.0816  0.2794
17190TIP3    H172985   5.887   2.213  -0.012  0.0983 -0.2723  2.1141
17190TIP3    H272986   6.024   2.234  -0.072 -0.9315 -0.6324 -0.4713
17191TIP3   OH272987   4.824   5.739  16.768  0.4923 -0.0264 -0.1606
17191TIP3    H172988   4.761   5.810  16.758  0.7658  0.5252  1.6679
17191TIP3    H272989   4.771   5.664  16.797  0.2047 -0.6206 -2.0844
17192TIP3   OH272990   5.644   3.173   0.440  0.1140 -0.5084  0.1313
17192TIP3    H172991   5.559   3.154   0.399  0.4577 -1.1198 -0.3197
17192TIP3    H272992   5.691   3.089   0.437  1.0750  0.0351 -0.4422
17193TIP3   OH272993   3.294   1.849   4.881 -0.0050  0.4537 -0.4656
17193TIP3    H172994   3.273   1.921   4.823 -0.3420  0.9887  0.3111
17193TIP3    H272995   3.223   1.847   4.945  1.0054  0.7259  0.7216
17194TIP3   OH272996   5.569   1.422  13.922 -0.3374 -0.1161 -0.6390
17194TIP3    H172997   5.563   1.334  13.885 -2.6093 -0.0837 -0.4781
17194TIP3    H272998   5.510   1.421  13.998 -0.6945  1.6100 -0.8382
17195TIP3   OH272999   3.623   4.770  14.232  0.2025  0.1939 -0.0664
17195TIP3    H173000   3.626   4.795  14.140  0.2231  1.5633  0.2761
17195TIP3    H273001   3.635   4.675  14.232 -2.5444 -0.2752 -1.6471
17196TIP3   OH273002   3.212   1.292  14.635 -0.5107  0.1961  0.0043
17196TIP3    H173003   3.184   1.326  14.720 -2.2855  0.6497 -0.7316
17196TIP3    H273004   3.302   1.324  14.625  0.1511 -0.7745  2.1543
17197TIP3   OH273005   1.532   3.310   0.302  0.0510 -0.3274 -0.4688
17197TIP3    H173006   1.531   3.216   0.288  0.1654 -0.2975 -0.6935
17197TIP3    H273007   1.575   3.322   0.387 -0.5746 -0.5124 -0.1225
17198TIP3   OH273008   0.732   0.741   2.849 -0.5155 -0.1258  0.3559
17198TIP3    H173009   0.749   0.774   2.761 -1.6977 -1.7782 -0.5515
17198TIP3    H273010   0.765   0.651   2.848  0.1460  0.0618  1.8695
17199TIP3   OH273011   2.774   6.008   3.369  0.3784  0.9577 -0.4594
17199TIP3    H173012   2.853   5.956   3.355  0.3780  0.9488 -0.4295
17199TIP3    H273013   2.703   5.943   3.367  0.6127  0.4248  2.7199
17200TIP3   OH273014   1.255   3.808   4.566 -0.8249  0.4105  0.1011
17200TIP3    H173015   1.260   3.810   4.662  0.1338  0.2427  0.0602
17200TIP3    H273016   1.258   3.715   4.543  0.5779  0.4935 -0.1509
17201TIP3   OH273017   6.738   4.925  16.082 -0.3147 -0.7536  0.0667
17201TIP3    H173018   6.672   4.869  16.041  0.5880 -1.1535 -0.8884
17201TIP3    H273019   6.784   4.966  16.008  0.0296  0.0819  0.7266
17202TIP3   OH273020   3.502   6.113  12.061 -0.0277 -0.2411  0.1231
17202TIP3    H173021   3.557   6.066  12.123  0.6265 -0.6766 -0.7639
17202TIP3    H273022   3.418   6.123  12.106  0.6042 -0.0298  1.2931
17203TIP3   OH273023   4.396   6.019  12.743 -0.1976 -0.0602 -0.0884
17203TIP3    H173024   4.424   6.067  12.821 -0.7041  0.5047 -0.2524
17203TIP3    H273025   4.430   6.070  12.669  3.5105 -2.4552 -0.3090
17204TIP3   OH273026   4.475   3.527  11.598 -0.1701 -0.9864 -0.5150
17204TIP3    H173027   4.553   3.553  11.550 -0.7216  0.2432 -0.7937
17204TIP3    H273028   4.462   3.597  11.662 -2.5517  0.3446 -2.2750
17205TIP3   OH273029   2.464   4.937   1.497  0.6788  0.4171  0.2782
17205TIP3    H173030   2.492   4.851   1.464 -0.1684  0.5292 -0.7806
17205TIP3    H273031   2.467   4.928   1.592  0.3107 -0.8937  0.1857
17206TIP3   OH273032   3.944   3.754   2.238  0.4060 -0.6317  0.0739
17206TIP3    H173033   4.024   3.774   2.190  1.0938 -0.5363  1.2203
17206TIP3    H273034   3.885   3.717   2.173  0.4053  1.7209 -1.3903
17207TIP3   OH273035   0.028   1.480   1.100  0.9400 -0.3564  0.5776
17207TIP3    H173036   0.030   1.386   1.116  0.5653 -0.0154  3.0546
17207TIP3    H273037  -0.054   1.509   1.138  1.0559  0.9971 -0.1334
17208TIP3   OH273038   1.590   0.123   1.997 -0.0139  0.2023  0.4921
17208TIP3    H173039   1.528   0.076   1.940 -0.8040  0.5080  1.0757
17208TIP3    H273040   1.588   0.075   2.079 -0.3292  0.8528  0.8781
17209TIP3   OH273041   0.294   5.835  15.229  0.3869  0.2532  0.1261
17209TIP3    H173042   0.275   5.850  15.322  0.6020 -1.8258  0.5540
17209TIP3    H273043   0.232   5.891  15.183  0.1412  1.1793  1.5224
17210TIP3   OH273044   6.735   4.132  14.070 -0.6161 -0.4326 -0.4225
17210TIP3    H173045   6.687   4.128  13.987 -1.2385 -1.9652 -0.0308
17210TIP3    H273046   6.670   4.162  14.134 -0.2122  0.4723 -0.4293
17211TIP3   OH273047   1.638   3.910  11.626  0.0935 -0.1760 -0.1303
17211TIP3    H173048   1.711   3.966  11.599 -0.4426  0.7560  0.2960
17211TIP3    H273049   1.563   3.970  11.632 -0.0672 -0.5349  2.2833
17212TIP3   OH273050   1.918   2.611  15.988  0.4765 -0.2852 -0.2821
17212TIP3    H173051   1.985   2.570  16.042  0.0527 -0.1943  0.3265
17212TIP3    H273052   1.836   2.597  16.036  0.1098 -0.0690 -0.8244
17213TIP3   OH273053   1.620   1.537   1.417 -0.1051  0.1638 -0.3058
17213TIP3    H173054   1.664   1.620   1.433 -1.1030  0.8085 -0.7973
17213TIP3    H273055   1.683   1.486   1.365  1.1811 -0.0779  1.3913
17214TIP3   OH273056   1.792   6.234   3.879 -0.0116  0.2538 -0.1143
17214TIP3    H173057   1.869   6.288   3.867 -1.2335  1.5474 -2.8042
17214TIP3    H273058   1.767   6.248   3.971  2.1811  0.7511  0.4592
17215TIP3   OH273059   1.562   0.554  10.727  0.1475 -0.0947 -0.0284
17215TIP3    H173060   1.563   0.494  10.652  0.0519  0.9689 -0.9004
17215TIP3    H273061   1.647   0.597  10.723 -0.3499  0.8750 -0.2816
17216TIP3   OH273062   1.223   1.154  16.750  0.6254 -0.2493  0.0053
17216TIP3    H173063   1.191   1.103  16.676  2.3006 -2.0826  0.4420
17216TIP3    H273064   1.190   1.242  16.735 -2.2770 -1.3635 -0.9014
17217TIP3   OH273065   3.426   4.316  12.088  0.3241  0.6150 -0.4637
17217TIP3    H173066   3.414   4.226  12.120  0.4418  0.7883  0.0808
17217TIP3    H273067   3.367   4.368  12.141  2.7917  1.3793  1.7619
17218TIP3   OH273068   1.700   6.044  16.995 -0.0401 -0.0870 -0.2078
17218TIP3    H173069   1.706   5.988  17.072 -1.9181  0.6258  0.5125
17218TIP3    H273070   1.750   6.123  17.019  1.2638 -0.7475 -0.6243
17219TIP3   OH273071   5.906   3.950   3.084  0.0495  0.8253  0.3771
17219TIP3    H173072   5.888   4.014   3.153 -0.7016 -0.7625  1.6894
17219TIP3    H273073   5.843   3.972   3.015  0.0916  1.7595  0.6172
17220TIP3   OH273074   5.485   0.232  15.413  0.4899 -0.0149  0.6140
17220TIP3    H173075   5.535   0.155  15.387 -0.1422 -1.0482  2.2487
17220TIP3    H273076   5.421   0.245  15.343  1.3044 -0.2800 -0.2012
17221TIP3   OH273077   5.506   4.099  15.498  0.7917  0.2196  0.0101
17221TIP3    H173078   5.563   4.023  15.509  2.2213  1.3522  0.7092
17221TIP3    H273079   5.530   4.158  15.569 -1.7369  0.4900  0.7557
17222TIP3   OH273080   4.829   0.707   1.011 -0.4781  0.3185  0.6437
17222TIP3    H173081   4.871   0.684   0.928  0.8538  0.9367  1.1209
17222TIP3    H273082   4.754   0.760   0.986 -1.1165 -0.9448 -0.2382
17223TIP3   OH273083   0.540   1.376  10.889 -1.0368  0.1392  0.4798
17223TIP3    H173084   0.462   1.378  10.833  0.0479 -1.9901 -1.2420
17223TIP3    H273085   0.607   1.421  10.839 -1.2839  2.9616  2.4140
17224TIP3   OH273086   0.989   4.732   5.703 -0.2089 -0.1616 -0.0550
17224TIP3    H173087   1.028   4.681   5.632  0.6770 -0.3075  0.5335
17224TIP3    H273088   1.050   4.724   5.776  0.3677  2.3009 -0.1541
17225TIP3   OH273089   3.847   6.484   3.030  0.2602  0.1588  0.2700
17225TIP3    H173090   3.795   6.429   3.088 -2.0763  2.1653  0.2676
17225TIP3    H273091   3.906   6.531   3.088 -1.0328  1.0483  0.9359
17226TIP3   OH273092   5.364   4.906  12.700 -0.5116 -0.4148 -0.1176
17226TIP3    H173093   5.318   4.822  12.692 -1.6280  0.1961 -0.4096
17226TIP3    H273094   5.436   4.889  12.760 -0.1500 -1.8134 -0.9182
17227TIP3   OH273095   2.426   1.278  17.080  0.5572  0.0567 -0.6566
17227TIP3    H173096   2.510   1.234  17.068 -0.2834 -1.0238 -3.3946
17227TIP3    H273097   2.392   1.244  17.163  1.7707 -1.3167 -0.6865
17228TIP3   OH273098   2.704   4.676   5.831 -0.0111  0.2811  0.0511
17228TIP3    H173099   2.742   4.751   5.877 -1.2899  1.3236 -0.5350
17228TIP3    H273100   2.612   4.698   5.819 -0.0360 -0.5676 -1.7374
17229TIP3   OH273101   0.656   0.289   2.468  0.4181 -0.4817  0.2273
17229TIP3    H173102   0.747   0.319   2.459  0.4185 -0.9046 -1.5426
17229TIP3    H273103   0.619   0.299   2.381 -0.3094 -3.2623  0.1225
17230TIP3   OH273104   1.244   0.900  10.780  0.0704 -0.8353 -0.2633
17230TIP3    H173105   1.200   0.821  10.750  0.5389 -2.0567  2.0951
17230TIP3    H273106   1.234   0.900  10.875  1.9867  0.7722  0.0224
17231TIP3   OH273107   2.019   0.819   0.785 -0.2499  0.2231  0.0904
17231TIP3    H173108   2.001   0.779   0.870 -0.6242  0.9839  0.3788
17231TIP3    H273109   2.070   0.754   0.738 -1.6844 -1.0292  0.1773
17232TIP3   OH273110   2.345   3.630  11.371 -0.2175 -0.5633 -0.0074
17232TIP3    H173111   2.329   3.703  11.311  2.0894 -1.4142 -1.7820
17232TIP3    H273112   2.409   3.575  11.327 -0.5517 -2.7821  2.0406
17233TIP3   OH273113   1.475   3.130   6.491  0.1518  0.1580  0.8032
17233TIP3    H173114   1.465   3.044   6.531  0.5343  0.2510  1.1060
17233TIP3    H273115   1.400   3.139   6.433  0.4792 -0.6750  0.2318
17234TIP3   OH273116   4.355   6.069   6.192 -0.8992  0.1928  0.3785
17234TIP3    H173117   4.396   6.151   6.219 -1.5184  1.1354 -1.3657
17234TIP3    H273118   4.275   6.064   6.245 -1.2094  1.0881  0.0114
17235TIP3   OH273119   2.480   6.397  13.507  0.4489  0.1035 -0.4129
17235TIP3    H173120   2.431   6.324  13.471  3.2323 -1.6925 -0.8815
17235TIP3    H273121   2.437   6.475  13.470 -1.2849 -1.3526 -1.6750
17236TIP3   OH273122   0.687   2.467   2.378  0.6506 -0.0871 -0.0417
17236TIP3    H173123   0.597   2.445   2.357 -0.1978  1.2820  1.8458
17236TIP3    H273124   0.723   2.387   2.417  0.2178 -0.5986 -0.6750
17237TIP3   OH273125   6.053   2.504   1.348  0.2615  0.4609 -0.3668
17237TIP3    H173126   5.967   2.477   1.315  0.3452 -0.7611  0.3622
17237TIP3    H273127   6.039   2.594   1.379 -0.7388  0.3121 -0.3354
17238TIP3   OH273128   3.217   3.459  14.320  0.4437  0.1834  0.1766
17238TIP3    H173129   3.279   3.440  14.249  1.7641 -1.4557  1.6663
17238TIP3    H273130   3.268   3.451  14.400 -1.6420 -1.1343  1.4896
17239TIP3   OH273131   3.120   2.022  17.167  0.1043  0.3020  0.4378
17239TIP3    H173132   3.191   2.056  17.222  0.4854 -0.0527  0.1732
17239TIP3    H273133   3.096   1.939  17.208  0.6571 -0.1560 -0.1405
17240TIP3   OH273134   3.671   0.591   0.085 -0.3202  0.4180 -0.1322
17240TIP3    H173135   3.605   0.636   0.137  0.0565 -0.8430  1.4993
17240TIP3    H273136   3.731   0.660   0.058 -0.8365  1.1879  0.6323
17241TIP3   OH273137   2.297   3.088   0.259  0.0279  0.0684  0.3099
17241TIP3    H173138   2.295   2.998   0.291  0.6228 -0.0878 -0.0693
17241TIP3    H273139   2.212   3.101   0.216  1.6888 -2.0360 -4.1586
17242TIP3   OH273140   5.247   0.784   5.927 -0.0868 -0.5296 -0.1564
17242TIP3    H173141   5.288   0.869   5.909  2.1693 -1.5965 -0.2742
17242TIP3    H273142   5.211   0.793   6.015  0.6810  0.3428  0.0796
17243TIP3   OH273143   0.903   0.715   5.596  0.3723  0.1554  0.4136
17243TIP3    H173144   0.873   0.779   5.661  1.1038  0.0638  0.8463
17243TIP3    H273145   0.843   0.727   5.522  1.7951  2.9405 -0.4363
17244TIP3   OH273146   2.285   4.137  12.711 -0.4607 -0.5333  0.2393
17244TIP3    H173147   2.361   4.085  12.685  1.5866  1.7016  1.3431
17244TIP3    H273148   2.212   4.098  12.663  1.7906 -1.2310 -2.9506
17245TIP3   OH273149   6.722   1.244   0.022  0.1143 -0.5015 -0.3870
17245TIP3    H173150   6.682   1.299   0.090  1.2307  0.2234 -0.2833
17245TIP3    H273151   6.652   1.232  -0.042 -0.4275  0.3149  0.0165
17246TIP3   OH273152   3.186   6.589   3.961 -0.5465  0.4350  0.1530
17246TIP3    H173153   3.103   6.617   3.923 -1.8138 -2.4460  0.5363
17246TIP3    H273154   3.227   6.537   3.892 -1.8575 -2.9888  1.7026
17247TIP3   OH273155   6.493   0.580   5.767 -0.0228 -0.5823 -0.5717
17247TIP3    H173156   6.549   0.504   5.780  0.3180 -0.3329 -0.5498
17247TIP3    H273157   6.468   0.578   5.675  1.1714  0.0711 -0.9313
17248TIP3   OH273158   0.232   1.060  15.886  0.0877 -0.2453  0.2731
17248TIP3    H173159   0.177   1.031  15.959  0.8281 -0.6334  0.6817
17248TIP3    H273160   0.288   1.128  15.924  0.8388 -0.8124  0.2102
17249TIP3   OH273161   6.208   3.422   0.714 -0.0310  0.2323  0.3801
17249TIP3    H173162   6.247   3.431   0.801  0.1831  1.0776  0.2074
17249TIP3    H273163   6.144   3.351   0.723  1.0931 -0.7635  0.8317
17250TIP3   OH273164   3.310   3.597  14.936 -0.1152 -0.1777  0.0521
17250TIP3    H173165   3.330   3.518  14.987 -0.5196 -0.3487 -0.0490
17250TIP3    H273166   3.271   3.564  14.855 -0.4395  0.1340  0.0817
17251TIP3   OH273167   5.214   5.487   1.301  0.2736 -0.5422  0.1406
17251TIP3    H173168   5.137   5.480   1.357  0.2700 -0.9993  0.0791
17251TIP3    H273169   5.252   5.572   1.324 -0.8316  0.1696 -0.5909
17252TIP3   OH273170   2.368   2.272   1.867 -0.0021  0.1441 -0.2903
17252TIP3    H173171   2.437   2.332   1.895 -1.6080  1.4055  1.1893
17252TIP3    H273172   2.399   2.186   1.895  1.6269  0.4653 -1.0203
17253TIP3   OH273173   5.699   6.514  11.874  0.0018  0.0235 -0.4217
17253TIP3    H173174   5.634   6.557  11.931  0.5005 -1.1807  1.1222
17253TIP3    H273175   5.741   6.450  11.931  2.1460  0.3559 -1.5587
17254TIP3   OH273176   5.005   4.565   2.064 -0.2684  0.6795 -0.4714
17254TIP3    H173177   5.018   4.532   1.976  1.5737 -0.6356  0.2335
17254TIP3    H273178   5.085   4.614   2.084 -0.7711  1.1873  0.3695
17255TIP3   OH273179   4.958   2.284   6.250 -0.0564 -0.9138 -0.8125
17255TIP3    H173180   4.878   2.260   6.297  0.0746 -2.1986 -1.1994
17255TIP3    H273181   4.963   2.379   6.258 -0.9848 -0.9345  0.2265
17256TIP3   OH273182   0.445   1.110  10.961  0.0456  0.1423  0.0523
17256TIP3    H173183   0.370   1.153  10.920 -1.3986 -1.0962  1.2925
17256TIP3    H273184   0.519   1.169  10.943 -1.0175  0.9529 -1.9655
17257TIP3   OH273185   2.381   2.884   4.175 -0.1752 -0.1425 -0.0973
17257TIP3    H173186   2.388   2.968   4.129 -0.2578  0.3852  0.8303
17257TIP3    H273187   2.308   2.896   4.235 -1.9420 -1.7760 -1.7638
17258TIP3   OH273188   4.263   2.108  11.280  0.5363 -0.2465 -0.1060
17258TIP3    H173189   4.172   2.092  11.254  0.0115  0.6110  1.0825
17258TIP3    H273190   4.280   2.199  11.254  1.2735 -0.5932 -0.8831
17259TIP3   OH273191   3.116   3.583  11.645 -0.5961 -0.7501 -0.0740
17259TIP3    H173192   3.053   3.554  11.579 -1.7906  0.9515  0.2335
17259TIP3    H273193   3.197   3.537  11.624 -1.4154 -1.5243 -1.6805
17260TIP3   OH273194   1.075   4.290  15.683  0.2738 -0.0739  0.4245
17260TIP3    H173195   1.005   4.314  15.622  0.0279  1.2424  1.1779
17260TIP3    H273196   1.030   4.246  15.755  0.1795  0.9130  0.9840
17261TIP3   OH273197   0.644   5.023  15.398  0.4477 -0.1172 -0.6258
17261TIP3    H173198   0.564   5.066  15.428 -1.4200 -2.0997 -2.4637
17261TIP3    H273199   0.660   5.059  15.311  1.4636  0.0897 -0.3705
17262TIP3   OH273200   2.251   0.451  13.905 -0.7841 -0.5002 -0.1042
17262TIP3    H173201   2.270   0.482  13.994 -1.2201 -1.6270  0.3962
17262TIP3    H273202   2.313   0.380  13.890  0.3788  0.7070 -1.3439
17263TIP3   OH273203   3.907   2.670  16.933 -0.6266 -0.0100  0.3879
17263TIP3    H173204   3.905   2.715  17.017 -1.2686 -0.3161  0.5401
17263TIP3    H273205   3.994   2.688  16.898 -0.8981  1.4278  0.3999
17264TIP3   OH273206   2.576   3.436   5.811  0.2030 -0.0832 -0.5076
17264TIP3    H173207   2.606   3.365   5.754  0.8428 -0.9345  0.8458
17264TIP3    H273208   2.532   3.497   5.752  2.6925  0.1437 -2.2917
17265TIP3   OH273209   3.760   5.307  12.012 -0.1536  0.4806 -0.1056
17265TIP3    H173210   3.849   5.323  11.979 -0.0419  1.3094  0.5445
17265TIP3    H273211   3.746   5.214  11.998  1.3022  0.0640  0.8566
17266TIP3   OH273212   1.163   6.533  15.005  0.2342 -0.4856 -0.4949
17266TIP3    H173213   1.189   6.558  14.916  0.6535 -0.8161 -0.4663
17266TIP3    H273214   1.235   6.480  15.038 -0.3868 -1.2689 -0.3497
17267TIP3   OH273215   5.628   2.224   1.463 -0.5924  0.1045  0.1338
17267TIP3    H173216   5.556   2.199   1.406 -0.2389  2.5538 -1.5290
17267TIP3    H273217   5.585   2.266   1.538 -0.9625  0.0388 -0.0396
17268TIP3   OH273218   5.850   1.179  10.677  0.5513 -0.2124 -0.2895
17268TIP3    H173219   5.811   1.208  10.595 -1.3664  1.8802  1.2102
17268TIP3    H273220   5.929   1.234  10.687 -0.0802  0.6738 -0.0364
17269TIP3   OH273221   5.010   0.114  16.400  0.3558 -0.6356 -0.0736
17269TIP3    H173222   4.952   0.102  16.475 -0.4805 -0.8344 -0.7460
17269TIP3    H273223   5.003   0.207  16.379  0.2084 -0.6830 -0.2260
17270TIP3   OH273224   5.030   4.841  14.245  0.0236  0.1660 -0.2786
17270TIP3    H173225   5.097   4.896  14.203  0.3511  0.7948  1.0077
17270TIP3    H273226   4.994   4.896  14.314 -0.3218 -0.9054  0.4245
17271TIP3   OH273227   0.987   4.328   0.520 -0.4614 -0.3387  0.2319
17271TIP3    H173228   0.912   4.320   0.578 -1.7512  0.9652 -1.1599
17271TIP3    H273229   1.032   4.406   0.549  0.6651 -1.3701  1.3524
17272TIP3   OH273230   4.949   3.310  11.131  0.1900  0.5236 -0.0378
17272TIP3    H173231   5.034   3.274  11.106 -0.3088  0.6630 -2.0988
17272TIP3    H273232   4.888   3.237  11.123  0.1036  0.3855  1.5812
17273TIP3   OH273233   4.242   3.687  16.023 -0.4093  0.0808  0.7501
17273TIP3    H173234   4.157   3.730  16.029 -1.9773 -2.7072  0.2158
17273TIP3    H273235   4.262   3.662  16.114 -2.1308 -2.5950  0.4968
17274TIP3   OH273236   6.497   5.819   1.096 -0.3337 -0.4298 -0.0085
17274TIP3    H173237   6.416   5.773   1.120 -0.4501  1.2547  3.3514
17274TIP3    H273238   6.566   5.756   1.115 -0.6992 -0.8234  0.0448
17275TIP3   OH273239   5.055   6.429   5.260  0.1327  0.4681  0.0912
17275TIP3    H173240   4.965   6.422   5.291 -0.2177  0.4621 -0.8809
17275TIP3    H273241   5.047   6.429   5.164  1.2170 -0.2911 -0.0131
17276TIP3   OH273242   1.705   1.710   0.563  0.3456 -0.7409 -0.1890
17276TIP3    H173243   1.669   1.756   0.487  0.3076  0.6203  0.6273
17276TIP3    H273244   1.633   1.656   0.595 -0.1743  0.0179 -0.0817
17277TIP3   OH273245   2.231   6.043   0.468 -0.1748 -0.5010  0.8514
17277TIP3    H173246   2.174   5.970   0.491  1.5877 -2.0069  0.6545
17277TIP3    H273247   2.319   6.012   0.486  0.6757  1.4603  0.3920
17278TIP3   OH273248   5.674   2.006   2.258 -0.3491 -0.2011 -0.3172
17278TIP3    H173249   5.751   2.062   2.261 -0.1940 -0.4463  0.2100
17278TIP3    H273250   5.685   1.944   2.329 -0.0289 -1.5677 -1.5143
17279TIP3   OH273251   4.913   4.319   4.913  0.0336 -0.5047 -0.0910
17279TIP3    H173252   4.878   4.357   4.832  0.6828  2.8743  1.0437
17279TIP3    H273253   4.983   4.261   4.884 -0.4538 -0.2095 -1.9997
17280TIP3   OH273254   4.897   1.870  14.382 -0.2561 -0.0181  0.1703
17280TIP3    H173255   4.901   1.881  14.477  0.0074 -1.2183  0.3246
17280TIP3    H273256   4.804   1.862  14.363 -0.2958 -0.0647  0.3773
17281TIP3   OH273257   1.281   2.421   1.626 -0.3217 -0.0406  0.0279
17281TIP3    H173258   1.283   2.516   1.611  0.6203 -0.2622 -1.4611
17281TIP3    H273259   1.324   2.384   1.549 -0.0620 -1.6519  0.9137
17282TIP3   OH273260   3.244   1.554  15.741 -0.1324  0.0720  0.3111
17282TIP3    H173261   3.240   1.646  15.714  0.3631  0.5078  1.6207
17282TIP3    H273262   3.334   1.542  15.770  0.4686 -1.4927 -1.9657
17283TIP3   OH273263   2.980   0.576  14.002  0.4086 -0.2874 -0.3484
17283TIP3    H173264   2.959   0.487  14.031 -1.8418  0.6409  1.1879
17283TIP3    H273265   2.987   0.627  14.083  0.4987  1.1652 -1.2329
17284TIP3   OH273266   0.378   3.746   1.190 -0.2622 -0.0474 -0.3338
17284TIP3    H173267   0.458   3.718   1.144  0.2292  0.3932  0.2544
17284TIP3    H273268   0.322   3.668   1.188  0.6539 -0.7382  0.2961
17285TIP3   OH273269   6.396   2.671   1.162  0.3961 -0.0599 -0.6788
17285TIP3    H173270   6.410   2.760   1.193  0.3628 -0.7100  1.4165
17285TIP3    H273271   6.483   2.631   1.164  0.5056  0.0696 -2.1816
17286TIP3   OH273272   1.900   1.834  16.589  0.1448  0.3172 -0.3398
17286TIP3    H173273   1.868   1.744  16.577  2.5012 -0.6892  0.1972
17286TIP3    H273274   1.872   1.857  16.678  1.0322 -0.6139  0.2033
17287TIP3   OH273275   0.024   4.676  16.428  0.0321 -0.4641  0.0721
17287TIP3    H173276   0.016   4.603  16.367 -1.4160 -0.1960 -0.1028
17287TIP3    H273277   0.091   4.732  16.390  1.6830 -2.0075  0.5628
17288TIP3   OH273278   1.681   2.988  15.290  0.1734 -0.6673  0.4275
17288TIP3    H173279   1.631   3.042  15.351 -1.3441 -0.8669 -0.5661
17288TIP3    H273280   1.621   2.917  15.266  0.8575 -0.8221 -0.9661
17289TIP3   OH273281   3.454   0.746  14.534  0.8955 -0.0402 -0.2554
17289TIP3    H173282   3.455   0.700  14.618  1.0428 -0.4785 -0.4999
17289TIP3    H273283   3.447   0.839  14.558  0.6296 -0.1843  0.2327
17290TIP3   OH273284   2.121   4.720  11.137  0.1369 -0.4925  0.5123
17290TIP3    H173285   2.145   4.632  11.107  2.0545  0.6952 -1.7235
17290TIP3    H273286   2.043   4.742  11.087  1.7534  0.4022 -1.7973
17291TIP3   OH273287   6.316   2.792   4.340  0.4244  0.7292 -0.2323
17291TIP3    H173288   6.370   2.722   4.378  0.0016 -0.5696 -1.9031
17291TIP3    H273289   6.296   2.762   4.251 -0.8755  2.3917 -0.5611
17292TIP3   OH273290   2.966   4.636   6.358 -0.3540  0.3718  0.1220
17292TIP3    H173291   3.014   4.717   6.376 -1.2084  1.0000 -0.3375
17292TIP3    H273292   2.976   4.583   6.437 -0.8692  1.4725  0.9458
17293TIP3   OH273293   6.100   2.741   0.138 -0.5238  0.3361 -0.2225
17293TIP3    H173294   6.047   2.796   0.196 -0.9830 -0.5623  0.2164
17293TIP3    H273295   6.045   2.665   0.119  0.0782  0.0511 -0.8864
17294TIP3   OH273296   3.579   2.561   3.585  0.4348  0.2475 -0.3683
17294TIP3    H173297   3.552   2.486   3.531 -1.1669  0.1673  0.4780
17294TIP3    H273298   3.570   2.529   3.675  1.9021  0.7707 -0.0019
17295TIP3   OH273299   2.372   6.029  12.741 -0.5693  0.1759 -0.1244
17295TIP3    H173300   2.326   5.984  12.812 -1.1518 -0.7865 -1.0953
17295TIP3    H273301   2.455   5.983  12.732  0.1157  1.1570  0.8126
17296TIP3   OH273302   2.141   6.265  13.528 -0.4261 -0.0951 -0.3678
17296TIP3    H173303   2.140   6.194  13.592  1.0480 -0.7862 -1.0728
17296TIP3    H273304   2.122   6.343  13.580  0.6008 -0.6539  0.9173
17297TIP3   OH273305   1.493   5.707   4.902 -0.1171 -0.2866 -0.1725
17297TIP3    H173306   1.587   5.699   4.918  0.2110  1.7414 -0.7236
17297TIP3    H273307   1.463   5.772   4.965 -1.1203 -0.7558 -0.1421
17298TIP3   OH273308   0.182   5.305  13.533  0.6977  0.4982 -0.2955
17298TIP3    H173309   0.218   5.288  13.620 -1.5488  1.8892  0.9662
17298TIP3    H273310   0.216   5.391  13.509 -1.2856  1.6100  0.7019
17299TIP3   OH273311   6.335   4.189   0.364  0.2833  0.0901  0.5444
17299TIP3    H173312   6.254   4.204   0.412 -0.4490 -1.0874 -0.2798
17299TIP3    H273313   6.392   4.144   0.426  0.0653  0.3078  0.9063
17300TIP3   OH273314   2.121   0.993   2.279 -0.3300  0.2526 -0.0197
17300TIP3    H173315   2.182   0.970   2.208 -0.6925 -2.6387  0.4536
17300TIP3    H273316   2.036   1.002   2.235 -0.3724 -0.5169 -0.1173
17301TIP3   OH273317   5.299   3.880  14.961 -0.6175 -0.6353 -0.2844
17301TIP3    H173318   5.211   3.913  14.977 -0.0591  1.2457 -0.8851
17301TIP3    H273319   5.337   3.869  15.049 -1.0991 -0.4995 -0.0578
17302TIP3   OH273320   0.734   5.771  15.033 -0.2050  0.3441  0.0767
17302TIP3    H173321   0.755   5.679  15.021 -0.7803 -0.0576  1.8137
17302TIP3    H273322   0.639   5.774  15.037 -0.1643  0.7806  1.3858
17303TIP3   OH273323   1.213   0.542  12.336 -0.2085  0.5087  0.7315
17303TIP3    H173324   1.207   0.448  12.320  0.3224  0.3735  1.2931
17303TIP3    H273325   1.180   0.583  12.255  2.6577 -0.1351 -0.9037
17304TIP3   OH273326   2.829   3.186  12.325 -0.0927  0.6519  0.4713
17304TIP3    H173327   2.857   3.243  12.396  3.5209  0.6262 -0.7325
17304TIP3    H273328   2.888   3.207  12.252 -0.7384 -2.3281 -1.0951
17305TIP3   OH273329   3.371   4.364  15.697  0.2389  0.3489  0.1249
17305TIP3    H173330   3.370   4.297  15.765  1.0929  1.6694  1.5060
17305TIP3    H273331   3.363   4.315  15.615 -0.5316 -1.3151  1.1372
17306TIP3   OH273332   0.283   1.185   2.936 -0.8000 -0.2451  0.1497
17306TIP3    H173333   0.323   1.107   2.898 -0.9308 -0.6404  0.8064
17306TIP3    H273334   0.232   1.152   3.010 -2.5907  0.2000 -0.8221
17307TIP3   OH273335   1.259   0.185   1.421 -0.3201  0.2790  0.3945
17307TIP3    H173336   1.239   0.227   1.337 -2.6040  1.1081  1.2525
17307TIP3    H273337   1.308   0.107   1.398 -0.8082  0.5228 -1.7101
17308TIP3   OH273338   1.119   1.688  16.160 -0.2824  0.0521 -0.1762
17308TIP3    H173339   1.043   1.735  16.195 -1.5242 -2.3326  0.6010
17308TIP3    H273340   1.190   1.752  16.161 -2.2295  2.3985 -0.9025
17309TIP3   OH273341   3.296   0.057   0.771 -0.2686 -0.2866  0.0566
17309TIP3    H173342   3.298   0.087   0.861  2.7436 -0.1976  0.0762
17309TIP3    H273343   3.203   0.054   0.748 -1.0219  1.7509  2.4340
17310TIP3   OH273344   4.455   2.718  14.725 -0.3260 -0.0278 -0.5732
17310TIP3    H173345   4.517   2.675  14.784 -1.3065 -0.4510  0.1772
17310TIP3    H273346   4.448   2.807  14.759  0.2494  0.1737 -0.9699
17311TIP3   OH273347   1.134   3.065   1.165 -0.2922 -0.3013  0.5160
17311TIP3    H173348   1.081   3.059   1.086 -2.0134 -1.0678  1.6729
17311TIP3    H273349   1.141   3.158   1.184  0.8144 -0.0598 -0.9405
17312TIP3   OH273350   5.279   4.860   4.439 -0.1490  0.0451 -0.1582
17312TIP3    H173351   5.217   4.794   4.469 -0.1871  0.2543  0.2338
17312TIP3    H273352   5.343   4.812   4.388 -1.3135 -0.0244 -1.6479
17313TIP3   OH273353   4.370   5.751  15.959 -0.0568  0.4819  0.1963
17313TIP3    H173354   4.388   5.790  15.874 -1.1793  0.2515 -0.1656
17313TIP3    H273355   4.324   5.819  16.008 -1.2039 -0.0636 -0.1096
17314TIP3   OH273356   2.654   5.445  16.628  0.0083  0.5345  0.4387
17314TIP3    H173357   2.647   5.385  16.553 -0.1982  0.6318  0.3804
17314TIP3    H273358   2.712   5.400  16.689 -1.0098 -0.2191  0.8683
17315TIP3   OH273359   2.948   2.759   2.844  0.5246  0.1551 -0.1846
17315TIP3    H173360   2.931   2.690   2.780 -0.3476  1.1146 -1.0210
17315TIP3    H273361   2.879   2.750   2.909 -0.2747  0.9179 -0.9004
17316TIP3   OH273362   3.858   4.748   2.752  0.8866  0.0949 -0.2231
17316TIP3    H173363   3.903   4.781   2.674  0.1090  1.0946 -0.2622
17316TIP3    H273364   3.925   4.698   2.799  1.1330 -1.3907 -2.0187
17317TIP3   OH273365   0.867   0.147  15.607 -0.4751  0.3454  0.3334
17317TIP3    H173366   0.798   0.110  15.661 -1.6716  1.3821 -0.4238
17317TIP3    H273367   0.938   0.083  15.610 -1.9246 -1.3227  0.1604
17318TIP3   OH273368   5.538   5.702   6.490 -0.8300 -0.1510  0.0810
17318TIP3    H173369   5.520   5.792   6.517  0.0889  0.3507 -0.9266
17318TIP3    H273370   5.451   5.663   6.480 -1.2476 -0.2051  3.0582
17319TIP3   OH273371   4.830   4.729  12.382 -0.4503 -0.3565 -0.1743
17319TIP3    H173372   4.892   4.796  12.352  0.1390 -0.2500  1.2412
17319TIP3    H273373   4.853   4.651  12.331  1.0527 -0.3963  0.5117
17320TIP3   OH273374   2.147   6.132   4.946  0.5447  0.0644  0.2245
17320TIP3    H173375   2.077   6.185   4.909  1.0626  1.7442  1.5051
17320TIP3    H273376   2.221   6.146   4.887  0.7109  0.9015  0.6135
17321TIP3   OH273377   6.752   3.297   2.071  0.6671 -0.4474  0.0280
17321TIP3    H173378   6.835   3.266   2.035  1.0978 -0.1792  0.7724
17321TIP3    H273379   6.712   3.347   2.000  0.7393 -1.2777 -0.6219
17322TIP3   OH273380   1.017   4.009   4.988  0.2594  0.1530 -0.6172
17322TIP3    H173381   1.003   3.968   5.074  0.3376  0.7350 -0.3214
17322TIP3    H273382   0.929   4.034   4.959  0.3322  0.8367 -0.2591
17323TIP3   OH273383   1.480   5.519  17.285 -0.3742  0.1746  0.0120
17323TIP3    H173384   1.515   5.431  17.271  1.3241  0.8691 -0.3202
17323TIP3    H273385   1.443   5.517  17.373  1.1821 -0.4190  0.6892
17324TIP3   OH273386   1.805   4.177   2.585  0.0059 -0.3552  0.5027
17324TIP3    H173387   1.734   4.175   2.520  0.9732  1.2738 -0.6916
17324TIP3    H273388   1.794   4.096   2.635 -0.3849 -2.0273 -2.1069
17325TIP3   OH273389   6.078   3.389   4.148  0.1085 -0.3883  0.2539
17325TIP3    H173390   5.983   3.391   4.153  0.1294  1.0669  0.4534
17325TIP3    H273391   6.097   3.341   4.068 -0.8873  1.8980 -1.4542
17326TIP3   OH273392   5.335   5.110   4.492 -0.1055 -0.3429  0.3498
17326TIP3    H173393   5.345   5.019   4.463 -1.4892 -0.3389 -0.2026
17326TIP3    H273394   5.242   5.129   4.481  0.1006  1.0380  0.7902
17327TIP3   OH273395   5.772   4.535  12.454  0.6181 -0.1104  0.9985
17327TIP3    H173396   5.761   4.440  12.462 -2.3297  0.2602  2.9505
17327TIP3    H273397   5.799   4.563  12.541 -0.9305  1.0261  1.1616
17328TIP3   OH273398   5.772   6.728   4.080  0.0373 -0.4702  0.0401
17328TIP3    H173399   5.860   6.694   4.064 -0.2071 -1.4135  0.6412
17328TIP3    H273400   5.732   6.733   3.993  1.0897  1.1922 -0.4089
17329TIP3   OH273401   2.506   2.767   6.286 -0.2528 -0.3739  0.3569
17329TIP3    H173402   2.558   2.693   6.315  0.6821  0.2875  0.3850
17329TIP3    H273403   2.556   2.805   6.214  0.2988  1.4207  1.6200
17330TIP3   OH273404   0.399   6.713   0.970 -0.3076 -0.5880  0.1721
17330TIP3    H173405   0.438   6.701   0.883  0.5639  1.3386  0.2336
17330TIP3    H273406   0.340   6.788   0.960  1.7950  1.4415  1.7351
17331TIP3   OH273407   3.989   4.896   0.365 -0.0193 -0.5564  0.4847
17331TIP3    H173408   3.972   4.809   0.400 -3.2142 -0.3932 -0.3962
17331TIP3    H273409   3.984   4.955   0.441  2.8042 -1.0941  1.1955
17332TIP3   OH273410   0.127   3.046  11.561  0.4210 -0.4029 -1.0630
17332TIP3    H173411   0.197   3.078  11.503  0.5775  2.4773  0.5717
17332TIP3    H273412   0.083   3.125  11.592 -1.1197 -1.9678  0.9767
17333TIP3   OH273413   4.008   3.359   2.278 -0.5936  0.6212  0.5663
17333TIP3    H173414   4.081   3.411   2.312 -0.9106  0.4166  1.6030
17333TIP3    H273415   3.975   3.410   2.204  0.0442  1.1481  0.6292
17334TIP3   OH273416   3.962   5.832   1.404  0.1492  0.1376 -0.1935
17334TIP3    H173417   3.888   5.865   1.353  0.8631  0.0015 -1.3312
17334TIP3    H273418   4.017   5.909   1.420 -0.0091  0.1580  0.2979
17335TIP3   OH273419   0.645   0.480  15.905 -0.4917  0.0835  0.5196
17335TIP3    H173420   0.551   0.486  15.890 -0.8281 -1.8910  1.4224
17335TIP3    H273421   0.656   0.508  15.996 -0.0525  1.2411  0.1225
17336TIP3   OH273422   3.171   1.712   1.757  0.3627  0.1899  0.3351
17336TIP3    H173423   3.140   1.621   1.757 -0.3147  0.3211 -2.6005
17336TIP3    H273424   3.159   1.741   1.667  1.8226  2.7980  0.8898
17337TIP3   OH273425   3.837   3.613   6.603  0.1346 -0.5075  0.3449
17337TIP3    H173426   3.846   3.705   6.627  1.0141 -0.7980  1.1810
17337TIP3    H273427   3.808   3.615   6.511  0.0003  0.5938  0.4023
17338TIP3   OH273428   5.459   3.456  13.338  0.3103  0.0092  0.0771
17338TIP3    H173429   5.453   3.462  13.243  0.5296 -0.2675  0.0437
17338TIP3    H273430   5.468   3.362  13.356  1.1828  0.1234  0.3086
17339TIP3   OH273431   5.088   4.310   2.265 -0.2087  0.7030 -0.6090
17339TIP3    H173432   5.048   4.224   2.277 -0.2596  0.7035 -0.7752
17339TIP3    H273433   5.028   4.356   2.207 -0.2138  0.8741 -0.4666
17340TIP3   OH273434   5.877   4.808   6.339  0.4010  0.4277  0.2385
17340TIP3    H173435   5.890   4.731   6.394  2.2435  0.8031  0.3945
17340TIP3    H273436   5.964   4.829   6.305 -0.1414  2.1284 -0.2266
17341TIP3   OH273437   3.216   2.494   0.081 -0.0247  0.2229 -0.2751
17341TIP3    H173438   3.185   2.510   0.170  0.2960  0.6987 -0.2449
17341TIP3    H273439   3.137   2.494   0.027 -0.0232  2.2214 -0.3237
17342TIP3   OH273440   3.864   1.448  16.629 -0.2088  0.1109 -0.8762
17342TIP3    H173441   3.880   1.536  16.665 -0.8544 -0.9035  2.1898
17342TIP3    H273442   3.952   1.410  16.622 -0.0951  0.1182  0.3224
17343TIP3   OH273443   6.073   2.042   1.496 -0.2872  0.1066  0.3352
17343TIP3    H173444   6.112   1.955   1.486  0.3289  0.3164  0.7962
17343TIP3    H273445   5.979   2.029   1.484 -0.1773 -0.5915  0.2255
17344TIP3   OH273446   5.890   5.639   3.171 -0.4885  0.0265  0.5049
17344TIP3    H173447   5.890   5.702   3.099  0.0846 -0.3919  0.1355
17344TIP3    H273448   5.863   5.557   3.132  0.7726 -0.4327  0.5481
17345TIP3   OH273449   1.719   6.165   5.496 -1.5071 -0.1183 -0.6578
17345TIP3    H173450   1.680   6.085   5.531  0.5262 -1.4216 -1.2029
17345TIP3    H273451   1.779   6.195   5.565 -2.7457  1.3653 -0.1758
17346TIP3   OH273452   1.924   3.228   5.770  0.8377  0.5086 -0.2446
17346TIP3    H173453   1.845   3.200   5.723 -0.2035  1.0216  1.1545
17346TIP3    H273454   1.990   3.164   5.743 -1.1834 -2.9595  2.1008
17347TIP3   OH273455   1.230   5.606  12.766 -0.6569 -0.2647 -0.1092
17347TIP3    H173456   1.186   5.593  12.682  2.9867  0.8495 -2.3826
17347TIP3    H273457   1.306   5.548  12.762 -0.1975  0.0724  2.3331
17348TIP3   OH273458   0.454   1.560   0.713  0.1487  0.5148  0.0610
17348TIP3    H173459   0.361   1.579   0.701  0.1446  1.2750  1.1874
17348TIP3    H273460   0.463   1.468   0.689 -0.7238  0.6600 -0.8889
17349TIP3   OH273461   3.966   1.720  10.413 -0.0047  0.5292  0.1623
17349TIP3    H173462   4.012   1.652  10.363 -0.3997  2.1050 -2.5021
17349TIP3    H273463   3.875   1.693  10.412 -0.4136  1.7392 -2.2357
17350TIP3   OH273464   2.807   2.010  12.516 -0.1350 -0.3875 -0.1738
17350TIP3    H173465   2.757   1.937  12.479  0.6573  0.0870 -2.3189
17350TIP3    H273466   2.898   1.989  12.496  0.1141  1.1312 -0.7273
17351TIP3   OH273467   6.037   4.589   6.129  0.1478  0.1152  0.4053
17351TIP3    H173468   5.985   4.550   6.198 -1.2143  1.2632  0.0855
17351TIP3    H273469   6.119   4.614   6.171  0.6267 -2.0123  0.8490
17352TIP3   OH273470   2.946   6.672  14.124 -0.0338 -0.0418 -0.1803
17352TIP3    H173471   2.938   6.588  14.080 -1.0198 -0.3891  0.6341
17352TIP3    H273472   2.894   6.663  14.204  1.5379  0.6341  0.9700
17353TIP3   OH273473   3.991   3.192  13.145  0.0951  0.1181 -0.8221
17353TIP3    H173474   3.947   3.163  13.225 -0.1721  1.3730 -0.4863
17353TIP3    H273475   3.964   3.129  13.079 -2.8160  1.1671 -0.7873
17354TIP3   OH273476   0.369   0.992  14.203 -0.1530 -0.0131 -0.1518
17354TIP3    H173477   0.462   0.977  14.186 -0.6272 -1.9442 -1.2595
17354TIP3    H273478   0.352   1.079  14.167  1.4294  0.8787  1.1104
17355TIP3   OH273479   5.480   0.802  14.520  0.2534 -0.2161  0.2343
17355TIP3    H173480   5.559   0.836  14.480 -0.4917  0.2402 -0.8985
17355TIP3    H273481   5.410   0.827  14.460 -0.7635 -0.5323  1.2507
17356TIP3   OH273482   3.329   3.788  11.052 -0.0653 -0.0019 -0.1455
17356TIP3    H173483   3.261   3.756  10.993  0.3909 -0.1131 -0.6126
17356TIP3    H273484   3.313   3.883  11.058 -0.6129 -0.1109  0.2109
17357TIP3   OH273485   1.111   0.798  11.697  0.1763 -0.2937  0.2645
17357TIP3    H173486   1.103   0.703  11.702 -0.5087 -0.3261 -1.0340
17357TIP3    H273487   1.033   0.826  11.651 -0.9147  1.1772  2.7762
17358TIP3   OH273488   3.064   1.948  12.464  0.7959 -0.3311  0.0563
17358TIP3    H173489   3.149   1.936  12.420  2.0100  0.5237  2.0297
17358TIP3    H273490   3.081   2.013  12.531 -1.6043  0.2547  0.1814
17359TIP3   OH273491   2.588   1.255   6.072 -0.0809 -0.1741 -0.2475
17359TIP3    H173492   2.601   1.240   5.979  0.8899 -1.0566  0.0094
17359TIP3    H273493   2.592   1.168   6.112 -0.1009  0.2223  0.6658
17360TIP3   OH273494   4.619   5.893   5.804  0.1214  0.4251 -0.6830
17360TIP3    H173495   4.625   5.853   5.717 -0.4702 -2.0301  0.3019
17360TIP3    H273496   4.709   5.910   5.828  0.6902 -2.4807 -0.3321
17361TIP3   OH273497   0.234   5.794   3.945  0.0464 -0.2558 -0.6597
17361TIP3    H173498   0.276   5.866   3.900 -1.0196  1.1259  0.4695
17361TIP3    H273499   0.306   5.745   3.985  0.8423 -0.3813 -2.1643
17362TIP3   OH273500   1.774   5.034   0.895 -0.1105  0.4829 -0.4031
17362TIP3    H173501   1.837   5.103   0.917  0.5513 -0.3237  0.2932
17362TIP3    H273502   1.688   5.074   0.910  0.2728  1.0658  0.2682
17363TIP3   OH273503   6.373   2.009  14.669  0.4191  0.1203  0.1744
17363TIP3    H173504   6.446   2.003  14.607 -1.0822  0.1122 -1.7026
17363TIP3    H273505   6.368   2.102  14.691  1.4638  0.0066  0.9428
17364TIP3   OH273506   5.230   4.654   4.880  0.2727 -0.3900  0.0385
17364TIP3    H173507   5.201   4.741   4.852  0.8763 -1.1161 -3.4000
17364TIP3    H273508   5.320   4.667   4.910 -0.6989  0.5931  2.7485
17365TIP3   OH273509   5.225   6.443  12.137 -0.9548 -0.0209  0.6179
17365TIP3    H173510   5.163   6.396  12.192 -1.0314 -0.7576 -0.0814
17365TIP3    H273511   5.177   6.460  12.056 -0.1147 -1.0206 -0.1207
17366TIP3   OH273512   3.230   2.551  16.401 -0.3996  0.3854  0.2303
17366TIP3    H173513   3.287   2.492  16.351 -1.8153 -1.0436  0.2197
17366TIP3    H273514   3.225   2.630  16.348  2.7485  1.2179  0.9416
17367TIP3   OH273515   0.318   4.331   0.818 -0.3226  0.1686 -0.1438
17367TIP3    H173516   0.379   4.340   0.745  0.5603  1.9412  0.7471
17367TIP3    H273517   0.330   4.412   0.869 -1.9069 -0.3971  1.2012
17368TIP3   OH273518   1.848   1.450   3.572 -0.0582 -0.2774  0.0641
17368TIP3    H173519   1.943   1.448   3.582 -0.1116  0.4902  0.8662
17368TIP3    H273520   1.817   1.508   3.642 -1.0567  0.0304 -0.5973
17369TIP3   OH273521   0.449   6.551  15.512 -0.0402 -0.4569 -0.1650
17369TIP3    H173522   0.400   6.619  15.557 -0.9706 -0.5587 -0.9957
17369TIP3    H273523   0.400   6.471  15.527  1.1885 -1.0272  1.0275
17370TIP3   OH273524   1.536   2.795   2.740 -0.1937  0.3818  0.1317
17370TIP3    H173525   1.610   2.856   2.730 -0.8677  1.5443  1.7488
17370TIP3    H273526   1.507   2.777   2.651  0.8789  1.3792 -0.4448
17371TIP3   OH273527   4.177   3.852   5.795 -0.5340  0.0359 -0.3966
17371TIP3    H173528   4.181   3.793   5.871 -0.9185  0.8930  0.3015
17371TIP3    H273529   4.129   3.802   5.729  0.3422 -0.9634 -0.3104
17372TIP3   OH273530   6.385   3.642  15.890 -0.0972 -0.0880 -0.2346
17372TIP3    H173531   6.470   3.602  15.871 -0.3937 -1.1004  0.4642
17372TIP3    H273532   6.395   3.678  15.978 -0.3601 -0.1090 -0.1962
17373TIP3   OH273533   1.562   3.491  14.803 -0.6205  0.1067 -0.5499
17373TIP3    H173534   1.535   3.399  14.794  0.2763 -0.3383  0.9129
17373TIP3    H273535   1.534   3.515  14.891  1.7093  0.3027  0.1956
17374TIP3   OH273536   1.212   1.214  13.846 -0.0050  0.2824 -0.2994
17374TIP3    H173537   1.272   1.216  13.922 -0.5561  1.4129  0.1340
17374TIP3    H273538   1.232   1.132  13.802  0.4500 -0.3252  0.9852
17375TIP3   OH273539   3.822   0.335   6.162 -0.3653 -0.1032  0.2791
17375TIP3    H173540   3.897   0.276   6.156 -0.4030 -0.2170  0.8621
17375TIP3    H273541   3.793   0.346   6.072 -0.2517 -0.8442  0.1492
17376TIP3   OH273542   4.835   4.510  16.199  0.3055  0.0142  0.4439
17376TIP3    H173543   4.804   4.422  16.176  0.2778  0.4458 -1.3354
17376TIP3    H273544   4.849   4.553  16.115  1.1544  1.4395  1.2707
17377TIP3   OH273545   3.182   5.703  13.380  0.1285  0.0092 -0.2506
17377TIP3    H173546   3.183   5.608  13.369 -0.9719  0.0563 -0.9128
17377TIP3    H273547   3.099   5.731  13.341  0.8596  1.3444 -0.9308
17378TIP3   OH273548   5.962   1.166  17.228 -0.1314  0.2707  0.0471
17378TIP3    H173549   5.998   1.252  17.248 -0.8384  0.1335  2.2783
17378TIP3    H273550   5.968   1.118  17.311 -2.1907 -0.9117 -0.3931
17379TIP3   OH273551   1.187   0.570  15.122  0.1075 -0.0861  0.6288
17379TIP3    H173552   1.248   0.528  15.183  0.6650 -0.2185 -0.0065
17379TIP3    H273553   1.208   0.531  15.038 -0.1704  0.6200  0.2283
17380TIP3   OH273554   4.240   0.019   5.504 -0.3766  0.7639 -0.4070
17380TIP3    H173555   4.213   0.098   5.458 -0.2871  0.8759 -0.2690
17380TIP3    H273556   4.318   0.045   5.554  0.5713  0.2059 -1.5475
17381TIP3   OH273557   6.660   2.656   4.176  0.3469 -0.0563  0.0690
17381TIP3    H173558   6.628   2.585   4.233  0.8542 -0.3439  0.0027
17381TIP3    H273559   6.721   2.705   4.231 -0.2433  0.5319  0.2153
17382TIP3   OH273560   0.534   5.940  13.218 -0.2532 -0.3705  0.0969
17382TIP3    H173561   0.579   5.951  13.134 -0.9598  0.0614 -0.2334
17382TIP3    H273562   0.443   5.923  13.194 -0.5294  0.0869  0.7846
17383TIP3   OH273563   2.103   4.497   2.810  0.0578  1.1905  0.3769
17383TIP3    H173564   2.053   4.493   2.728 -2.0773  1.3376  1.5801
17383TIP3    H273565   2.104   4.590   2.832 -0.1109  1.0671  0.9194
17384TIP3   OH273566   5.487   1.868  17.196  1.2443  0.0304  0.2811
17384TIP3    H173567   5.520   1.917  17.121  1.1867 -0.9398 -0.4003
17384TIP3    H273568   5.565   1.834  17.239  1.2588  0.1748  0.3670
17385TIP3   OH273569   6.023   2.050  14.739 -0.1902 -0.0150  0.3608
17385TIP3    H173570   6.041   1.985  14.808  1.2865  1.5668  1.5465
17385TIP3    H273571   6.033   2.134  14.783 -1.3530  1.0394 -1.3203
17386TIP3   OH273572   4.382   4.397  13.409  0.6635 -0.2687 -0.5156
17386TIP3    H173573   4.297   4.426  13.442  1.2242  0.0527  0.7028
17386TIP3    H273574   4.376   4.302  13.406  0.2123 -0.2408 -0.5748
17387TIP3   OH273575   4.188   4.326   3.299 -0.0522 -0.2384 -0.0019
17387TIP3    H173576   4.271   4.308   3.342  0.7525  0.4541 -1.1915
17387TIP3    H273577   4.194   4.418   3.273 -1.4088 -0.0279  0.3556
17388TIP3   OH273578   2.959   6.659  15.264 -1.0043 -0.2537  0.7546
17388TIP3    H173579   3.054   6.664  15.273 -0.8782 -2.0704  0.8093
17388TIP3    H273580   2.927   6.645  15.353 -1.1591 -1.3810  0.5348
17389TIP3   OH273581   6.276   4.574   6.309  0.1009  0.1046 -0.5624
17389TIP3    H173582   6.313   4.515   6.375  1.6464  0.2781 -1.2410
17389TIP3    H273583   6.287   4.661   6.346  1.8027  0.2812 -1.3714
17390TIP3   OH273584   6.600   4.170   5.420  0.5280 -0.0995  0.3306
17390TIP3    H173585   6.681   4.190   5.467  1.6180 -1.7079 -0.7604
17390TIP3    H273586   6.577   4.081   5.448  1.8027 -1.5669 -2.8008
17391TIP3   OH273587   2.729   2.557  13.449  1.0186  0.0143  0.1074
17391TIP3    H173588   2.671   2.612  13.397  1.6489  0.5075 -0.0914
17391TIP3    H273589   2.678   2.478  13.466  1.3567 -0.9211 -2.6773
17392TIP3   OH273590   2.234   4.332  12.181  0.4529 -0.2673  0.3801
17392TIP3    H173591   2.175   4.403  12.158 -1.7410 -2.0090  0.2289
17392TIP3    H273592   2.273   4.359  12.265 -0.3879  1.0420  0.3742
17393TIP3   OH273593   4.670   6.484   0.445  0.5969  0.4697 -0.1967
17393TIP3    H173594   4.640   6.575   0.452 -1.2180  0.0619 -1.9323
17393TIP3    H273595   4.704   6.464   0.533 -0.7296  2.2203  0.7910
17394TIP3   OH273596   0.211   2.838   2.347 -0.0223 -0.5252 -0.6100
17394TIP3    H173597   0.254   2.753   2.355 -0.8266 -0.9985 -1.1259
17394TIP3    H273598   0.257   2.894   2.410 -0.2698 -1.6611  0.6350
17395TIP3   OH273599   2.936   1.150  11.001 -0.2376  0.2952 -0.2051
17395TIP3    H173600   2.981   1.084  10.950 -0.3828  0.5984 -0.7279
17395TIP3    H273601   2.846   1.118  11.008 -1.2804  2.0741 -3.4928
17396TIP3   OH273602   1.211   2.715   3.528 -0.1048  0.3748  0.0291
17396TIP3    H173603   1.266   2.685   3.600  0.7738  2.7487  0.4603
17396TIP3    H273604   1.245   2.671   3.450  0.6883 -0.1728  0.6841
17397TIP3   OH273605   2.375   1.574   5.138  0.0848 -0.0804  0.2065
17397TIP3    H173606   2.374   1.522   5.057  0.0490  0.2074  0.0208
17397TIP3    H273607   2.335   1.657   5.114  2.0396  0.8365 -0.0548
17398TIP3   OH273608   2.148   0.926  16.227 -0.0384 -0.0775  0.3465
17398TIP3    H173609   2.140   1.007  16.278  0.4043  0.4589 -0.4075
17398TIP3    H273610   2.082   0.934  16.158 -0.4842 -0.6956  0.6909
17399TIP3   OH273611   2.728   2.532  14.989  0.1696 -0.4310 -0.2805
17399TIP3    H173612   2.765   2.602  15.043  0.0313 -0.6962  0.1617
17399TIP3    H273613   2.721   2.457  15.048 -0.0635 -0.7002 -0.6441
17400TIP3   OH273614   4.596   4.267   5.685 -0.3066 -0.5837 -0.0094
17400TIP3    H173615   4.505   4.278   5.657 -0.9710  1.5087  2.5634
17400TIP3    H273616   4.593   4.191   5.744 -0.1561 -1.0801 -0.6229
17401TIP3   OH273617   3.482   3.887   4.313 -0.3243  0.2741 -0.1363
17401TIP3    H173618   3.512   3.970   4.349 -0.1952  0.6894 -1.1748
17401TIP3    H273619   3.540   3.821   4.351 -0.5540  0.6178  0.8495
17402TIP3   OH273620   5.619   0.397   4.735 -0.0976  0.0842 -0.5409
17402TIP3    H173621   5.657   0.329   4.678 -2.1417 -1.8315  0.2274
17402TIP3    H273622   5.567   0.348   4.799  0.3315  2.2854  1.6441
17403TIP3   OH273623   6.614   1.844   1.900 -0.0394  0.0411 -0.1307
17403TIP3    H173624   6.557   1.824   1.974 -0.3447  1.0515 -0.0699
17403TIP3    H273625   6.677   1.773   1.898 -0.2062 -0.1519  0.9249
17404TIP3   OH273626   1.233   5.752  13.004 -0.1269 -0.7236  0.3687
17404TIP3    H173627   1.252   5.700  12.926  0.4785  0.3118 -0.1901
17404TIP3    H273628   1.150   5.717  13.037 -0.5647 -0.9329 -0.9297
17405TIP3   OH273629   3.374   2.624  13.008 -1.0023 -0.2838  0.4511
17405TIP3    H173630   3.393   2.654  13.097  0.0781 -0.4130  0.2760
17405TIP3    H273631   3.377   2.529  13.014 -0.5652 -0.2865  0.2051
17406TIP3   OH273632   6.154   4.039  16.419  0.5075 -0.1711  0.7125
17406TIP3    H173633   6.140   3.985  16.497  0.2592  2.4708  2.6360
17406TIP3    H273634   6.145   4.129  16.450  1.3409  1.0490 -2.2165
17407TIP3   OH273635   4.003   5.198  13.452  0.5217 -0.0761 -0.2348
17407TIP3    H173636   4.016   5.110  13.489  3.3026 -0.6889 -2.3128
17407TIP3    H273637   3.941   5.184  13.380  1.0546 -0.3858 -0.6407
17408TIP3   OH273638   4.551   5.388   3.115  0.0435 -0.3996 -0.8932
17408TIP3    H173639   4.600   5.469   3.100 -0.7245 -0.1458 -2.1400
17408TIP3    H273640   4.612   5.332   3.163 -0.6501  2.2841  3.8026
17409TIP3   OH273641   2.852   0.175  14.784 -0.1254  0.3074  0.2213
17409TIP3    H173642   2.790   0.222  14.840  1.0044 -0.5245  2.2484
17409TIP3    H273643   2.925   0.235  14.772 -0.0995  0.2575  0.1223
17410TIP3   OH273644   4.425   4.357   3.002  0.1489  0.6675 -0.3558
17410TIP3    H173645   4.439   4.334   2.910 -1.0879  0.6788 -0.5634
17410TIP3    H273646   4.489   4.426   3.019  2.7985 -1.6488 -0.1862
17411TIP3   OH273647   1.089   4.549   5.532 -0.6136 -0.0193 -0.1562
17411TIP3    H173648   1.008   4.563   5.483  0.3707 -0.1058 -1.9045
17411TIP3    H273649   1.130   4.473   5.490 -0.1803 -0.7223  1.4728
17412TIP3   OH273650   5.720   5.739  10.914  0.2455  0.1665 -0.1064
17412TIP3    H173651   5.763   5.765  10.832  0.9785  1.4756  0.6497
17412TIP3    H273652   5.782   5.678  10.955  0.2484  0.1382 -0.1526
17413TIP3   OH273653   1.355   2.525   1.143 -0.2244  0.1688 -0.2075
17413TIP3    H173654   1.385   2.450   1.091 -1.2673  0.4086 -1.1878
17413TIP3    H273655   1.417   2.595   1.123 -0.8810  0.4053 -1.5577
17414TIP3   OH273656   3.441   0.323  14.724  0.2621  0.7362  0.6825
17414TIP3    H173657   3.430   0.409  14.765 -1.0960  1.4174 -0.9943
17414TIP3    H273658   3.358   0.307  14.680  0.4323 -1.5400  1.0659
17415TIP3   OH273659   4.501   0.874   3.597 -0.4823  0.3911 -0.5258
17415TIP3    H173660   4.438   0.803   3.585 -1.3684  1.0307  0.1917
17415TIP3    H273661   4.512   0.912   3.510 -0.1367 -0.5023 -0.8791
17416TIP3   OH273662   4.650   2.430  15.686 -0.3899 -0.6064 -0.2061
17416TIP3    H173663   4.607   2.348  15.710 -0.0307 -0.9470 -0.7123
17416TIP3    H273664   4.593   2.469  15.620 -0.6543 -0.3584  0.1678
17417TIP3   OH273665   4.732   5.486  16.813 -0.4296  0.1622  0.0685
17417TIP3    H173666   4.693   5.409  16.772 -0.9361  0.8150 -0.6924
17417TIP3    H273667   4.752   5.457  16.902 -1.3502 -0.6144  0.0453
17418TIP3   OH273668   3.925   6.447   4.224  0.3948 -0.4130 -0.5027
17418TIP3    H173669   3.901   6.478   4.137 -1.1976  0.3577  0.1769
17418TIP3    H273670   3.920   6.351   4.218  0.0758 -0.3568 -1.1905
17419TIP3   OH273671   0.551   0.574   4.953 -0.4400 -0.1032 -0.1898
17419TIP3    H173672   0.559   0.634   4.878  1.6658 -1.9580 -1.5882
17419TIP3    H273673   0.628   0.592   5.006 -1.2454  0.2865  0.8699
17420TIP3   OH273674   3.517   6.362  16.403 -0.4639  0.2241 -0.2558
17420TIP3    H173675   3.587   6.307  16.366  1.1977  0.2137  2.5905
17420TIP3    H273676   3.465   6.389  16.327  1.4761 -1.3626 -2.2985
17421TIP3   OH273677   3.723   4.027  16.358  0.2552  0.0837  0.0136
17421TIP3    H173678   3.638   4.064  16.334  0.8171  0.2494 -1.8927
17421TIP3    H273679   3.710   3.933  16.350  0.5794  0.1584 -1.5333
17422TIP3   OH273680   6.153   1.325   4.925  0.0319  0.1209  0.0363
17422TIP3    H173681   6.067   1.360   4.903 -0.0118 -0.6163 -1.0508
17422TIP3    H273682   6.212   1.400   4.920 -0.3499  0.3926 -0.4606
17423TIP3   OH273683   4.875   2.065   4.413  0.0988 -0.4044 -0.0672
17423TIP3    H173684   4.941   2.121   4.373 -0.7970  1.9129  1.4892
17423TIP3    H273685   4.925   2.000   4.462  1.3446  1.7843  1.7464
17424TIP3   OH273686   6.328   4.976  16.444 -0.1366 -0.1983 -0.3099
17424TIP3    H173687   6.365   4.892  16.472  1.5048  1.1256  1.8550
17424TIP3    H273688   6.371   4.995  16.360  1.9441 -0.1282  0.6977
17425TIP3   OH273689   5.270   1.379  16.160 -0.1468 -0.1082  0.8703
17425TIP3    H173690   5.363   1.396  16.144 -0.3135  0.2468  0.2293
17425TIP3    H273691   5.265   1.284  16.173  0.0659 -0.4224 -0.9835
17426TIP3   OH273692   0.554   2.694  15.754 -0.4536 -0.1622 -0.4271
17426TIP3    H173693   0.641   2.663  15.729  0.4138  0.5329  1.4984
17426TIP3    H273694   0.493   2.634  15.711  1.0176 -1.4342 -0.8092
17427TIP3   OH273695   3.609   0.815  15.983 -0.1693  0.6645  0.3682
17427TIP3    H173696   3.639   0.774  16.064  0.7793  1.0014  0.1921
17427TIP3    H273697   3.516   0.791  15.977 -0.2104  0.5236  1.4780
17428TIP3   OH273698   5.682   0.983   1.329 -0.3417  0.4196  0.6397
17428TIP3    H173699   5.753   0.933   1.288 -0.5615 -0.5693  1.4145
17428TIP3    H273700   5.606   0.967   1.274 -0.2004  0.6343  0.3825
17429TIP3   OH273701   3.636   0.464   2.076 -0.6963 -0.6283  0.9224
17429TIP3    H173702   3.588   0.480   1.995 -1.0206  0.2807  1.2752
17429TIP3    H273703   3.596   0.386   2.114  0.8510 -2.3723 -0.8102
17430TIP3   OH273704   2.397   6.767   2.402 -0.2309  0.5755  0.5212
17430TIP3    H173705   2.352   6.707   2.462 -0.5286 -0.9599 -1.1717
17430TIP3    H273706   2.424   6.712   2.328  1.2320  2.1726 -0.1917
17431TIP3   OH273707   6.679   0.452   2.886  0.3513 -1.0143  0.2195
17431TIP3    H173708   6.652   0.497   2.965 -0.4078 -1.7679  0.4095
17431TIP3    H273709   6.690   0.521   2.821 -2.0628 -0.6159  0.1427
17432TIP3   OH273710   3.756   4.200  14.172 -0.2690 -0.6265 -0.4286
17432TIP3    H173711   3.696   4.185  14.099 -1.5938  0.9807  0.2697
17432TIP3    H273712   3.812   4.271  14.143 -0.0770 -0.7154 -0.2797
17433TIP3   OH273713   4.073   5.997   5.648  0.1432 -0.7941 -0.6325
17433TIP3    H173714   4.137   5.934   5.681 -0.2626 -0.4493  0.9095
17433TIP3    H273715   3.992   5.974   5.693  0.1728  1.2954  0.6283
17434TIP3   OH273716   2.466   4.361  16.409 -0.5573 -0.0770 -0.4272
17434TIP3    H173717   2.517   4.353  16.490 -1.2052  0.9140  0.0955
17434TIP3    H273718   2.531   4.347  16.339  0.5516  1.5356  0.2074
17435TIP3   OH273719   1.306   5.466   1.519  0.2663 -0.4496 -0.1564
17435TIP3    H173720   1.333   5.389   1.468  0.4657 -1.7591  1.8155
17435TIP3    H273721   1.329   5.444   1.609 -0.9749  1.3673  0.6577
17436TIP3   OH273722   2.440   1.998   2.705  0.1074  0.3202  0.2898
17436TIP3    H173723   2.373   2.053   2.745 -0.4137 -1.0333  1.3763
17436TIP3    H273724   2.522   2.023   2.748  0.0805  1.0822 -0.1032
17437TIP3   OH273725   6.441   5.639  16.486  0.4585  0.1519  0.2314
17437TIP3    H173726   6.430   5.544  16.496 -1.6408  0.4040  0.7565
17437TIP3    H273727   6.401   5.659  16.402 -0.3966  0.7446  0.7679
17438TIP3   OH273728   2.257   0.494   1.701 -0.3724  0.0154  0.1784
17438TIP3    H173729   2.304   0.488   1.785  0.3268 -1.5895 -0.2998
17438TIP3    H273730   2.188   0.428   1.708 -1.6957  1.3633  0.2989
17439TIP3   OH273731   0.585   1.549  16.323  0.3074 -0.4416  0.1290
17439TIP3    H173732   0.649   1.583  16.385 -0.4510  2.0454 -0.3008
17439TIP3    H273733   0.628   1.558  16.237 -0.7133  1.8029 -0.2254
17440TIP3   OH273734   3.474   5.415   6.303  0.0034 -0.4060  0.1861
17440TIP3    H173735   3.458   5.349   6.370  2.0266 -1.6871 -0.5205
17440TIP3    H273736   3.536   5.476   6.342  0.6690 -0.7774 -0.2817
17441TIP3   OH273737   1.347   2.512  13.752 -0.2838  0.2187  0.0964
17441TIP3    H173738   1.382   2.579  13.811 -0.9440  0.4105  0.2742
17441TIP3    H273739   1.422   2.486  13.699  0.9710 -1.8228  2.7050
17442TIP3   OH273740   5.593   3.888   3.359 -0.2975  0.6394  0.0228
17442TIP3    H173741   5.657   3.960   3.356 -0.0518  0.4129 -0.3360
17442TIP3    H273742   5.515   3.927   3.398 -0.0052  0.9746  0.2835
17443TIP3   OH273743   5.954   1.783   0.931 -0.0647 -0.0414  0.5361
17443TIP3    H173744   5.859   1.785   0.944 -0.0883  0.0259  0.3534
17443TIP3    H273745   5.974   1.864   0.885  0.0125 -0.2945  0.1206
17444TIP3   OH273746   6.050   2.704   1.793  0.7267 -0.1114  0.5776
17444TIP3    H173747   6.062   2.693   1.888 -1.2948  2.1493  1.1885
17444TIP3    H273748   5.968   2.658   1.775  0.3284  0.7291  0.2254
17445TIP3   OH273749   1.976   0.629   4.658 -0.4398  0.2572  0.4080
17445TIP3    H173750   1.941   0.698   4.714 -0.0909  1.0716 -0.3366
17445TIP3    H273751   1.932   0.549   4.686 -0.6012  0.7216  1.5242
17446TIP3   OH273752   0.845   3.059  10.766  0.3710  0.2550 -0.3822
17446TIP3    H173753   0.848   3.155  10.776  0.6379  0.1488  0.7515
17446TIP3    H273754   0.933   3.030  10.787 -0.5913 -0.5261  3.3237
17447TIP3   OH273755   5.989   3.897   4.063 -0.0248  0.4499 -0.6717
17447TIP3    H173756   5.986   3.929   3.973  0.4591 -0.6225 -1.0859
17447TIP3    H273757   5.948   3.967   4.115 -1.2386  0.6500 -1.8410
17448TIP3   OH273758   4.281   3.099   3.786  0.4919 -0.2256  0.4346
17448TIP3    H173759   4.360   3.086   3.839 -0.1064 -1.3151  1.0875
17448TIP3    H273760   4.281   3.027   3.724 -0.0443 -0.2903  0.5048
17449TIP3   OH273761   4.794   3.858   0.095 -0.2053 -0.1325  0.0668
17449TIP3    H173762   4.836   3.773   0.086  0.4588  0.1973  0.0430
17449TIP3    H273763   4.857   3.912   0.142 -1.7094 -0.4258  2.5737
17450TIP3   OH273764   5.958   4.768  14.560 -0.4191 -0.1095 -0.3609
17450TIP3    H173765   6.043   4.741  14.527 -0.6847 -0.6858 -0.5821
17450TIP3    H273766   5.937   4.847  14.510  0.1085  0.1918 -0.1090
17451TIP3   OH273767   2.141   5.885   1.988  0.8785  0.5031  0.1167
17451TIP3    H173768   2.156   5.838   1.906  0.3097  0.6150 -0.0521
17451TIP3    H273769   2.066   5.941   1.971  1.0805  0.9193  0.5553
17452TIP3   OH273770   3.942   3.644   4.335  0.3010  0.0084 -0.1877
17452TIP3    H173771   3.951   3.558   4.375 -0.1007 -1.1682 -2.4660
17452TIP3    H273772   4.022   3.690   4.359  0.0196 -0.5138  2.0271
17453TIP3   OH273773   3.435   0.928  16.297 -0.3092 -0.6132  0.5080
17453TIP3    H173774   3.352   0.920  16.252 -0.2117 -0.3993  0.2866
17453TIP3    H273775   3.480   0.845  16.281 -0.0755 -0.3610 -0.1985
17454TIP3   OH273776   2.367   0.163  13.959 -0.4584 -0.7847  0.2590
17454TIP3    H173777   2.297   0.107  13.994 -0.6560 -1.4706 -1.1799
17454TIP3    H273778   2.430   0.102  13.922  0.0337 -0.0973 -0.0426
17455TIP3   OH273779   0.740   2.554  11.456 -0.2337 -0.1110  0.3214
17455TIP3    H173780   0.803   2.523  11.390  0.5021 -1.0151  1.3912
17455TIP3    H273781   0.757   2.648  11.462  2.0557 -0.5090  1.5435
17456TIP3   OH273782   5.719   5.283   0.501  0.4425  0.3216  0.2322
17456TIP3    H173783   5.792   5.228   0.474  1.7814  0.8758  2.4979
17456TIP3    H273784   5.756   5.344   0.564 -1.4462  2.4064 -0.5081
17457TIP3   OH273785   5.958   2.757   4.396  0.1337  0.1476  0.3483
17457TIP3    H173786   6.053   2.756   4.396  0.1507  0.1331  1.4621
17457TIP3    H273787   5.932   2.669   4.422 -0.1348  0.5420  1.5101
17458TIP3   OH273788   6.359   6.693  13.415  0.0415  0.4638  0.0076
17458TIP3    H173789   6.451   6.704  13.392 -0.2720  1.1368 -1.0143
17458TIP3    H273790   6.348   6.744  13.496  0.5980  0.2489  0.2210
17459TIP3   OH273791   2.478   5.529  11.815  0.0271 -0.1732  0.0019
17459TIP3    H173792   2.419   5.507  11.743  1.1131 -0.7582 -0.7402
17459TIP3    H273793   2.487   5.624  11.812  1.4399 -0.3197 -1.7867
17460TIP3   OH273794   5.580   0.439   4.226 -0.6293  0.2430  0.1120
17460TIP3    H173795   5.551   0.507   4.165 -1.9977  0.4824  0.9834
17460TIP3    H273796   5.666   0.412   4.194 -0.6121  1.5124 -0.9597
17461TIP3   OH273797   2.935   4.154   3.371  0.1412 -0.3546 -0.6193
17461TIP3    H173798   2.918   4.202   3.289  0.5313  0.8757 -0.0092
17461TIP3    H273799   2.929   4.221   3.439  3.8083 -0.4528  0.0076
17462TIP3   OH273800   3.402   3.211   4.116 -0.2269 -0.2473  0.8810
17462TIP3    H173801   3.318   3.239   4.154  0.8683  1.5743  2.0804
17462TIP3    H273802   3.456   3.189   4.192  0.5240 -1.1059  0.1211
17463TIP3   OH273803   4.998   0.062  13.944  0.0289  0.2511  0.6244
17463TIP3    H173804   4.979   0.079  13.852 -1.7883  1.3360  1.1684
17463TIP3    H273805   4.913   0.041  13.983  0.8274 -0.6145  1.9898
17464TIP3   OH273806   1.177   0.033  16.818 -0.0235 -0.3350  0.5332
17464TIP3    H173807   1.168   0.125  16.842 -1.4343 -0.1480 -0.5577
17464TIP3    H273808   1.215  -0.009  16.895 -1.5610  0.7378  1.9307
17465TIP3   OH273809   2.652   0.379  12.666  0.1663 -0.3342 -0.3158
17465TIP3    H173810   2.633   0.285  12.664  0.1601 -0.3843  1.1210
17465TIP3    H273811   2.747   0.384  12.671  0.1752 -0.2491 -0.5384
17466TIP3   OH273812   1.026   3.796  16.320 -0.2780 -0.4282 -0.0256
17466TIP3    H173813   0.940   3.756  16.302 -0.9393  0.5505  0.8592
17466TIP3    H273814   1.076   3.782  16.240 -1.8467  0.4706 -1.2178
17467TIP3   OH273815   4.815   3.323  12.288  0.1397  0.1948 -1.0269
17467TIP3    H173816   4.876   3.286  12.352 -1.8993 -0.2763  0.7902
17467TIP3    H273817   4.809   3.256  12.220  3.7272  1.4577 -2.8603
17468TIP3   OH273818   3.605   6.135   5.306 -0.3327  0.7782 -0.0719
17468TIP3    H173819   3.534   6.090   5.261 -0.6500  0.9378  0.2612
17468TIP3    H273820   3.569   6.222   5.326 -0.9517  0.0540  2.3114
17469TIP3   OH273821   3.993   3.797   1.223  0.0997 -0.3919 -0.2317
17469TIP3    H173822   3.956   3.875   1.183  1.5500 -0.4367 -1.7668
17469TIP3    H273823   4.004   3.820   1.315 -2.9345 -0.1324  0.1555
17470TIP3   OH273824   0.935   0.011  14.807 -0.0882 -0.1465  0.3259
17470TIP3    H173825   0.970   0.030  14.720 -0.5003  0.8179  0.3602
17470TIP3    H273826   1.000  -0.047  14.847 -0.5696 -1.7490 -1.1202
17471TIP3   OH273827   5.875   5.545  16.185  0.2973  0.1886  0.2074
17471TIP3    H173828   5.918   5.623  16.150 -0.3473  0.8915  0.9314
17471TIP3    H273829   5.943   5.478  16.185  0.0736 -0.2186 -3.3659
17472TIP3   OH273830   2.678   3.716   1.138  0.0067  0.5053  0.2225
17472TIP3    H173831   2.732   3.662   1.080 -0.8781 -0.5618  0.3536
17472TIP3    H273832   2.605   3.744   1.083 -0.3765  0.2160  0.5744
17473TIP3   OH273833   0.898   0.885  14.174  0.2254 -0.1222  0.1599
17473TIP3    H173834   0.911   0.977  14.152  1.0077 -0.2495  0.0355
17473TIP3    H273835   0.986   0.847  14.169 -0.3957 -1.4049 -2.2053
17474TIP3   OH273836   3.636   3.578  16.180 -0.1183  0.4086 -0.9550
17474TIP3    H173837   3.598   3.491  16.169  0.6732 -0.2545  1.1310
17474TIP3    H273838   3.723   3.562  16.217 -0.1592  2.0955 -0.0408
17475TIP3   OH273839   5.732   2.932   0.359  0.0952 -0.0675  0.3323
17475TIP3    H173840   5.704   2.840   0.362 -1.5146  0.4063  2.4079
17475TIP3    H273841   5.827   2.928   0.348  0.1839 -2.0115  1.3239
17476TIP3   OH273842   6.074   0.513  14.536 -0.6135 -0.0791  0.1099
17476TIP3    H173843   6.071   0.504  14.441 -0.7202  0.0486  0.1013
17476TIP3    H273844   6.004   0.455  14.567 -0.6111 -0.0830  0.1081
17477TIP3   OH273845   2.201   2.053  15.126 -0.3344  0.1419 -0.1611
17477TIP3    H173846   2.242   1.984  15.073 -1.9253 -0.5046 -0.5924
17477TIP3    H273847   2.127   2.010  15.169  0.4064  0.8638  1.9697
17478TIP3   OH273848   1.595   5.945   2.355  0.7993 -0.2317  0.5655
17478TIP3    H173849   1.598   5.926   2.449  1.0844 -1.0846  0.3957
17478TIP3    H273850   1.515   5.995   2.343  1.6987  1.5360  1.5501
17479TIP3   OH273851   3.430   5.779  12.218 -0.0759  0.3195  0.3058
17479TIP3    H173852   3.463   5.703  12.169 -0.6669 -0.7131  1.4623
17479TIP3    H273853   3.506   5.836  12.227  0.1932  0.2552 -1.2725
17480TIP3   OH273854   3.814   1.311   1.569 -0.1367  0.0740  0.1176
17480TIP3    H173855   3.887   1.331   1.627  0.0748 -5.1241  2.1999
17480TIP3    H273856   3.739   1.355   1.608  1.0456  1.8347  0.5312
17481TIP3   OH273857   0.594   6.047  11.666  0.4536 -0.5168 -0.0552
17481TIP3    H173858   0.566   6.113  11.729  2.5237 -0.1174  0.5410
17481TIP3    H273859   0.557   6.076  11.583  0.8896  1.1367  0.2847
17482TIP3   OH273860   0.504   3.880  14.091  0.1948  0.3629  0.0989
17482TIP3    H173861   0.434   3.869  14.156  0.1072  2.3096  0.3767
17482TIP3    H273862   0.585   3.874  14.143  0.1198  3.6817  0.8248
17483TIP3   OH273863   4.617   1.764   2.678 -0.2051 -0.0071  0.5274
17483TIP3    H173864   4.685   1.823   2.710  0.0121  1.7008 -2.7164
17483TIP3    H273865   4.542   1.778   2.736  0.3904  2.2833  0.8089
17484TIP3   OH273866   0.221   6.276  15.848  1.0440 -0.1594  0.7314
17484TIP3    H173867   0.279   6.331  15.900 -0.2259  0.5870  1.4063
17484TIP3    H273868   0.260   6.276  15.760  0.7101  2.4423  0.5090
17485TIP3   OH273869   0.826   4.196   3.319  0.0172 -0.0501 -0.1082
17485TIP3    H173870   0.876   4.205   3.238  0.4161 -2.5008 -0.2182
17485TIP3    H273871   0.873   4.129   3.368 -0.6927  0.7902  1.8132
17486TIP3   OH273872   5.249   4.511   0.421  0.5509 -0.0966 -0.6574
17486TIP3    H173873   5.242   4.534   0.514 -0.6424 -1.0149 -0.4949
17486TIP3    H273874   5.243   4.416   0.419  1.3902 -0.1423 -1.6242
17487TIP3   OH273875   5.668   6.501  15.503 -0.2119 -0.5183 -0.5166
17487TIP3    H173876   5.677   6.432  15.437  1.0229  0.9258 -1.9313
17487TIP3    H273877   5.575   6.503  15.523 -0.6396 -0.8715 -2.3514
17488TIP3   OH273878   3.724   3.182   3.822 -0.0338  0.4957 -0.0486
17488TIP3    H173879   3.806   3.228   3.838 -0.4205  0.8478  0.9972
17488TIP3    H273880   3.749   3.090   3.814  0.3628  0.4828  1.1794
17489TIP3   OH273881   6.638   3.275   1.624 -0.4015 -0.3066 -0.3114
17489TIP3    H173882   6.636   3.361   1.584  1.7987 -0.1298 -0.1590
17489TIP3    H273883   6.730   3.257   1.639 -0.9683 -1.5118  2.2473
17490TIP3   OH273884   0.741   2.009  13.985  0.7691  0.3716 -0.1781
17490TIP3    H173885   0.735   1.969  13.899  0.8281  0.3092 -0.1529
17490TIP3    H273886   0.720   1.939  14.046 -1.4031  0.9015 -0.2265
17491TIP3   OH273887   3.793   4.889  13.261 -0.4209 -0.4377 -0.2570
17491TIP3    H173888   3.716   4.939  13.235 -0.3586  0.9790  2.0505
17491TIP3    H273889   3.865   4.952  13.257  0.0567 -0.9115  0.5912
17492TIP3   OH273890   1.845   3.872  12.371  0.0330 -0.0047 -0.5647
17492TIP3    H173891   1.831   3.859  12.465 -0.9026  0.1680 -0.6737
17492TIP3    H273892   1.930   3.915  12.365 -0.0567  0.2855  0.2233
17493TIP3   OH273893   2.710   3.654  17.228  0.1415 -0.1023  0.2903
17493TIP3    H173894   2.744   3.574  17.269  0.3361 -1.3645 -2.0925
17493TIP3    H273895   2.641   3.622  17.169  0.2168  1.4904 -0.7086
17494TIP3   OH273896   0.840   3.956  11.579 -0.3127  0.2300 -1.0217
17494TIP3    H173897   0.769   4.015  11.604  0.4951  0.5206  0.7734
17494TIP3    H273898   0.879   3.930  11.663  0.6082 -1.2764 -1.8844
17495TIP3   OH273899   3.880   1.879  13.096  0.0834 -0.1138  0.5452
17495TIP3    H173900   3.876   1.931  13.017 -1.9852  0.5521  1.0284
17495TIP3    H273901   3.943   1.924  13.153  1.4164 -0.4860 -0.5802
17496TIP3   OH273902   3.479   0.159  12.475  0.8951 -0.4780  0.0945
17496TIP3    H173903   3.549   0.225  12.474  0.3717  0.0819 -0.4387
17496TIP3    H273904   3.501   0.101  12.401  0.1307  0.4295 -0.8757
17497TIP3   OH273905   6.504   1.807  15.138 -0.2003  0.5728 -0.1734
17497TIP3    H173906   6.533   1.875  15.077 -1.1994  1.0774 -0.1100
17497TIP3    H273907   6.417   1.836  15.167  0.3529  0.4732  1.7048
17498TIP3   OH273908   2.311   3.582  11.654  0.1788  0.6787 -0.0348
17498TIP3    H173909   2.286   3.599  11.564  0.1488 -0.1397 -0.1865
17498TIP3    H273910   2.385   3.522  11.647 -1.7120 -1.8739  0.5165
17499TIP3   OH273911   0.536   2.663  16.551 -0.3178  0.8779 -0.0432
17499TIP3    H173912   0.514   2.666  16.458  0.4445 -1.6152 -0.3657
17499TIP3    H273913   0.467   2.715  16.594 -1.5543  0.7941 -1.8458
17500TIP3   OH273914   3.514   5.203  14.557  0.1551  0.7308 -0.0921
17500TIP3    H173915   3.432   5.198  14.509  0.1251 -0.0181  0.0220
17500TIP3    H273916   3.505   5.279  14.614 -0.7912  0.1692  0.5285
17501TIP3   OH273917   6.315   2.873   0.417  0.1863  0.5981 -0.1778
17501TIP3    H173918   6.355   2.804   0.364  0.2563  0.2398  0.3293
17501TIP3    H273919   6.247   2.828   0.467 -0.7189  1.1581 -0.8613
17502TIP3   OH273920   6.506   4.328  15.054  0.5332  0.1898 -0.2462
17502TIP3    H173921   6.467   4.256  15.104 -0.8914  1.6900  0.9289
17502TIP3    H273922   6.432   4.370  15.011  1.3758  0.7928 -1.1594
17503TIP3   OH273923   4.544   4.623  15.096  0.5145 -0.4368 -0.1926
17503TIP3    H173924   4.626   4.667  15.076  0.9119 -0.8308  0.4956
17503TIP3    H273925   4.561   4.531  15.076  0.6722 -0.7159  1.1154
17504TIP3   OH273926   5.177   0.147   2.062  0.1817 -0.1371  0.0801
17504TIP3    H173927   5.188   0.166   2.155  1.4142 -1.7580  0.3192
17504TIP3    H273928   5.249   0.087   2.041 -0.1517  0.0748 -1.8920
17505TIP3   OH273929   3.898   3.174   5.605 -0.4316 -0.6273 -0.1085
17505TIP3    H173930   3.962   3.182   5.674 -0.7417 -1.3098  0.2699
17505TIP3    H273931   3.819   3.142   5.649 -1.1417  0.5410 -0.5041
17506TIP3   OH273932   0.287   5.356   1.926  0.5277  0.5055  0.3512
17506TIP3    H173933   0.326   5.348   1.839 -0.3856  1.9161 -0.2353
17506TIP3    H273934   0.198   5.321   1.916 -0.0542  1.9224  0.3237
17507TIP3   OH273935   1.088   3.781  12.744 -0.1835  0.1277  0.0384
17507TIP3    H173936   1.108   3.870  12.715  0.5690 -0.3412 -0.9246
17507TIP3    H273937   1.123   3.776  12.833  1.2307  0.3106 -0.4800
17508TIP3   OH273938   5.672   0.064   3.840  0.0792  0.1488 -0.6228
17508TIP3    H173939   5.604   0.054   3.773 -1.2108 -0.3708  0.7115
17508TIP3    H273940   5.668   0.157   3.865  0.1925  0.2227 -0.8755
17509TIP3   OH273941   6.409   5.988   2.770  0.1574 -0.4516 -0.8983
17509TIP3    H173942   6.432   6.080   2.778  0.1480 -0.4489 -0.8987
17509TIP3    H273943   6.490   5.944   2.745  0.4825 -0.6231  0.3699
17510TIP3   OH273944   5.886   0.065   0.006 -0.0570  0.0979 -0.3178
17510TIP3    H173945   5.977   0.095   0.016  0.4395 -1.2300 -0.5978
17510TIP3    H273946   5.834   0.130   0.054  1.3368 -0.8320  2.6952
17511TIP3   OH273947   4.119   0.849  17.112  0.5673  0.1903 -0.2274
17511TIP3    H173948   4.175   0.813  17.043  1.1475  0.6123  0.0173
17511TIP3    H273949   4.175   0.910  17.159 -0.1297  0.7049 -0.0448
17512TIP3   OH273950   5.915   3.488  13.658 -0.4225 -0.0164  0.0752
17512TIP3    H173951   5.954   3.558  13.711  0.8780  1.2865 -2.4263
17512TIP3    H273952   5.985   3.423  13.648 -0.1168  0.4894 -1.2582
17513TIP3   OH273953   4.163   1.525   1.575 -0.4131 -0.3536 -0.4748
17513TIP3    H173954   4.240   1.470   1.590  0.4911  0.5426 -1.6340
17513TIP3    H273955   4.156   1.532   1.480 -1.3890  0.3157 -0.3719
17514TIP3   OH273956   6.369   4.490  16.719 -0.1214  0.0017 -0.4026
17514TIP3    H173957   6.286   4.493  16.767 -0.2061  0.9212 -0.5852
17514TIP3    H273958   6.357   4.552  16.647 -0.5349 -2.3760 -2.5319
17515TIP3   OH273959   1.124   0.903   0.716 -0.0279 -0.3055 -0.0537
17515TIP3    H173960   1.161   0.983   0.678  0.1847 -0.7500 -0.7972
17515TIP3    H273961   1.168   0.832   0.669  0.6567 -0.8934  1.4055
17516TIP3   OH273962   2.506   2.127  11.762 -0.2590  0.4262  0.5711
17516TIP3    H173963   2.487   2.204  11.709 -0.7757  0.2088  0.4278
17516TIP3    H273964   2.575   2.081  11.715  0.2153  0.9214  0.7787
17517TIP3   OH273965   5.468   3.168  12.123  0.4840 -0.2277  0.1839
17517TIP3    H173966   5.432   3.089  12.083 -0.4527  0.7695 -1.0561
17517TIP3    H273967   5.426   3.240  12.075  1.1119  1.0236  1.4333
17518TIP3   OH273968   3.388   4.740  15.258  0.0989 -0.4177  0.0898
17518TIP3    H173969   3.459   4.741  15.195  0.9994  1.8736  1.0012
17518TIP3    H273970   3.408   4.667  15.316  0.7809 -0.8203 -0.6370
17519TIP3   OH273971   4.435   1.502   1.803  0.6671  0.7950  0.8725
17519TIP3    H173972   4.503   1.438   1.783  1.0404  0.6612  2.4260
17519TIP3    H273973   4.414   1.486   1.895 -4.2937 -1.7987 -0.3622
17520TIP3   OH273974   4.470   4.373  16.164 -0.7701  0.0064  0.2658
17520TIP3    H173975   4.424   4.424  16.231 -0.8531  0.9327 -0.4837
17520TIP3    H273976   4.417   4.382  16.085 -0.0497 -0.0816 -0.2422
17521TIP3   OH273977   1.870   2.724  16.689  0.0415 -0.3222  0.2715
17521TIP3    H173978   1.837   2.646  16.732 -2.3996  0.4374 -0.0136
17521TIP3    H273979   1.797   2.752  16.633  1.1033  1.7303 -0.1788
17522TIP3   OH273980   5.514   3.540  13.592 -0.2723  0.5067  0.2564
17522TIP3    H173981   5.599   3.509  13.623 -0.6621 -2.4255 -1.3087
17522TIP3    H273982   5.503   3.501  13.505 -2.7484  1.6797 -0.0579
17523TIP3   OH273983   4.279   1.290  13.460 -0.1672 -0.3278 -0.0651
17523TIP3    H173984   4.370   1.287  13.490 -1.0493 -2.8336  2.9732
17523TIP3    H273985   4.250   1.199  13.461 -2.4647  0.2663 -1.9687
17524TIP3   OH273986   5.501   0.719   4.524 -0.4531 -0.2721  0.0279
17524TIP3    H173987   5.453   0.643   4.492 -1.2984 -0.6493  2.0483
17524TIP3    H273988   5.435   0.772   4.569  0.4712  0.7609  0.2230
17525TIP3   OH273989   6.361   0.563   4.237  0.0685 -0.0143 -0.1798
17525TIP3    H173990   6.320   0.543   4.152  1.0711 -0.6658 -0.5289
17525TIP3    H273991   6.289   0.558   4.300 -0.4538 -0.8242 -0.8189
17526TIP3   OH273992   4.086   5.917  11.307 -0.1085 -0.0278  0.5750
17526TIP3    H173993   4.122   5.942  11.222  2.7416 -2.2925  0.9717
17526TIP3    H273994   4.022   5.849  11.286  0.0388 -0.0523  0.1916
17527TIP3   OH273995   2.592   4.452  13.553  0.6756 -0.0061 -0.1589
17527TIP3    H173996   2.656   4.523  13.559 -1.1843  2.1029 -2.9960
17527TIP3    H273997   2.515   4.485  13.600  0.2938 -0.8098 -0.2001
17528TIP3   OH273998   4.563   3.119  12.696  0.5771  0.9638 -0.3581
17528TIP3    H173999   4.597   3.100  12.784  2.1324  1.2946 -0.8601
17528TIP3    H274000   4.546   3.213  12.696 -2.0224  0.5721  0.4113
17529TIP3   OH274001   4.075   1.853   1.423  0.1649  0.7166  0.5400
17529TIP3    H174002   4.072   1.873   1.517 -0.8677  1.6807  0.3203
17529TIP3    H274003   4.120   1.928   1.384 -1.0300  1.1988  0.0582
17530TIP3   OH274004   5.966   0.767   0.316 -0.0561 -0.0686 -0.5236
17530TIP3    H174005   6.058   0.773   0.289 -0.3686  0.1651 -1.5607
17530TIP3    H274006   5.970   0.751   0.411  1.0193  2.4017 -0.0809
17531TIP3   OH274007   2.169   3.525   3.135 -0.3906 -0.1040 -0.6165
17531TIP3    H174008   2.264   3.526   3.126 -0.1911  1.2954  1.0227
17531TIP3    H274009   2.144   3.434   3.121  1.2668 -0.6114 -0.4747
17532TIP3   OH274010   6.710   5.507  12.269  0.1368  0.1532  0.1855
17532TIP3    H174011   6.634   5.490  12.214  0.2504 -0.2123  0.1402
17532TIP3    H274012   6.675   5.551  12.346 -0.0755  0.2936  0.0090
17533TIP3   OH274013   0.002   0.050  14.940 -0.1815  0.0614  0.0477
17533TIP3    H174014   0.031   0.017  14.855  1.1321 -0.9063  0.8361
17533TIP3    H274015  -0.040  -0.025  14.982 -1.8544  0.8417 -0.1736
17534TIP3   OH274016   2.637   1.742  12.959 -0.2197  0.3653 -0.3658
17534TIP3    H174017   2.656   1.754  12.865 -0.0804 -1.4669 -0.6036
17534TIP3    H274018   2.660   1.651  12.977  3.8006  1.6744  2.4426
17535TIP3   OH274019   2.832   0.585   0.035 -0.3036  0.4613  1.0350
17535TIP3    H174020   2.844   0.500  -0.005  2.0128  1.4502 -0.5754
17535TIP3    H274021   2.776   0.633  -0.026 -0.0269  0.7127  0.9791
17536TIP3   OH274022   6.219   4.240  17.320  0.7163 -0.2857  0.0991
17536TIP3    H174023   6.247   4.332  17.317  2.6429 -0.8260 -0.4084
17536TIP3    H274024   6.132   4.240  17.280  0.5948  1.3319  0.2756
17537TIP3   OH274025   5.142   3.437  13.604  0.3972 -0.0488 -0.0776
17537TIP3    H174026   5.178   3.391  13.528 -2.0883 -0.4009 -1.1331
17537TIP3    H274027   5.171   3.527  13.594  0.7721 -0.2608 -0.9979
17538TIP3   OH274028   6.620   2.713   2.470  0.3676 -0.2218  0.3687
17538TIP3    H174029   6.551   2.778   2.463  1.1522  0.6549  0.4894
17538TIP3    H274030   6.670   2.739   2.548  0.6679 -0.9908  0.4443
17539TIP3   OH274031   5.876   4.028   5.884 -0.0665 -0.5260 -0.1446
17539TIP3    H174032   5.858   3.992   5.971 -1.2140 -1.9225 -0.9024
17539TIP3    H274033   5.941   3.968   5.846 -1.0385 -1.1082 -0.9512
17540TIP3   OH274034   2.811   4.052   0.819  0.0043  0.3264  0.2589
17540TIP3    H174035   2.834   4.098   0.900  0.1074 -1.1916  1.1224
17540TIP3    H274036   2.857   4.100   0.750  2.9937 -0.5521  1.5162
17541TIP3   OH274037   6.619   2.548   6.434  0.5589 -0.1519 -0.5858
17541TIP3    H174038   6.692   2.607   6.417  0.7939 -0.8378 -2.1164
17541TIP3    H274039   6.659   2.461   6.439  0.1041 -0.3145  0.7384
17542TIP3   OH274040   6.225   3.606  11.576 -0.0163 -0.3295 -0.0590
17542TIP3    H174041   6.249   3.651  11.656 -1.2392  2.4366 -1.1484
17542TIP3    H274042   6.309   3.582  11.536  0.6710  0.5725  0.8093
17543TIP3   OH274043   1.822   0.994   2.864 -0.2378  0.0070 -0.1936
17543TIP3    H174044   1.882   0.956   2.928 -0.3105 -0.6247 -0.4955
17543TIP3    H274045   1.800   0.921   2.805 -1.4301  0.1746  0.0138
17544TIP3   OH274046   4.502   5.528   0.641  0.1238 -0.0815  0.6301
17544TIP3    H174047   4.437   5.503   0.707 -0.5563  1.0132  0.4222
17544TIP3    H274048   4.551   5.600   0.682  0.8124 -0.5052  0.5591
17545TIP3   OH274049   0.352   4.645   5.669 -0.4287  0.3587  0.2462
17545TIP3    H174050   0.325   4.555   5.652  0.7292 -0.0335  0.4147
17545TIP3    H274051   0.361   4.650   5.764 -2.1445  1.1660  0.4162
17546TIP3   OH274052   0.868   1.189   0.883 -0.0146 -0.1928  0.5396
17546TIP3    H174053   0.884   1.179   0.789  0.3121  1.7480  0.3413
17546TIP3    H274054   0.952   1.170   0.925 -0.2857 -1.5465  0.5023
17547TIP3   OH274055   4.866   3.486   1.493 -0.3676  0.4341  0.3868
17547TIP3    H174056   4.827   3.571   1.475 -0.3154  0.7589  1.7248
17547TIP3    H274057   4.960   3.502   1.494 -0.1359 -0.2637 -2.3978
17548TIP3   OH274058   5.777   2.619  16.605 -0.6073 -0.5052 -0.4166
17548TIP3    H174059   5.719   2.665  16.544  0.0659 -0.3194 -0.9343
17548TIP3    H274060   5.851   2.591  16.551  0.7819  1.0322  0.5928
17549TIP3   OH274061   6.317   6.362  14.608 -0.2085  1.1946  0.7799
17549TIP3    H174062   6.367   6.434  14.569  0.4741  0.8629  1.0259
17549TIP3    H274063   6.313   6.295  14.539 -0.0184  1.0843  0.8755
17550TIP3   OH274064   2.096   5.260   1.378 -0.0603 -0.2513  0.1814
17550TIP3    H174065   2.059   5.258   1.466 -3.6181 -0.1714 -1.1594
17550TIP3    H274066   2.126   5.170   1.363  3.0246  0.2809  2.2602
17551TIP3   OH274067   2.117   6.180  14.225  0.5720 -0.1252  0.1479
17551TIP3    H174068   2.158   6.120  14.287 -0.5783  1.2644  2.3839
17551TIP3    H274069   2.155   6.157  14.140  0.4867 -3.6725  0.9330
17552TIP3   OH274070   3.527   2.688   1.084  0.0254  0.2861  0.6174
17552TIP3    H174071   3.490   2.722   1.165  1.5219  3.2888  0.1776
17552TIP3    H274072   3.450   2.666   1.030 -0.9869  0.2001  2.0350
17553TIP3   OH274073   2.757   3.180  14.404  0.3121  0.1055  0.5525
17553TIP3    H174074   2.744   3.211  14.493  1.3753  1.4645  0.2654
17553TIP3    H274075   2.823   3.112  14.411  1.1179  0.8828  0.7150
17554TIP3   OH274076   2.229   1.928  14.278 -0.0435 -0.3902  0.2400
17554TIP3    H174077   2.197   2.017  14.288 -0.9183 -0.7833  0.9731
17554TIP3    H274078   2.151   1.876  14.259  0.7176 -0.6691 -2.6290
17555TIP3   OH274079   5.926   6.382  14.693 -0.4101  0.1183 -0.3043
17555TIP3    H174080   5.858   6.429  14.645 -0.3973  0.2178 -0.2263
17555TIP3    H274081   5.982   6.451  14.729 -1.0710  0.1008  0.8213
17556TIP3   OH274082   6.023   0.525   4.613  0.1193 -0.2769 -0.5104
17556TIP3    H174083   5.934   0.541   4.580 -1.0619 -1.7182  1.6807
17556TIP3    H274084   6.043   0.602   4.665 -0.7181 -0.7495  0.5692
17557TIP3   OH274085   6.225   5.513  13.767 -0.1579 -0.4544 -0.4942
17557TIP3    H174086   6.295   5.453  13.741 -0.3094 -0.6235 -0.5169
17557TIP3    H274087   6.248   5.596  13.726 -0.7974 -0.8998 -1.8187
17558TIP3   OH274088   0.008   0.267  15.992  0.2898 -0.9492  0.2974
17558TIP3    H174089  -0.043   0.324  16.049  1.0269 -1.4442  1.4836
17558TIP3    H274090  -0.039   0.269  15.908 -0.4924  0.2373  0.7374
17559TIP3   OH274091   0.462   5.573   1.793 -0.1512  0.4811  0.4293
17559TIP3    H174092   0.460   5.631   1.717  1.0287 -0.2211 -0.1705
17559TIP3    H274093   0.436   5.488   1.757 -0.1537  0.2673  0.9379
17560TIP3   OH274094   5.358   4.687  13.257 -0.1189 -0.4241 -0.3769
17560TIP3    H174095   5.306   4.663  13.333  1.2763 -1.2347  0.3458
17560TIP3    H274096   5.366   4.783  13.263  0.5722 -0.5441  0.9076
17561TIP3   OH274097   0.809   5.141  11.648 -0.2100  0.7214 -0.0500
17561TIP3    H174098   0.749   5.203  11.606  0.3289  1.5133  0.3191
17561TIP3    H274099   0.893   5.186  11.647  0.1588  0.0442  0.3620
17562TIP3   OH274100   4.744   4.440  11.043 -0.0871  0.5866  0.3485
17562TIP3    H174101   4.759   4.348  11.065 -0.5134  0.9033  2.2105
17562TIP3    H274102   4.677   4.438  10.975  1.6094 -0.5130 -1.3859
17563TIP3   OH274103   0.809   3.598  12.411  0.4255  1.0225 -0.0351
17563TIP3    H174104   0.723   3.567  12.439  0.1516  1.1018 -0.7782
17563TIP3    H274105   0.865   3.586  12.488 -0.0319  0.1241  0.1680
17564TIP3   OH274106   4.165   0.517  17.213  0.0861 -0.4080  0.0052
17564TIP3    H174107   4.159   0.509  17.118 -2.5140 -2.8058  0.2343
17564TIP3    H274108   4.101   0.585  17.235 -0.4699 -0.9491  0.1008
17565TIP3   OH274109   5.061   3.689  13.813 -0.2288  0.2664 -0.0353
17565TIP3    H174110   5.094   3.762  13.760  1.1836 -0.5459 -0.3351
17565TIP3    H274111   5.138   3.659  13.862 -1.3481  0.5906  2.0353
17566TIP3   OH274112   1.184   4.688  17.293  0.0604 -0.4341 -0.3031
17566TIP3    H174113   1.165   4.767  17.243 -0.0413  0.3447  0.9263
17566TIP3    H274114   1.253   4.644  17.244  2.0445  1.7808  0.3413
17567TIP3   OH274115   1.473   2.315  11.843  0.3642  0.2515 -0.2240
17567TIP3    H174116   1.560   2.324  11.881  0.1210 -1.7652  0.9474
17567TIP3    H274117   1.481   2.353  11.756  2.6582 -0.6291 -0.4646
17568TIP3   OH274118   5.807   3.992   6.152  0.4542 -0.3762  0.3152
17568TIP3    H174119   5.798   3.921   6.216 -0.2767 -1.2050 -0.6844
17568TIP3    H274120   5.740   4.055   6.176  0.3977 -0.5306  0.5649
17569TIP3   OH274121   6.071   2.482  11.293 -0.1487  0.3756  0.2004
17569TIP3    H174122   6.022   2.509  11.215  0.8959 -0.4453 -0.7751
17569TIP3    H274123   6.030   2.400  11.320 -0.7582  0.8555  0.7677
17570TIP3   OH274124   0.559   5.959  12.024  0.1326  0.4494 -0.4290
17570TIP3    H174125   0.479   5.991  11.981  0.7871  1.6061 -0.8217
17570TIP3    H274126   0.545   5.864  12.032 -1.8831  0.7943  0.8234
17571TIP3   OH274127   2.319   5.733  13.045  0.6023 -0.0057 -0.1490
17571TIP3    H174128   2.275   5.731  12.960 -0.6788 -0.9212  0.4964
17571TIP3    H274129   2.409   5.706  13.027  0.1985 -0.7373 -1.1382
17572TIP3   OH274130   4.185   0.581  16.036 -0.3540  0.4501 -0.4695
17572TIP3    H174131   4.260   0.583  15.976 -1.8839 -0.7977 -2.5420
17572TIP3    H274132   4.183   0.490  16.068 -1.2248  0.3684 -0.7487
17573TIP3   OH274133   5.491   4.069  14.854 -0.2121 -0.0556 -0.9087
17573TIP3    H174134   5.471   3.999  14.791 -1.5319 -0.1803 -0.3868
17573TIP3    H274135   5.419   4.065  14.917  0.2283  1.1330 -0.3086
17574TIP3   OH274136   5.796   5.327  11.684 -0.2758 -0.1892  0.4645
17574TIP3    H174137   5.861   5.321  11.754 -0.9338 -0.2957  1.0803
17574TIP3    H274138   5.720   5.279  11.717 -0.3304 -0.9143 -0.6500
17575TIP3   OH274139   1.341   4.692   0.871 -0.1934  0.1510 -0.8496
17575TIP3    H174140   1.436   4.685   0.885 -0.4287 -1.7817  0.1092
17575TIP3    H274141   1.330   4.772   0.819  2.0804 -0.3774 -2.2654
17576TIP3   OH274142   6.293   4.625  12.057 -0.1773  0.7099 -0.2020
17576TIP3    H174143   6.281   4.538  12.020  0.3883  0.2969  0.5512
17576TIP3    H274144   6.386   4.645  12.040  0.0420  0.5906  0.8023
17577TIP3   OH274145   6.032   6.487   1.732 -0.3575  0.0441  0.3587
17577TIP3    H174146   5.936   6.483   1.736 -0.3488  0.4028  1.2588
17577TIP3    H274147   6.056   6.538   1.809  0.4857  1.0455 -0.5266
17578TIP3   OH274148   5.578   0.608  13.778  0.1464 -0.0075  0.6256
17578TIP3    H174149   5.584   0.514  13.761  0.6259  0.2179 -0.5603
17578TIP3    H274150   5.530   0.615  13.861 -1.3560 -1.2459 -0.0945
17579TIP3   OH274151   5.955   3.624   0.883 -0.0168 -0.1253  0.8862
17579TIP3    H174152   5.941   3.588   0.795 -0.3183 -0.9880  1.2812
17579TIP3    H274153   5.921   3.557   0.942 -1.6141  1.2864  1.6293
17580TIP3   OH274154   4.741   6.634   4.684 -0.0476  0.0825  0.1351
17580TIP3    H174155   4.658   6.647   4.639 -0.0957  2.6477  0.8299
17580TIP3    H274156   4.740   6.541   4.709 -0.8607 -0.9744 -3.3307
17581TIP3   OH274157   4.355   4.035   1.539  0.0697  0.1227  0.1352
17581TIP3    H174158   4.418   3.967   1.516  0.4687  1.0563 -1.7519
17581TIP3    H274159   4.287   4.030   1.472  0.1091  1.5501 -0.0583
17582TIP3   OH274160   0.196   3.715   5.600  0.0239 -0.4497 -0.1445
17582TIP3    H174161   0.113   3.671   5.581 -0.0605 -2.1016  3.2661
17582TIP3    H274162   0.263   3.661   5.558 -0.3714 -1.7768  0.8779
17583TIP3   OH274163   2.395   4.540  16.976 -0.2787 -0.0727 -0.4040
17583TIP3    H174164   2.455   4.526  17.049  0.4734 -0.4177 -1.0617
17583TIP3    H274165   2.374   4.452  16.945 -1.6165  0.0240  0.1833
17584TIP3   OH274166   0.846   0.919   0.969  0.0794  0.0418  0.3174
17584TIP3    H174167   0.756   0.901   0.943  0.4704 -0.4269 -0.7912
17584TIP3    H274168   0.859   1.011   0.949  0.3778 -0.3148 -1.2712
17585TIP3   OH274169   3.411   3.638  16.981  0.1745 -0.2077 -0.5807
17585TIP3    H174170   3.415   3.589  16.899  0.6840 -0.1244 -0.6081
17585TIP3    H274171   3.357   3.715  16.960  0.3649 -0.1485 -0.8610
17586TIP3   OH274172   5.237   1.463  13.685  0.2957  0.0399  0.1417
17586TIP3    H174173   5.161   1.513  13.715 -0.8561 -0.4506 -1.7777
17586TIP3    H274174   5.251   1.492  13.595  2.3640  0.0362  0.4166
17587TIP3   OH274175   5.099   1.310  15.599 -0.3321 -0.2414  0.1687
17587TIP3    H174176   5.076   1.340  15.511  1.0968 -1.5448 -0.6899
17587TIP3    H274177   5.191   1.287  15.593  0.4111  1.6822  2.6052
17588TIP3   OH274178   0.920   0.048   1.292  0.0022 -0.0182  0.0605
17588TIP3    H174179   0.928   0.108   1.367 -1.8554 -2.0468  2.0056
17588TIP3    H274180   0.990  -0.015   1.305 -2.9020 -3.0777  2.9334
17589TIP3   OH274181   6.762   3.263  12.964 -0.0596 -0.0106 -0.4413
17589TIP3    H174182   6.809   3.346  12.961 -1.6389  1.1572  2.8880
17589TIP3    H274183   6.724   3.259  13.052 -0.6801 -3.9488 -0.6876
17590TIP3   OH274184   5.784   6.178  10.919 -0.8470 -0.0057  0.0565
17590TIP3    H174185   5.844   6.117  10.877 -1.2247  0.1402 -0.7247
17590TIP3    H274186   5.701   6.166  10.872 -0.3678  2.6859 -1.6939
17591TIP3   OH274187   5.500   4.523   2.511 -0.2958 -0.1387  0.1187
17591TIP3    H174188   5.496   4.594   2.446  0.0084  0.7488  1.0449
17591TIP3    H274189   5.442   4.551   2.581  0.3035 -0.5036  0.7802
17592TIP3   OH274190   1.734   6.667  12.715  0.5001  0.1711 -0.3174
17592TIP3    H174191   1.778   6.740  12.671  0.2786  0.6667  0.2747
17592TIP3    H274192   1.759   6.676  12.807 -1.6017  1.0398  0.2246
17593TIP3   OH274193   2.306   2.548   0.383 -0.1481  0.0726  0.3300
17593TIP3    H174194   2.269   2.528   0.469  0.4104 -0.3271  0.4819
17593TIP3    H274195   2.244   2.508   0.321  0.1759 -0.8791  0.5921
17594TIP3   OH274196   5.948   1.895  11.576 -0.3238  0.2471  0.3344
17594TIP3    H174197   6.044   1.896  11.572 -0.3500  0.5421 -0.3425
17594TIP3    H274198   5.924   1.803  11.572 -0.0610  0.1513  0.8269
17595TIP3   OH274199   2.390   5.759  17.316 -0.0032 -0.0066  0.2184
17595TIP3    H174200   2.347   5.821  17.257 -3.7283 -1.7895  0.7358
17595TIP3    H274201   2.453   5.712  17.260 -1.1339  0.4954 -1.5724
17596TIP3   OH274202   4.135   2.839   4.167 -0.0163 -0.3220  0.3357
17596TIP3    H174203   4.071   2.798   4.109  2.2760 -0.5590 -2.2044
17596TIP3    H274204   4.180   2.903   4.113  2.0555 -0.3292  1.9143
17597TIP3   OH274205   6.274   6.157   3.312  0.4733  0.1639  0.1556
17597TIP3    H174206   6.296   6.152   3.405  1.8410  2.0796 -0.0087
17597TIP3    H274207   6.222   6.079   3.295  0.2659 -0.2628  2.5051
17598TIP3   OH274208   5.569   3.598   3.326  0.3157 -0.6165  0.5716
17598TIP3    H174209   5.581   3.692   3.342 -0.3578 -0.4205 -0.0422
17598TIP3    H274210   5.533   3.565   3.409 -0.3041 -0.1638  0.4871
17599TIP3   OH274211   4.620   4.789  12.877  0.4944  0.0053 -0.4371
17599TIP3    H174212   4.640   4.760  12.788  1.1886  1.1557 -0.6751
17599TIP3    H274213   4.554   4.727  12.908 -0.1968 -0.0741 -1.9622
17600TIP3   OH274214   1.586   6.278  13.727  0.2029  0.4224  0.1665
17600TIP3    H174215   1.556   6.356  13.680 -1.3958 -0.9873 -1.2557
17600TIP3    H274216   1.679   6.271  13.705  0.0183  1.0843 -0.9098
17601TIP3   OH274217   4.205   1.656  12.102 -0.2132 -0.1394  0.6113
17601TIP3    H174218   4.292   1.691  12.123  1.4830 -2.8777 -1.1142
17601TIP3    H274219   4.180   1.699  12.020 -1.0978  1.5040  1.6985
17602TIP3   OH274220   3.693   1.836  15.047 -0.3015  0.3334 -0.0626
17602TIP3    H174221   3.687   1.811  15.140 -1.2259 -0.3185 -0.2807
17602TIP3    H274222   3.735   1.922  15.048 -1.2854  0.8308  1.0454
17603TIP3   OH274223   3.446   4.516  11.875 -0.3943  0.6522  0.3992
17603TIP3    H174224   3.382   4.584  11.851 -1.0695  0.1340  0.7051
17603TIP3    H274225   3.424   4.494  11.966 -0.0913  0.1099  0.3426
17604TIP3   OH274226   3.128   5.065  12.550  0.3757  0.2484 -0.4472
17604TIP3    H174227   3.059   5.003  12.575  2.0072 -0.9783  1.3300
17604TIP3    H274228   3.156   5.036  12.463 -0.4954 -0.0214 -0.6463
17605TIP3   OH274229   3.182   2.047  16.697  0.5331 -0.1885 -1.0617
17605TIP3    H174230   3.209   1.982  16.762 -2.6153 -0.5724  0.0409
17605TIP3    H274231   3.182   1.999  16.614  1.9168 -0.4610 -0.9405
17606TIP3   OH274232   3.657   1.973  17.322 -0.0967 -0.3575  0.1164
17606TIP3    H174233   3.660   1.994  17.228  0.3115 -0.5918  0.0740
17606TIP3    H274234   3.722   1.903  17.332 -0.0496 -0.2422  0.5981
17607TIP3   OH274235   3.718   6.407  14.307 -0.6393  1.1835 -0.0563
17607TIP3    H174236   3.635   6.361  14.322  0.1987 -0.5098 -0.3584
17607TIP3    H274237   3.783   6.337  14.304  0.6106  2.3520 -1.2492
17608TIP3   OH274238   5.999   3.745   2.926 -0.2932  0.0979  0.3088
17608TIP3    H174239   5.945   3.799   2.984 -0.9272 -0.1266 -0.0656
17608TIP3    H274240   6.082   3.792   2.921 -1.6585  2.5432 -2.1937
17609TIP3   OH274241   5.642   5.318  10.670 -0.0315  0.0845  0.2133
17609TIP3    H174242   5.678   5.336  10.757  0.0322  0.4021  0.1225
17609TIP3    H274243   5.678   5.388  10.615  1.1701 -0.9934 -0.4101
17610TIP3   OH274244   5.246   2.067   5.322 -0.4362  0.2922  0.1909
17610TIP3    H174245   5.208   2.128   5.386  0.5785  1.4078 -0.2365
17610TIP3    H274246   5.289   2.000   5.376  0.8724  1.5175  0.7150
17611TIP3   OH274247   0.484   1.712   3.849 -0.2519 -0.4435 -0.1320
17611TIP3    H174248   0.495   1.710   3.944 -0.5185 -1.0338 -0.1072
17611TIP3    H274249   0.566   1.747   3.815 -0.1284 -0.3006  0.3142
17612TIP3   OH274250   1.001   1.793  15.728  0.6249  0.2828 -0.6457
17612TIP3    H174251   1.019   1.860  15.663  0.7622 -0.3946 -1.3170
17612TIP3    H274252   1.083   1.745  15.736  0.3329 -0.2228 -0.6660
17613TIP3   OH274253   6.022   0.623  12.009  0.4723  0.0636  0.0455
17613TIP3    H174254   5.974   0.648  12.088  2.0307  1.2109  0.6998
17613TIP3    H274255   5.987   0.681  11.941 -1.5750 -1.6023 -0.4079
17614TIP3   OH274256   1.528   1.656  17.314 -0.1503 -0.0106 -0.4333
17614TIP3    H174257   1.472   1.694  17.247  0.0399 -0.9503 -1.1467
17614TIP3    H274258   1.469   1.604  17.368 -0.0750 -0.5830 -0.8789
17615TIP3   OH274259   4.711   1.108  16.862 -0.2356 -0.1275 -0.2489
17615TIP3    H174260   4.791   1.146  16.827 -0.5205  0.1206 -0.6449
17615TIP3    H274261   4.673   1.178  16.916 -0.4591 -0.0537 -0.5012
17616TIP3   OH274262   5.095   6.220  16.611 -0.0421 -0.0948 -0.5433
17616TIP3    H174263   5.080   6.289  16.676  2.7437  1.1872 -1.1440
17616TIP3    H274264   5.010   6.208  16.569 -1.1401  1.3211  1.1183
17617TIP3   OH274265   6.133   1.105   5.782  0.4508  0.4399 -0.2780
17617TIP3    H174266   6.068   1.175   5.794  0.5834  0.5154  0.0286
17617TIP3    H274267   6.209   1.149   5.746  0.4072  0.3872 -0.4365
17618TIP3   OH274268   0.228   0.013  14.144 -0.4008  0.3959 -0.1564
17618TIP3    H174269   0.164  -0.049  14.108 -0.7656  1.3492 -1.1926
17618TIP3    H274270   0.313  -0.026  14.123 -0.6124 -0.3021  0.2106
17619TIP3   OH274271   3.362   4.641  16.976  0.2426 -0.0812  0.1678
17619TIP3    H174272   3.285   4.593  17.007  0.9887 -1.9493 -0.7207
17619TIP3    H274273   3.436   4.600  17.022  0.8962  0.3366 -0.4930
17620TIP3   OH274274   3.048   5.585   5.866  0.2920  0.3159 -0.7125
17620TIP3    H174275   3.064   5.526   5.793 -0.1533 -0.1142 -0.4649
17620TIP3    H274276   3.114   5.654   5.856  0.4176  0.1068 -1.3513
17621TIP3   OH274277   5.349   1.197  15.557  0.5184 -0.1911  0.1350
17621TIP3    H174278   5.439   1.183  15.589  0.4226 -1.2491 -0.0206
17621TIP3    H274279   5.294   1.153  15.622  0.0452  1.0719  0.6221
17622TIP3   OH274280   3.308   4.814   3.727  0.2550  0.4785  0.3622
17622TIP3    H174281   3.263   4.796   3.645 -0.9311  1.6914  0.6901
17622TIP3    H274282   3.280   4.744   3.786 -1.3823  1.2518  0.5855
17623TIP3   OH274283   5.574   5.388   1.280 -0.3203  0.0308  0.2771
17623TIP3    H174284   5.541   5.396   1.369 -2.0488 -2.0001 -0.1021
17623TIP3    H274285   5.507   5.431   1.226  0.9134  1.6238 -0.0907
17624TIP3   OH274286   0.277   3.818   4.475 -0.6759 -0.5655 -0.0212
17624TIP3    H174287   0.363   3.783   4.452 -0.3562  0.5061 -0.5068
17624TIP3    H274288   0.276   3.906   4.438 -2.2574 -0.8139 -0.6602
17625TIP3   OH274289   3.140   4.399  16.080 -0.6574 -0.7976 -0.0400
17625TIP3    H174290   3.099   4.317  16.054  1.6194 -1.7104 -1.0649
17625TIP3    H274291   3.123   4.406  16.174  0.1533 -3.1595  0.3622
17626TIP3   OH274292   2.540   1.602  10.995 -0.2058  0.5115 -0.5670
17626TIP3    H174293   2.584   1.590  10.911  0.3057  1.7373 -0.4944
17626TIP3    H274294   2.501   1.689  10.990 -1.1428  0.1387  0.0464
17627TIP3   OH274295   4.766   4.011  14.697  0.0424  0.0369 -0.2490
17627TIP3    H174296   4.745   4.076  14.764 -0.0019 -0.7780  0.5449
17627TIP3    H274297   4.824   3.949  14.741  1.3724  0.3956 -1.4455
17628TIP3   OH274298   3.294   0.599   2.066 -0.6656  0.0558 -0.5571
17628TIP3    H174299   3.318   0.532   2.002  0.7928  0.7089 -0.7312
17628TIP3    H274300   3.318   0.682   2.024 -0.8024  0.5667  0.3554
17629TIP3   OH274301   1.456   6.560  12.783 -0.1195 -0.5355 -0.0448
17629TIP3    H174302   1.497   6.647  12.785 -0.7672 -0.2263 -0.1191
17629TIP3    H274303   1.400   6.562  12.705 -1.4420 -0.4172  0.8885
17630TIP3   OH274304   5.111   5.565   3.180  0.6551 -0.1984  0.3407
17630TIP3    H174305   5.037   5.569   3.119  0.0890 -0.0578  1.0313
17630TIP3    H274306   5.089   5.627   3.249  0.5599 -1.4648  1.4967
17631TIP3   OH274307   2.873   2.643   2.395  0.2669 -0.1975 -0.4658
17631TIP3    H174308   2.801   2.657   2.334  1.0668 -0.5756 -1.5303
17631TIP3    H274309   2.915   2.729   2.402 -1.1868  0.4161  1.3903
17632TIP3   OH274310   2.136   6.136   5.205  0.4907 -0.0136 -0.1730
17632TIP3    H174311   2.146   6.135   5.109  0.5673 -0.8317 -0.1701
17632TIP3    H274312   2.221   6.167   5.237  0.6885 -0.3553 -0.3551
17633TIP3   OH274313   0.398   3.052  13.365  0.1580  0.0451 -0.0678
17633TIP3    H174314   0.317   3.000  13.363 -1.1506  1.9637  0.8063
17633TIP3    H274315   0.464   2.994  13.326 -1.2895 -2.1221  0.5167
17634TIP3   OH274316   4.365   1.298   3.241 -0.0357 -0.7995  0.7075
17634TIP3    H174317   4.365   1.221   3.184  1.7559 -0.1776 -0.2184
17634TIP3    H274318   4.362   1.373   3.180 -2.3066 -0.0835  1.5943
17635TIP3   OH274319   6.090   5.632  13.322 -0.0772 -0.1946  0.3835
17635TIP3    H174320   6.011   5.591  13.288 -1.3328  2.6044 -0.3678
17635TIP3    H274321   6.147   5.643  13.246  0.1307 -0.2895  0.5228
17636TIP3   OH274322   4.870   2.972   2.014 -0.0591 -0.4190 -0.3027
17636TIP3    H174323   4.915   3.019   2.084  3.2595 -2.4897 -0.8052
17636TIP3    H274324   4.882   3.027   1.937  0.0698 -0.1056 -0.0629
17637TIP3   OH274325   3.216   0.070   1.756 -0.0697 -0.6767 -0.2658
17637TIP3    H174326   3.183   0.000   1.700  1.3773 -0.2614 -1.7034
17637TIP3    H274327   3.297   0.036   1.793  0.3929  0.0592 -0.5813
17638TIP3   OH274328   6.728   2.586   1.038 -0.7024 -0.5200 -0.9687
17638TIP3    H174329   6.778   2.609   1.117  1.0899 -2.2406 -1.5183
17638TIP3    H274330   6.694   2.670   1.006  3.1055  1.1107 -1.3300
17639TIP3   OH274331   5.755   0.834   4.104 -0.3373 -0.6790  0.4447
17639TIP3    H174332   5.807   0.758   4.131 -1.0991 -0.9781  1.0953
17639TIP3    H274333   5.746   0.886   4.184 -0.5445 -0.3407  0.2001
17640TIP3   OH274334   5.269   4.880   0.319  0.0217 -0.0154 -0.2376
17640TIP3    H174335   5.235   4.937   0.388 -0.0312  1.9488 -1.8031
17640TIP3    H274336   5.333   4.824   0.364  1.8941  2.9088  1.0058
17641TIP3   OH274337   1.682   3.211  11.741 -0.6948 -0.5074 -0.2480
17641TIP3    H174338   1.708   3.301  11.758  0.9287 -0.9985  0.0764
17641TIP3    H274339   1.605   3.218  11.685 -1.2445  1.0788  0.6389
17642TIP3   OH274340   6.460   6.331   4.151  0.3616  0.3087 -0.1757
17642TIP3    H174341   6.478   6.240   4.174  0.7783 -0.1787 -2.1909
17642TIP3    H274342   6.537   6.379   4.182 -0.9786  0.5019  3.2447
17643TIP3   OH274343   2.537   4.777  16.916  0.4748 -0.1794 -0.1192
17643TIP3    H174344   2.486   4.697  16.906  0.1161  0.3087 -3.2801
17643TIP3    H274345   2.479   4.837  16.963 -1.2132 -0.2652 -1.9669
17644TIP3   OH274346   6.768   5.811  15.837  0.1481 -0.2704  0.1009
17644TIP3    H174347   6.862   5.797  15.849  0.6455  0.7960 -2.0702
17644TIP3    H274348   6.742   5.745  15.773 -0.9091 -1.3563  1.5626
17645TIP3   OH274349   5.178   3.185  12.250  0.6843 -0.1637 -0.1045
17645TIP3    H174350   5.126   3.145  12.181 -0.8222  1.0193  0.2885
17645TIP3    H274351   5.170   3.125  12.325  1.4349 -0.8996 -0.5916
17646TIP3   OH274352   1.259   3.934  15.025  0.7143 -1.1925  0.4718
17646TIP3    H174353   1.175   3.888  15.026 -0.6582  1.1054 -0.2287
17646TIP3    H274354   1.282   3.939  14.933  2.0277 -2.3930  0.7023
17647TIP3   OH274355   3.699   6.437  12.724  0.3464  0.4095  0.3382
17647TIP3    H174356   3.742   6.352  12.721 -2.2371 -0.9910 -1.5287
17647TIP3    H274357   3.643   6.433  12.801  1.1846  0.9512  0.9794
17648TIP3   OH274358   4.274   3.926  17.043 -0.0090 -0.0281 -0.2291
17648TIP3    H174359   4.299   3.840  17.076 -0.2022  0.1279  0.3416
17648TIP3    H274360   4.294   3.923  16.950 -2.3360 -1.5901 -0.7647
17649TIP3   OH274361   4.961   0.720  13.850  0.0618 -0.7350 -0.1110
17649TIP3    H174362   5.016   0.773  13.792 -2.2155  1.3519 -0.5325
17649TIP3    H274363   4.961   0.767  13.933 -1.9749  0.0059 -0.4800
17650TIP3   OH274364   3.535   0.818  14.863  0.2204 -0.0499 -0.0489
17650TIP3    H174365   3.615   0.840  14.815 -0.8627 -0.4041 -2.1146
17650TIP3    H274366   3.488   0.901  14.872 -0.2470 -0.2129 -0.9152
17651TIP3   OH274367   5.431   3.543  15.348 -0.7376  0.0643  0.9650
17651TIP3    H174368   5.374   3.612  15.382 -2.0260 -0.2971 -0.3330
17651TIP3    H274369   5.518   3.584  15.343 -1.4842  1.6732  0.1167
17652TIP3   OH274370   4.914   0.800   2.128 -0.5053  0.3169 -0.0559
17652TIP3    H174371   4.941   0.715   2.093 -0.9663 -0.4855  1.4562
17652TIP3    H274372   4.819   0.800   2.119 -0.5593  0.4139  0.4825
17653TIP3   OH274373   0.535   1.613  10.515 -0.6952 -0.0945 -0.7359
17653TIP3    H174374   0.594   1.623  10.589 -1.4819 -0.0350 -0.1081
17653TIP3    H274375   0.567   1.535  10.470 -0.4376 -0.3522 -0.1214
17654TIP3   OH274376   1.219   1.822  17.107  0.4511  0.0034 -0.3369
17654TIP3    H174377   1.288   1.809  17.043  0.4273 -1.8917 -0.0324
17654TIP3    H274378   1.206   1.736  17.147 -1.1353  0.6144  0.5812
17655TIP3   OH274379   4.903   2.367  12.018 -0.7935  0.2819 -0.1386
17655TIP3    H174380   4.990   2.367  12.057 -1.1690  1.3306  0.7518
17655TIP3    H274381   4.913   2.414  11.935 -0.6001  0.8849  0.2190
17656TIP3   OH274382   2.334   3.720  12.424  0.1019 -0.6367  0.4298
17656TIP3    H174383   2.288   3.718  12.340  2.1616  1.6357 -0.9171
17656TIP3    H274384   2.426   3.707  12.400  0.9656  1.8430  2.0679
17657TIP3   OH274385   0.714   1.404  16.655  0.0751 -0.0380  0.5730
17657TIP3    H174386   0.658   1.327  16.642  2.5112 -1.5398 -2.4868
17657TIP3    H274387   0.796   1.367  16.689  1.8332  0.8074 -2.3651
17658TIP3   OH274388   3.590   2.251   0.748  0.0750  0.6660  0.0556
17658TIP3    H174389   3.680   2.219   0.736 -0.1562 -1.3576  2.7141
17658TIP3    H274390   3.545   2.225   0.668  1.9220  2.3595 -1.6596
17659TIP3   OH274391   2.892   0.991  16.068  0.4314  0.4149  0.4662
17659TIP3    H174392   2.911   0.907  16.026  0.6254 -0.1393  1.6402
17659TIP3    H274393   2.854   1.045  15.998  1.3701 -0.2512 -0.5798
17660TIP3   OH274394   1.282   0.737   0.159 -0.0559 -0.0904  0.3674
17660TIP3    H174395   1.288   0.657   0.212  1.1762 -0.4773 -0.3170
17660TIP3    H274396   1.371   0.770   0.153 -0.4215  0.8725 -0.0789
17661TIP3   OH274397   0.166   6.405  12.471  0.5900  0.1088 -0.1394
17661TIP3    H174398   0.215   6.333  12.432  0.8767  0.4762 -0.4634
17661TIP3    H274399   0.217   6.483  12.450 -1.0645  0.7413 -2.0868
17662TIP3   OH274400   0.394   2.585  13.413 -0.2082 -0.2543 -0.2892
17662TIP3    H174401   0.355   2.611  13.329 -2.0306 -0.3370  0.4804
17662TIP3    H274402   0.386   2.489  13.414 -0.4954 -0.2250  0.1193
17663TIP3   OH274403   5.483   1.123  14.854 -0.2416 -0.3100  0.6406
17663TIP3    H174404   5.416   1.083  14.799 -0.7771  2.4547 -0.9015
17663TIP3    H274405   5.453   1.108  14.943 -1.4665 -1.4516  0.0647
17664TIP3   OH274406   3.823   2.564   6.117 -0.2307  0.3639 -0.3973
17664TIP3    H174407   3.835   2.487   6.062  2.7192  0.8175 -0.5370
17664TIP3    H274408   3.762   2.619   6.069  0.1920 -0.4322 -1.8920
17665TIP3   OH274409   4.023   6.209   4.626  0.3018  0.1325 -0.2402
17665TIP3    H174410   4.025   6.296   4.586  0.7206  0.4969  0.5414
17665TIP3    H274411   4.096   6.210   4.689  1.4807 -1.4055 -1.4911
17666TIP3   OH274412   2.338   0.047  10.454 -0.3462  0.1590  0.1164
17666TIP3    H174413   2.295   0.087  10.529 -0.0291 -0.0118  0.3959
17666TIP3    H274414   2.307   0.097  10.378 -4.2077 -2.4212 -0.2659
17667TIP3   OH274415   0.911   3.298  11.364  0.0558  0.5139 -0.0049
17667TIP3    H174416   0.956   3.383  11.364  0.5239  0.2773 -0.7213
17667TIP3    H274417   0.918   3.268  11.273 -0.8440  0.0912  0.0623
17668TIP3   OH274418   5.394   6.733  14.717  0.5786  0.2718 -0.0729
17668TIP3    H174419   5.429   6.645  14.730  2.2760  0.7514 -1.0805
17668TIP3    H274420   5.384   6.768  14.805  1.1631 -0.4655  0.2978
17669TIP3   OH274421   4.235   2.353  16.818 -0.2129  0.2308 -0.0621
17669TIP3    H174422   4.232   2.336  16.724 -0.0142  1.5923 -0.3295
17669TIP3    H274423   4.260   2.269  16.856 -0.3280 -0.3519 -1.2108
17670TIP3   OH274424   6.741   5.628  12.720  0.2681 -0.1380 -0.1852
17670TIP3    H174425   6.658   5.616  12.765 -0.1646  2.8359  0.0351
17670TIP3    H274426   6.807   5.592  12.780 -0.7515 -2.0086 -0.1168
17671TIP3   OH274427   0.058   6.219  16.375  0.0931  0.0750  0.3518
17671TIP3    H174428   0.141   6.189  16.339 -0.1900 -2.3897  1.4953
17671TIP3    H274429  -0.008   6.168  16.328 -0.7674  1.6468 -0.2055
17672TIP3   OH274430   5.120   3.495   0.473  0.3554  0.1565  0.3924
17672TIP3    H174431   5.024   3.502   0.475  0.4099  0.8565  0.6832
17672TIP3    H274432   5.136   3.406   0.442 -0.3983 -0.1919  0.9534
17673TIP3   OH274433   1.120   0.759  17.099  0.1380 -0.2761 -0.0834
17673TIP3    H174434   1.025   0.750  17.100 -0.1207  1.9132  1.9904
17673TIP3    H274435   1.136   0.833  17.041  0.6612 -1.0783 -0.9829
17674TIP3   OH274436   0.670   6.711  13.905 -0.8983 -0.2650  0.1227
17674TIP3    H174437   0.690   6.706  13.999  0.5838  2.4162  0.0409
17674TIP3    H274438   0.659   6.804  13.887  4.0622  0.1190 -3.2000
17675TIP3   OH274439   5.241   4.757   2.802  0.3267 -0.0402  0.1072
17675TIP3    H174440   5.236   4.827   2.737  0.1450  1.5513  1.7625
17675TIP3    H274441   5.162   4.767   2.855  1.8180  0.6165  2.3739
17676TIP3   OH274442   5.563   5.373   5.007 -0.3715 -0.2790 -0.3392
17676TIP3    H174443   5.611   5.401   5.086  1.6650  1.2852 -1.9980
17676TIP3    H274444   5.557   5.278   5.015  0.6636 -0.2587  1.2439
17677TIP3   OH274445   3.484   3.493   4.851 -0.3961 -0.1423 -0.0502
17677TIP3    H174446   3.504   3.400   4.850 -1.3883 -0.3759  0.3618
17677TIP3    H274447   3.401   3.501   4.803 -0.0004  0.6119 -0.6243
17678TIP3   OH274448   2.165   3.051   1.766  0.2282  0.0387  0.3538
17678TIP3    H174449   2.245   3.057   1.819  0.5421  0.4100 -0.1590
17678TIP3    H274450   2.185   2.984   1.701 -0.1699 -0.4376  0.7098
17679TIP3   OH274451   0.210   0.320  13.176 -0.2265  0.0781  0.0148
17679TIP3    H174452   0.303   0.298  13.176 -0.1042  0.5828 -0.1803
17679TIP3    H274453   0.171   0.265  13.108 -0.1583 -0.4858  0.4262
17680TIP3   OH274454   0.016   3.766  17.124  0.2140 -0.2942  0.4829
17680TIP3    H174455   0.092   3.791  17.176  0.7636  0.1979 -0.5316
17680TIP3    H274456  -0.017   3.687  17.168  2.0391 -1.2572  0.2532
17681TIP3   OH274457   1.433   1.459   4.909 -0.1619  0.5173 -0.0220
17681TIP3    H174458   1.402   1.536   4.956  1.9276  2.2304 -1.2760
17681TIP3    H274459   1.480   1.407   4.975 -0.3573  1.0200  0.5203
17682TIP3   OH274460   0.573   6.444  11.952  0.0579 -0.4154  0.1851
17682TIP3    H174461   0.489   6.489  11.945  1.6522  2.7713 -0.1509
17682TIP3    H274462   0.588   6.435  12.046  0.0442  0.4639  0.2750
17683TIP3   OH274463   1.318   4.018   1.462 -0.3191 -0.1121  0.4680
17683TIP3    H174464   1.362   3.968   1.392  0.3378 -0.8114  1.3556
17683TIP3    H274465   1.362   3.990   1.542 -0.5638  1.2314  1.0938
17684TIP3   OH274466   2.439   5.577   3.874  0.4038 -0.2036  0.0432
17684TIP3    H174467   2.505   5.544   3.813 -0.3086 -1.5054 -0.0375
17684TIP3    H274468   2.407   5.657   3.833  0.1094 -0.9353 -1.1849
17685TIP3   OH274469   6.359   6.080   5.783  0.4620 -0.4085  0.3521
17685TIP3    H174470   6.273   6.120   5.769 -2.0174 -4.1096  3.0315
17685TIP3    H274471   6.383   6.045   5.697 -0.9445  0.2812 -0.3500
17686TIP3   OH274472   2.197   2.034  13.506  0.3833 -0.1789 -0.2970
17686TIP3    H174473   2.239   2.100  13.561 -0.7650  0.2786  0.0562
17686TIP3    H274474   2.140   1.985  13.565  0.2267 -0.6231 -0.8030
17687TIP3   OH274475   0.626   5.965   1.032  0.0461 -0.0456 -0.2616
17687TIP3    H174476   0.538   5.998   1.049 -0.2078 -0.2096 -1.1711
17687TIP3    H274477   0.615   5.871   1.019  0.1676  0.0772 -1.4358
17688TIP3   OH274478   3.275   6.459  15.933  0.2129 -0.0560 -0.1459
17688TIP3    H174479   3.317   6.523  15.876 -0.7443  1.1250  0.4395
17688TIP3    H274480   3.298   6.374  15.895  1.3003  0.6338 -1.0761
17689TIP3   OH274481   3.638   1.027  13.621 -0.4619 -0.2982 -0.3533
17689TIP3    H174482   3.657   1.116  13.650  0.4221 -0.9545  1.2467
17689TIP3    H274483   3.674   1.022  13.533  0.2258  0.6801 -0.1430
17690TIP3   OH274484   1.817   4.650  15.078 -0.4699  0.1954 -0.1448
17690TIP3    H174485   1.738   4.643  15.025 -0.8949  0.8556  0.3950
17690TIP3    H274486   1.797   4.603  15.158 -0.3678  0.4867  0.0533
17691TIP3   OH274487   4.932   3.877  14.864 -0.2155 -0.7886  0.3313
17691TIP3    H174488   4.975   3.819  14.927  0.7469 -0.6853 -0.2002
17691TIP3    H274489   4.977   3.860  14.781 -0.7471 -0.1644 -0.0972
17692TIP3   OH274490   4.782   2.925   3.635 -0.1034  0.2698 -0.1590
17692TIP3    H174491   4.758   3.017   3.644 -1.5050 -0.0557 -0.3465
17692TIP3    H274492   4.818   2.918   3.546 -0.0990  0.6127 -0.1854
17693TIP3   OH274493   1.781   3.240  14.796  0.4740  0.3115 -0.1741
17693TIP3    H174494   1.706   3.191  14.763 -0.3610  1.1134  0.4643
17693TIP3    H274495   1.796   3.205  14.884  2.3939 -1.4989 -1.1556
17694TIP3   OH274496   2.866   4.868   5.907  0.0877 -0.3007 -0.4436
17694TIP3    H174497   2.838   4.950   5.946 -1.9742 -1.8330  1.5518
17694TIP3    H274498   2.915   4.823   5.976 -0.9699 -1.7754 -0.5999
17695TIP3   OH274499   6.473   4.624  17.074  0.1338  0.2238  0.2231
17695TIP3    H174500   6.420   4.697  17.042  0.9811  0.8329  0.1798
17695TIP3    H274501   6.427   4.592  17.151  0.4990  1.7365  1.1007
17696TIP3   OH274502   1.347   4.550   2.803 -0.4857  0.2622  0.4950
17696TIP3    H174503   1.377   4.510   2.885  0.2448 -0.8211 -0.2806
17696TIP3    H274504   1.352   4.644   2.819  3.1717  0.2006  0.5259
17697TIP3   OH274505   6.729   1.129  16.664 -0.6728  0.2927  0.5859
17697TIP3    H174506   6.794   1.198  16.654  1.4741 -1.8611 -1.3001
17697TIP3    H274507   6.739   1.100  16.755  1.6310 -0.5440  0.1029
17698TIP3   OH274508   3.050   4.044  16.562 -0.4165  0.1917  0.8488
17698TIP3    H174509   3.006   4.099  16.627  0.1572  0.0892  1.3332
17698TIP3    H274510   3.033   3.955  16.592 -0.7983  0.1208  0.4262
17699TIP3   OH274511   0.164   4.266  16.648  0.1569 -0.0343  0.4631
17699TIP3    H174512   0.159   4.345  16.702 -0.7751 -0.2006  0.6379
17699TIP3    H274513   0.205   4.201  16.704  1.1729  0.3727  0.2336
17700TIP3   OH274514   5.314   0.383  12.587  0.5634  0.5150  0.1930
17700TIP3    H174515   5.308   0.319  12.658  0.7808 -1.0610 -1.1529
17700TIP3    H274516   5.407   0.403  12.580  0.5107  0.9002  0.5184
17701TIP3   OH274517   2.894   5.370   5.119  0.1414 -0.4763  0.8423
17701TIP3    H174518   2.898   5.405   5.030 -1.4207  1.7193  1.5753
17701TIP3    H274519   2.944   5.288   5.114 -1.3185 -1.3406 -2.4559
17702TIP3   OH274520   1.747   1.022  12.657  0.0976  0.3817  0.0255
17702TIP3    H174521   1.728   1.105  12.613  0.1529  0.6043  0.4159
17702TIP3    H274522   1.707   0.955  12.601  0.4360  0.6342 -0.5253
17703TIP3   OH274523   3.621   0.224  13.278 -0.1505 -0.3626 -0.5971
17703TIP3    H174524   3.668   0.245  13.359 -2.5427  1.3321  0.4954
17703TIP3    H274525   3.675   0.261  13.209  0.3441  1.2384  0.5724
17704TIP3   OH274526   6.582   4.491   5.638  0.4631  0.0741  0.0579
17704TIP3    H174527   6.535   4.457   5.562 -0.5276 -0.1085  0.7454
17704TIP3    H274528   6.519   4.488   5.709  1.4791 -0.0343  0.9705
17705TIP3   OH274529   3.454   4.367  13.877  0.6956 -0.0391  0.2044
17705TIP3    H174530   3.491   4.415  13.803  2.1568 -1.9061 -0.3587
17705TIP3    H274531   3.491   4.411  13.954 -0.2824  1.4736 -0.1338
17706TIP3   OH274532   3.944   0.034   3.804 -0.1387 -0.6781  0.2032
17706TIP3    H174533   3.922  -0.022   3.728  1.7923 -3.4634  1.5291
17706TIP3    H274534   4.034   0.061   3.789  0.4642 -1.7287  1.7016
17707TIP3   OH274535   3.657   0.274   2.892  0.3951 -0.3041  0.1028
17707TIP3    H174536   3.602   0.305   2.964  1.6022  1.6047  0.2652
17707TIP3    H274537   3.745   0.270   2.928  0.5093 -3.0444 -0.2446
17708TIP3   OH274538   0.429   0.526   5.573 -0.2020  0.2902 -0.1467
17708TIP3    H174539   0.434   0.620   5.558 -1.7713  0.3864 -0.2582
17708TIP3    H274540   0.464   0.514   5.661  2.1816  0.6486 -0.9770
17709TIP3   OH274541   1.309   0.334  11.308 -0.2275  0.4410  0.3840
17709TIP3    H174542   1.263   0.257  11.342 -2.0023  2.1077  2.0399
17709TIP3    H274543   1.240   0.387  11.268  0.9483  1.2100 -0.6803
17710TIP3   OH274544   0.902   3.864  15.812 -0.7990 -0.3102 -0.1639
17710TIP3    H174545   0.985   3.901  15.842 -0.7219 -1.0513  0.5775
17710TIP3    H274546   0.924   3.774  15.786 -1.1715 -0.1744 -0.9864
17711TIP3   OH274547   6.250   0.958  11.323  0.0642  0.0614  0.2229
17711TIP3    H174548   6.334   0.932  11.284  0.1577  0.0182  0.4536
17711TIP3    H274549   6.213   1.021  11.260  0.4350  0.3540  0.2930
17712TIP3   OH274550   1.741   6.118  15.689 -0.2997  0.2613 -0.5572
17712TIP3    H174551   1.777   6.145  15.773  1.9373  2.1276 -1.9605
17712TIP3    H274552   1.776   6.031  15.674 -1.1995 -0.3344  0.6482
17713TIP3   OH274553   6.239   2.243   5.575 -0.3137  0.1276  0.8001
17713TIP3    H174554   6.254   2.331   5.609  3.5642  0.2228 -0.6498
17713TIP3    H274555   6.159   2.251   5.522 -1.4963  2.0708  2.7187
17714TIP3   OH274556   3.219   4.608   2.563 -0.1513  0.0853  0.5657
17714TIP3    H174557   3.289   4.673   2.561 -0.9112  0.9127 -0.8499
17714TIP3    H274558   3.155   4.644   2.625  0.5173 -0.5137  1.6152
17715TIP3   OH274559   5.792   1.625   3.750  0.1977 -0.7583  0.0030
17715TIP3    H174560   5.718   1.612   3.691  0.0519  2.4296 -0.7310
17715TIP3    H274561   5.760   1.599   3.836 -1.7592  0.3691 -0.3269
17716TIP3   OH274562   5.665   2.336  12.348  0.4905 -0.5189 -0.1807
17716TIP3    H174563   5.732   2.344  12.280  0.7006 -1.0240 -0.0412
17716TIP3    H274564   5.708   2.364  12.429  0.3431 -0.2445 -0.1946
17717TIP3   OH274565   6.747   3.232  14.748 -0.2984 -0.6243 -0.3411
17717TIP3    H174566   6.822   3.175  14.767  1.5267  2.2554  2.1578
17717TIP3    H274567   6.676   3.198  14.802  0.3138 -1.4109 -0.0135
17718TIP3   OH274568   0.144   4.381  14.055 -0.4359  0.2502  0.0958
17718TIP3    H174569   0.094   4.453  14.093 -2.4309 -0.4955 -0.9645
17718TIP3    H274570   0.091   4.303  14.071  2.3037 -1.3248  2.4722
17719TIP3   OH274571   1.396   1.949   1.359 -0.1743  0.6077 -0.3611
17719TIP3    H174572   1.402   1.866   1.312 -0.3202 -0.6043  1.6281
17719TIP3    H274573   1.302   1.961   1.373 -0.1814  1.3422 -1.0250
17720TIP3   OH274574   6.720   4.259  12.028 -0.3481 -0.1299  0.2728
17720TIP3    H174575   6.693   4.217  12.110 -0.5598  0.2632  0.4074
17720TIP3    H274576   6.739   4.186  11.969 -0.5267 -0.4151  0.5641
17721TIP3   OH274577   5.601   3.771  14.973  0.1030  0.0022  0.0240
17721TIP3    H174578   5.593   3.852  15.023 -0.6709  0.1239 -0.2833
17721TIP3    H274579   5.685   3.734  15.001  0.0338  0.4404  0.8509
17722TIP3   OH274580   3.228   4.764   0.983 -0.3229  0.6816  0.1913
17722TIP3    H174581   3.139   4.757   0.948 -0.5903  0.6051  0.8514
17722TIP3    H274582   3.235   4.688   1.042  1.5678 -1.6441 -2.7575
17723TIP3   OH274583   2.337   5.128  13.599 -0.1560  0.5754  0.4446
17723TIP3    H174584   2.262   5.088  13.643  0.9839  0.6953  2.6064
17723TIP3    H274585   2.299   5.174  13.525 -1.7748 -2.6289 -0.9322
17724TIP3   OH274586   1.188   4.615  12.927 -0.2506  0.0773 -0.1579
17724TIP3    H174587   1.208   4.708  12.916  4.1662 -0.5060  1.2406
17724TIP3    H274588   1.159   4.608  13.018 -0.0758  0.0274 -0.1061
17725TIP3   OH274589   6.722   1.530   0.475  0.1956 -0.1072  0.2642
17725TIP3    H174590   6.636   1.526   0.434  0.3860  0.4611 -0.2099
17725TIP3    H274591   6.715   1.474   0.552 -1.2052  1.5164  1.3835
17726TIP3   OH274592   1.819   3.069   2.499 -0.9088 -0.9248 -0.0352
17726TIP3    H174593   1.914   3.064   2.502 -0.7005  1.1231 -1.3048
17726TIP3    H274594   1.796   3.038   2.411 -1.4727 -1.8455  0.4214
17727TIP3   OH274595   2.248   4.903  11.355 -0.6441  0.0046  0.3744
17727TIP3    H174596   2.259   4.991  11.319 -0.5576 -0.4865 -0.8582
17727TIP3    H274597   2.192   4.859  11.292  0.1875 -1.1485  0.4095
17728TIP3   OH274598   4.135   0.772  12.358 -0.1360 -0.2904 -0.3054
17728TIP3    H174599   4.050   0.729  12.362 -0.4313  0.0971 -1.7013
17728TIP3    H274600   4.130   0.827  12.280  1.0095  0.5875  0.2073
17729TIP3   OH274601   2.681   2.571   6.381 -0.0729 -0.1215  0.1970
17729TIP3    H174602   2.672   2.480   6.351 -0.0673 -0.6893  1.8442
17729TIP3    H274603   2.774   2.581   6.401  0.0160  0.4196 -0.4271
17730TIP3   OH274604   5.396   3.629   5.395  0.1247 -0.2029  0.0765
17730TIP3    H174605   5.410   3.685   5.471  1.9478 -0.9354  0.3366
17730TIP3    H274606   5.369   3.689   5.326  0.4943  0.7763  0.7545
17731TIP3   OH274607   4.534   6.013  13.741 -0.5849  0.4317  0.0416
17731TIP3    H174608   4.496   6.065  13.811 -0.7480  0.4043 -0.0245
17731TIP3    H274609   4.626   6.003  13.765 -0.5997  0.5756  0.1574
17732TIP3   OH274610   4.853   2.421  12.408  0.6796  0.1696 -0.0224
17732TIP3    H174611   4.809   2.346  12.368  0.4276 -0.4451  1.3625
17732TIP3    H274612   4.850   2.489  12.340  0.9293 -1.0541 -1.3136
17733TIP3   OH274613   6.564   1.197   1.003  0.0455  0.1085 -0.7324
17733TIP3    H174614   6.516   1.177   1.083 -4.0665  0.3074 -2.9068
17733TIP3    H274615   6.644   1.145   1.011 -2.1905 -3.5021  1.5458
17734TIP3   OH274616   0.816   3.152  13.494 -0.5492  0.0640 -0.3610
17734TIP3    H174617   0.851   3.070  13.530 -1.5133  0.0116  0.4923
17734TIP3    H274618   0.847   3.220  13.553  0.2930  0.3435 -1.0983
17735TIP3   OH274619   5.294   4.783  12.133  0.4236 -0.0514  0.7349
17735TIP3    H174620   5.361   4.826  12.080  1.1898 -3.8627 -1.8921
17735TIP3    H274621   5.340   4.755  12.212  1.6049 -1.1304 -0.2698
17736TIP3   OH274622   3.250   5.763   5.258  0.1727  0.4210  0.0688
17736TIP3    H174623   3.167   5.742   5.214 -0.2720  1.6169  0.2815
17736TIP3    H274624   3.317   5.744   5.193 -0.2340 -0.8979  0.0139
17737TIP3   OH274625   5.533   3.357  13.892 -0.1998  0.0961 -0.4509
17737TIP3    H174626   5.491   3.295  13.833 -0.5533 -0.4409  0.3401
17737TIP3    H274627   5.483   3.438  13.882 -1.2166 -0.4292  0.2067
17738TIP3   OH274628   5.500   2.353  13.990 -0.4978  0.2288 -0.2264
17738TIP3    H174629   5.433   2.316  14.047 -1.2263  1.3695 -0.2989
17738TIP3    H274630   5.512   2.443  14.022 -1.2800  1.0679 -2.1421
17739TIP3   OH274631   3.011   3.258   1.374 -0.7459  0.0055 -0.4707
17739TIP3    H174632   3.037   3.289   1.287  0.4174 -1.5768 -0.7409
17739TIP3    H274633   3.050   3.322   1.434  0.4535 -0.1447 -1.0479
17740TIP3   OH274634   4.876   5.241  16.803 -0.2406 -0.1688 -0.4123
17740TIP3    H174635   4.804   5.298  16.832 -0.7849  0.4154 -2.7039
17740TIP3    H274636   4.857   5.156  16.842 -2.0709  0.0287 -0.7943
17741TIP3   OH274637   1.991   6.092   2.473  0.1808  0.1479  1.0977
17741TIP3    H174638   1.931   6.028   2.512 -0.4230 -1.0338 -1.5272
17741TIP3    H274639   1.938   6.170   2.459 -1.3252 -1.3417 -2.4759
17742TIP3   OH274640   1.429   2.877   0.545  0.2254  0.0305 -0.0224
17742TIP3    H174641   1.450   2.783   0.540  1.3674  0.3083 -0.6984
17742TIP3    H274642   1.369   2.883   0.619 -0.4804 -1.3411 -0.4334
17743TIP3   OH274643   4.313   3.227   2.812 -0.0402  0.2135 -0.3513
17743TIP3    H174644   4.225   3.195   2.794 -0.7513  0.9823  1.4439
17743TIP3    H274645   4.301   3.318   2.838  0.5587 -0.7723  4.3970
17744TIP3   OH274646   2.301   0.740  12.060 -0.1615  0.1975  0.0246
17744TIP3    H174647   2.219   0.702  12.028 -0.1525 -0.8794  1.2084
17744TIP3    H274648   2.346   0.769  11.981 -0.9213 -0.7654 -0.7922
17745TIP3   OH274649   0.359   3.062  15.521  0.5790 -0.1912 -0.1263
17745TIP3    H174650   0.329   3.044  15.432  0.2087  0.8909 -0.2382
17745TIP3    H274651   0.315   2.997  15.576 -0.1360 -0.1024 -0.5864
17746TIP3   OH274652   4.965   6.108   2.888  0.0162  0.1030 -0.3850
17746TIP3    H174653   4.954   6.197   2.921  0.0591 -0.2358  0.5603
17746TIP3    H274654   5.022   6.066   2.952  0.1346 -0.5582 -0.9202
17747TIP3   OH274655   6.032   5.696  14.256 -0.0982  0.1694  0.4212
17747TIP3    H174656   6.010   5.625  14.195  1.5630 -0.6976  0.7759
17747TIP3    H274657   5.950   5.743  14.269 -0.9984 -1.0453 -0.6592
17748TIP3   OH274658   3.720   2.282   2.653  0.2672  0.1353  0.3377
17748TIP3    H174659   3.674   2.262   2.572  0.5974  0.3634  0.0909
17748TIP3    H274660   3.811   2.258   2.636  0.3036  0.0119  0.7026
17749TIP3   OH274661   2.998   2.947  11.167 -0.2355 -0.1849 -0.0399
17749TIP3    H174662   3.087   2.961  11.199  0.6970 -2.8882 -1.1776
17749TIP3    H274663   2.991   3.001  11.089 -0.5267  1.9655  1.3930
17750TIP3   OH274664   3.794   6.041  11.146  0.1645  0.5044  0.5290
17750TIP3    H174665   3.806   6.133  11.123 -1.6356  0.2126 -1.9887
17750TIP3    H274666   3.871   5.997  11.109  0.1521  0.8028  0.1366
17751TIP3   OH274667   5.676   5.167  14.020  0.1645  0.1761 -0.4165
17751TIP3    H174668   5.688   5.261  14.013  0.0841  0.1337 -1.1701
17751TIP3    H274669   5.751   5.136  14.071 -0.6659  0.8455  1.3035
17752TIP3   OH274670   2.304   2.341  12.279  0.1351  0.0925 -0.1389
17752TIP3    H174671   2.302   2.358  12.373 -1.7207 -1.9295  0.2696
17752TIP3    H274672   2.396   2.325  12.259  0.4934  0.0135  1.4485
17753TIP3   OH274673   0.568   2.814   1.398  0.1063 -0.0767 -0.7421
17753TIP3    H174674   0.496   2.771   1.351 -1.7308  1.3994  0.5463
17753TIP3    H274675   0.592   2.889   1.343 -0.0579  0.0145 -0.6898
17754TIP3   OH274676   3.809   2.258  14.581  0.7358 -0.1271 -0.2770
17754TIP3    H174677   3.900   2.286  14.564  0.5624 -0.8103 -2.7094
17754TIP3    H274678   3.773   2.328  14.636  1.8616  1.7423 -1.7765
17755TIP3   OH274679   2.319   2.129  11.964  0.1466  0.1532 -0.2524
17755TIP3    H174680   2.372   2.097  12.036 -0.9376 -0.7582  0.1747
17755TIP3    H274681   2.377   2.128  11.888  0.0878 -3.4738 -0.4047
17756TIP3   OH274682   0.875   0.063  16.675 -0.4575 -0.0508  0.5469
17756TIP3    H174683   0.887   0.158  16.684  3.0755 -0.1479 -1.1496
17756TIP3    H274684   0.898   0.028  16.761  0.0293  0.5689  0.6851
17757TIP3   OH274685   2.632   0.600   2.604 -0.0596  0.0980  0.2193
17757TIP3    H174686   2.655   0.540   2.534 -1.7235 -1.0626  0.5941
17757TIP3    H274687   2.578   0.548   2.664 -0.6563  1.6686  1.1272
17758TIP3   OH274688   2.348   0.203  15.476 -0.4973  0.1348 -0.3897
17758TIP3    H174689   2.355   0.284  15.526 -1.6585  0.7029 -1.0902
17758TIP3    H274690   2.337   0.134  15.542  0.8156  0.4784  0.2244
17759TIP3   OH274691   3.000   3.898  11.962 -0.3288  0.3021 -0.1666
17759TIP3    H174692   2.951   3.820  11.988  1.3431 -0.2261  1.6281
17759TIP3    H274693   3.076   3.864  11.915 -0.1211  0.9007 -0.2711
17760TIP3   OH274694   3.432   0.831  11.667  0.0547  0.1068  0.0022
17760TIP3    H174695   3.498   0.859  11.604 -0.1400  1.7089  0.4751
17760TIP3    H274696   3.425   0.904  11.729 -0.4257 -1.0309  1.3538
17761TIP3   OH274697   6.169   6.218  15.500 -0.1633  0.1281  0.0847
17761TIP3    H174698   6.098   6.264  15.454 -1.0433 -0.8997  0.3771
17761TIP3    H274699   6.208   6.285  15.556 -0.1010  1.0081 -0.9774
17762TIP3   OH274700   5.858   2.608   0.744 -0.8535  0.5756  0.2729
17762TIP3    H174701   5.840   2.527   0.697  1.2450  0.6889 -0.8227
17762TIP3    H274702   5.782   2.664   0.725 -1.6382 -0.6065 -0.1516
17763TIP3   OH274703   3.600   4.961   5.154 -0.3049  0.2941  0.9287
17763TIP3    H174704   3.573   4.872   5.130  0.9091 -0.1403  1.1310
17763TIP3    H274705   3.635   4.953   5.243  1.8624  0.5322  0.1526
17764TIP3   OH274706   1.355   5.594  14.484  0.0913 -0.2669  0.2603
17764TIP3    H174707   1.329   5.644  14.561 -0.0187 -0.1181  0.1281
17764TIP3    H274708   1.399   5.517  14.519  0.3687 -0.0174  0.4623
17765TIP3   OH274709   2.434   2.725  11.565 -0.7668  0.3938 -0.1998
17765TIP3    H174710   2.394   2.705  11.650  0.1021  1.8635  0.5913
17765TIP3    H274711   2.367   2.701  11.501 -1.8289  0.1818  0.9571
17766TIP3   OH274712   2.458   2.920  13.444 -0.4826 -0.8656  0.5323
17766TIP3    H174713   2.375   2.965  13.455  0.2262  1.1011 -1.3048
17766TIP3    H274714   2.436   2.836  13.406 -1.6462 -0.4592  0.2904
17767TIP3   OH274715   5.094   6.162  13.061 -0.6656  0.3045  0.2441
17767TIP3    H174716   5.043   6.123  12.990 -0.1244  1.1179 -0.6202
17767TIP3    H274717   5.039   6.233  13.094 -0.6728  0.2903  0.2630
17768TIP3   OH274718   3.915   5.928   4.057  0.2530 -0.1244  0.1259
17768TIP3    H174719   3.886   5.845   4.095  2.0682 -0.3260  1.1857
17768TIP3    H274720   3.927   5.909   3.964 -1.5289 -0.3947 -0.0895
17769TIP3   OH274721   0.623   6.284   2.474 -0.0807 -0.2642 -0.2678
17769TIP3    H174722   0.561   6.339   2.522  0.9050  2.1780 -1.5977
17769TIP3    H274723   0.620   6.199   2.519  0.2426  1.5719  3.6167
17770TIP3   OH274724   0.375   3.199   3.653  0.0689  0.1360 -0.0308
17770TIP3    H174725   0.326   3.140   3.596 -0.1774  0.8960 -0.6252
17770TIP3    H274726   0.356   3.168   3.742 -1.1928  0.1847 -0.2652
17771TIP3   OH274727   3.715   4.194  13.183  0.0716  0.3949 -0.1182
17771TIP3    H174728   3.756   4.259  13.126  1.2334 -0.2414 -0.0435
17771TIP3    H274729   3.621   4.212  13.177  0.1926  0.6055 -1.9015
17772TIP3   OH274730   0.172   5.473   5.460 -0.5623  0.4948  0.4875
17772TIP3    H174731   0.228   5.418   5.516 -0.9705 -0.0766  0.3438
17772TIP3    H274732   0.143   5.544   5.518  0.4045  0.8725  0.5303
17773TIP3   OH274733   3.737   3.496  16.556 -0.0853 -0.2770 -0.5246
17773TIP3    H174734   3.753   3.422  16.498  1.0287 -1.3113  1.0127
17773TIP3    H274735   3.819   3.506  16.605 -1.4413 -0.4973  1.9593
17774TIP3   OH274736   6.453   1.984   5.058 -0.0390  0.0547 -0.1609
17774TIP3    H174737   6.406   1.927   4.998 -0.5955  2.0104 -1.7065
17774TIP3    H274738   6.509   1.925   5.109 -2.9469 -2.1988  0.6679
17775TIP3   OH274739   4.511   0.249  15.839 -0.5643 -0.4566 -0.1808
17775TIP3    H174740   4.460   0.262  15.760  1.0680  1.8706 -0.9314
17775TIP3    H274741   4.588   0.198  15.811  0.3179  0.8809 -0.2573
17776TIP3   OH274742   3.391   0.446   2.717 -0.6685 -0.3215 -0.4476
17776TIP3    H174743   3.354   0.522   2.672 -0.4622 -0.1116 -0.2617
17776TIP3    H274744   3.381   0.465   2.810  0.2660 -0.0808 -0.3896
17777TIP3   OH274745   2.501   0.413  15.221 -0.7863 -0.0251 -0.3520
17777TIP3    H174746   2.453   0.492  15.246 -0.1456  0.3058 -0.1230
17777TIP3    H274747   2.492   0.354  15.296 -1.0708 -0.0807 -0.4283
17778TIP3   OH274748   1.639   3.249   5.934 -0.6210 -0.0553  0.0170
17778TIP3    H174749   1.685   3.217   6.012  0.1591  0.9040 -0.0296
17778TIP3    H274750   1.663   3.187   5.865 -1.0473 -0.7212  0.4595
17779TIP3   OH274751   6.440   2.939   1.768  0.2462 -0.3236  0.2458
17779TIP3    H174752   6.446   2.981   1.683  0.4262 -1.8370 -0.5189
17779TIP3    H274753   6.528   2.942   1.804  0.3654 -0.5267 -0.0351
17780TIP3   OH274754   6.545   3.206   3.153 -0.1287 -0.8080  0.8336
17780TIP3    H174755   6.491   3.285   3.152  1.2345  0.2175  2.2319
17780TIP3    H274756   6.528   3.166   3.238  0.8493 -0.7803  1.0557
17781TIP3   OH274757   2.484   3.030  16.252 -0.2278  0.0820  0.1400
17781TIP3    H174758   2.562   3.061  16.207 -1.0459  0.1532 -1.2774
17781TIP3    H274759   2.450   3.107  16.296  1.4119 -0.2988  2.2650
17782TIP3   OH274760   3.970   1.544   3.086  0.2361  0.0144  0.0222
17782TIP3    H174761   3.948   1.478   3.152  1.5950 -0.1789  0.3224
17782TIP3    H274762   3.920   1.519   3.009  0.0374 -0.8360  0.4142
17783TIP3   OH274763   1.317   2.407  12.810  0.4958 -0.1558  0.2521
17783TIP3    H174764   1.280   2.322  12.785 -1.0139  0.6123 -0.2436
17783TIP3    H274765   1.241   2.463  12.825  1.4557  1.2804 -0.0316
17784TIP3   OH274766   2.601   2.379  15.238 -0.3998 -0.1444  0.1011
17784TIP3    H174767   2.672   2.425  15.284 -0.0390 -1.0774  0.5002
17784TIP3    H274768   2.589   2.298  15.288 -1.4143 -0.2201 -0.2581
17785TIP3   OH274769   3.931   1.018   0.249  0.0224 -0.0637  0.0210
17785TIP3    H174770   3.839   1.030   0.273 -0.2930  3.4425 -2.0746
17785TIP3    H274771   3.980   1.061   0.319  0.0845 -1.5916  0.9426
17786TIP3   OH274772   1.611   0.644   1.463  0.2610  0.1256 -0.2321
17786TIP3    H174773   1.531   0.598   1.435  0.4257  0.0195 -0.5410
17786TIP3    H274774   1.653   0.582   1.523  1.4309 -0.9666 -2.0801
17787TIP3   OH274775   6.439   3.553   4.328 -0.2344 -0.1209  0.0491
17787TIP3    H174776   6.421   3.576   4.237 -0.9105 -0.8253 -0.0066
17787TIP3    H274777   6.384   3.476   4.344  0.8856 -0.8194  0.6472
17788TIP3   OH274778   1.194   4.414  14.940  0.0105 -0.0786  0.0458
17788TIP3    H174779   1.275   4.364  14.947 -0.5012 -1.3667 -2.2903
17788TIP3    H274780   1.128   4.358  14.981 -0.1794 -0.3439 -0.6117
17789TIP3   OH274781   5.276   0.331   0.022 -0.3019  0.5629 -0.0203
17789TIP3    H174782   5.181   0.337   0.010 -0.4103  0.8694  0.9197
17789TIP3    H274783   5.302   0.257  -0.033 -1.2461 -0.2478  0.5869
17790TIP3   OH274784   6.365   3.157   1.226 -0.2287  0.6165  0.3916
17790TIP3    H174785   6.330   3.208   1.153  2.9170  1.5090 -0.6486
17790TIP3    H274786   6.413   3.221   1.278 -0.3916 -0.4555  1.9224
17791TIP3   OH274787   3.479   4.690   0.588 -0.4009  0.2993  0.1625
17791TIP3    H174788   3.486   4.707   0.494 -0.7644  0.5822  0.1842
17791TIP3    H274789   3.567   4.704   0.622 -0.1416 -0.3608 -0.2228
17792TIP3   OH274790   1.108   0.459  15.627  0.3302 -0.2553 -0.1414
17792TIP3    H174791   1.032   0.436  15.680  0.8982  1.2426  1.4530
17792TIP3    H274792   1.154   0.376  15.614 -0.4900 -0.8636  0.6730
17793TIP3   OH274793   5.064   6.237   3.759  0.1480 -0.1381 -0.3091
17793TIP3    H174794   5.020   6.208   3.838  0.4836  0.9074  0.2826
17793TIP3    H274795   5.106   6.158   3.725  0.2969 -0.5333  0.7486
17794TIP3   OH274796   2.548   5.042   1.962  0.2725  0.2094 -0.0795
17794TIP3    H174797   2.547   5.019   2.055  0.7769 -1.9351 -0.5460
17794TIP3    H274798   2.591   5.128   1.959  2.1346 -0.5777  1.5221
17795TIP3   OH274799   0.214   1.692   6.241 -0.0359  0.8934  0.7003
17795TIP3    H174800   0.300   1.662   6.269  0.2735  1.2726  0.1519
17795TIP3    H274801   0.227   1.726   6.153 -1.2216 -1.3512 -0.4299
17796TIP3   OH274802   3.727   2.699  11.618  0.1543 -0.0327  0.3219
17796TIP3    H174803   3.782   2.621  11.613  2.3265  1.5255 -1.4682
17796TIP3    H274804   3.725   2.734  11.529 -3.3691  0.3194  0.3911
17797TIP3   OH274805   6.575   6.645  16.163  0.1095 -0.1848 -0.3693
17797TIP3    H174806   6.489   6.681  16.185  0.3017  0.1709 -0.1888
17797TIP3    H274807   6.613   6.619  16.247  0.1996 -0.2953 -0.4434
17798TIP3   OH274808   3.794   2.239   2.972  0.1970 -0.6157 -0.3054
17798TIP3    H174809   3.748   2.205   2.896  0.2266 -1.7726  0.1747
17798TIP3    H274810   3.827   2.325   2.944 -0.7555 -0.5344 -1.2073
17799TIP3   OH274811   0.775   6.502   1.185  0.2791 -0.7037 -0.2306
17799TIP3    H174812   0.722   6.581   1.173 -2.8678 -2.5602  0.2043
17799TIP3    H274813   0.741   6.441   1.121  2.7558 -1.7219 -0.6706
17800TIP3   OH274814   6.034   4.881   5.572  0.1717  0.0918 -0.3325
17800TIP3    H174815   6.084   4.806   5.604 -0.3941 -0.6301 -1.0937
17800TIP3    H274816   5.945   4.866   5.603  0.1835  0.8100  0.0830
17801TIP3   OH274817   3.694   2.971   4.509  0.3314 -0.7735 -0.1398
17801TIP3    H174818   3.765   2.989   4.447  0.9587 -0.3332  0.6968
17801TIP3    H274819   3.615   3.001   4.463  1.0404  1.9560  0.2222
17802TIP3   OH274820   1.938   6.514   0.853  0.4066  1.2411  0.0034
17802TIP3    H174821   1.995   6.544   0.924 -0.4235  1.7297  0.4763
17802TIP3    H274822   1.987   6.442   0.812  0.4685  0.2396  1.7206
17803TIP3   OH274823   6.228   3.161   2.425  0.3654  0.0909 -0.5635
17803TIP3    H174824   6.248   3.148   2.518 -1.0352  0.1862 -0.2287
17803TIP3    H274825   6.142   3.202   2.425  0.2065 -0.2073 -1.9193
17804TIP3   OH274826   0.703   6.006  11.229  0.0051 -0.4558  0.4131
17804TIP3    H174827   0.659   5.936  11.180  0.0285 -0.9906  1.1328
17804TIP3    H274828   0.753   6.054  11.163  0.6084 -1.5965  0.0171
17805TIP3   OH274829   2.704   5.623   0.991 -0.3004  0.1203  0.2842
17805TIP3    H174830   2.712   5.593   0.901  1.1331  0.5521  0.2345
17805TIP3    H274831   2.612   5.649   1.000 -1.0048 -1.9397 -0.3795
17806TIP3   OH274832   3.802   2.389   0.457  0.6108  0.3364 -0.2867
17806TIP3    H174833   3.734   2.442   0.500 -1.0361 -0.8075 -1.3490
17806TIP3    H274834   3.855   2.453   0.410  0.0165  1.2343  0.2240
17807TIP3   OH274835   4.633   4.875  15.757  0.4456  1.2421 -0.2462
17807TIP3    H174836   4.674   4.856  15.841 -0.9078  2.2479  0.6823
17807TIP3    H274837   4.575   4.801  15.740 -1.4810  2.3167  1.1972
17808TIP3   OH274838   6.358   2.674   0.232 -0.0350  0.6969 -0.4647
17808TIP3    H174839   6.368   2.583   0.258 -0.0241  0.7252 -0.3680
17808TIP3    H274840   6.270   2.679   0.194  0.3042  0.4532 -1.2970
17809TIP3   OH274841   5.449   6.401   1.822  0.1267 -0.3337  0.5809
17809TIP3    H174842   5.449   6.491   1.789 -0.4726 -0.9746 -1.3050
17809TIP3    H274843   5.361   6.389   1.858 -0.2016 -0.5103 -0.2533
17810TIP3   OH274844   4.796   6.715   1.443 -0.0528 -0.2299 -0.6775
17810TIP3    H174845   4.739   6.690   1.371 -0.8898 -0.9799  0.2176
17810TIP3    H274846   4.737   6.732   1.517  0.7165  1.4419 -0.4071
17811TIP3   OH274847   5.135   4.570   5.569 -0.1395 -0.2846  0.2325
17811TIP3    H174848   5.205   4.549   5.507 -0.3056  0.8618 -0.3786
17811TIP3    H274849   5.180   4.596   5.649  0.1545  0.7103 -0.2436
17812TIP3   OH274850   5.849   2.344  13.286  0.6450 -0.3148  0.3143
17812TIP3    H174851   5.759   2.372  13.304  0.9821  1.6831 -0.8042
17812TIP3    H274852   5.901   2.380  13.358  0.8261  0.3768 -0.1530
17813TIP3   OH274853   5.630   1.867  12.689 -0.1089  0.4483  0.1920
17813TIP3    H174854   5.637   1.957  12.657 -0.9358  0.4320 -0.0358
17813TIP3    H274855   5.696   1.819  12.640  1.3589  1.1981  1.3319
17814TIP3   OH274856   0.193   1.875  14.496 -0.4635 -0.3853 -0.2674
17814TIP3    H174857   0.153   1.823  14.566  1.6371 -0.1330  1.2230
17814TIP3    H274858   0.173   1.966  14.519  0.8449 -0.2594  0.4705
17815TIP3   OH274859   0.031   0.864  14.579  0.0627 -0.4236  0.3205
17815TIP3    H174860   0.056   0.909  14.498  1.8156 -0.5963  0.7249
17815TIP3    H274861  -0.033   0.798  14.550  1.0597 -0.8469 -1.0283
17816TIP3   OH274862   2.339   0.599   3.676 -0.4040  0.0853 -0.2120
17816TIP3    H174863   2.382   0.587   3.592 -2.3322 -0.0892 -1.2280
17816TIP3    H274864   2.331   0.694   3.686 -1.8440  0.1046 -1.1848
17817TIP3   OH274865   5.281   6.216  11.404 -0.5930  0.0760 -0.5675
17817TIP3    H174866   5.318   6.221  11.491 -0.1406 -1.2279 -0.6693
17817TIP3    H274867   5.331   6.148  11.360 -1.6900 -0.2144 -1.4088
17818TIP3   OH274868   6.700   0.118   3.914  0.4416 -1.1512  0.4425
17818TIP3    H174869   6.672   0.169   3.838  1.6516 -0.7689  0.2355
17818TIP3    H274870   6.618   0.090   3.955 -0.2394  0.0298 -0.0566
17819TIP3   OH274871   5.542   6.561   4.177 -0.2972 -0.3390 -0.5344
17819TIP3    H174872   5.620   6.604   4.141  4.0875 -4.6908  2.4279
17819TIP3    H274873   5.558   6.558   4.271 -2.4441 -4.0766 -0.0844
17820TIP3   OH274874   3.080   2.575   5.954  0.7881 -0.0632 -0.4827
17820TIP3    H174875   3.099   2.666   5.931 -0.1704  0.2414 -0.0981
17820TIP3    H274876   3.107   2.568   6.046  0.8755 -0.1809 -0.5165
17821TIP3   OH274877   5.409   0.877  12.622 -0.3773  0.1828  0.1175
17821TIP3    H174878   5.372   0.797  12.584 -1.7137  0.1285  1.4548
17821TIP3    H274879   5.334   0.930  12.646  0.4715  1.2270  0.5696
17822TIP3   OH274880   2.505   3.017  16.588  0.2373  0.2666 -0.4049
17822TIP3    H174881   2.537   3.097  16.629  1.1566 -0.2803 -0.0059
17822TIP3    H274882   2.572   2.995  16.523 -0.2818  0.1120 -0.8994
17823TIP3   OH274883   5.079   3.379   3.657  0.2277 -0.1791  0.4160
17823TIP3    H174884   5.134   3.301   3.670  0.6578  0.3435  1.8265
17823TIP3    H274885   5.091   3.401   3.564  1.5145 -0.7356  0.4289
17824TIP3   OH274886   3.540   2.737   0.221  0.0799 -0.7836  0.0966
17824TIP3    H174887   3.579   2.816   0.184  0.2492 -0.8897  0.0473
17824TIP3    H274888   3.601   2.667   0.198  1.5553 -0.5043  2.7143
17825TIP3   OH274889   5.538   2.381   2.434 -0.0790 -0.1254 -0.3862
17825TIP3    H174890   5.479   2.433   2.488  0.4011  0.0795 -0.0495
17825TIP3    H274891   5.509   2.291   2.446 -0.9484  0.0478 -1.0096
17826TIP3   OH274892   5.632   2.267   5.821  0.0763  0.2565 -0.2568
17826TIP3    H174893   5.702   2.313   5.774 -0.9813 -0.2110 -2.4299
17826TIP3    H274894   5.609   2.194   5.764 -0.1855 -1.3728  1.8201
17827TIP3   OH274895   5.726   1.258  14.160  0.4446 -0.9497 -0.0743
17827TIP3    H174896   5.721   1.235  14.253 -0.3068 -3.1416 -0.5929
17827TIP3    H274897   5.635   1.265  14.133  0.6643  0.5777 -0.4733
17828TIP3   OH274898   4.474   5.964   1.545 -0.1708 -0.0841 -0.1598
17828TIP3    H174899   4.564   5.937   1.531 -0.4476 -0.5043 -1.1532
17828TIP3    H274900   4.481   6.038   1.606  0.7951 -0.4449  0.1899
17829TIP3   OH274901   5.732   1.862   0.426  0.2571 -0.2603  0.3541
17829TIP3    H174902   5.766   1.857   0.337  0.3547  2.9073  0.1304
17829TIP3    H274903   5.646   1.821   0.421 -0.4409  1.3209 -1.6103
17830TIP3   OH274904   6.046   3.119  16.117  0.1309 -0.0298 -0.1118
17830TIP3    H174905   6.011   3.168  16.042 -0.7303 -1.0146 -0.3695
17830TIP3    H274906   5.969   3.099  16.170  0.6588  0.0941  0.7167
17831TIP3   OH274907   0.644   1.852   3.217 -0.0258 -0.1524 -0.3429
17831TIP3    H174908   0.568   1.904   3.245 -0.7741 -1.7271  0.7136
17831TIP3    H274909   0.655   1.786   3.286  1.8914 -0.3960 -0.8268
17832TIP3   OH274910   5.713   2.382  14.903 -0.0900 -0.0520  0.6610
17832TIP3    H174911   5.763   2.432  14.967 -0.2045 -1.5481  1.9966
17832TIP3    H274912   5.679   2.307  14.953 -1.6895 -0.3188 -0.7537
17833TIP3   OH274913   1.721   0.695   2.845  0.1322 -0.1112  0.0001
17833TIP3    H174914   1.709   0.611   2.800  1.2448 -1.2713  1.7599
17833TIP3    H274915   1.814   0.715   2.835  0.1469  0.2240  0.7508
17834TIP3   OH274916   1.663   2.565   2.181  0.1260  0.3259  0.6035
17834TIP3    H174917   1.695   2.632   2.120 -0.4854  0.4778  0.4426
17834TIP3    H274918   1.739   2.510   2.198  0.6675  1.1216  0.8188
17835TIP3   OH274919   5.639   6.282   2.686 -0.4884 -0.1649  0.1883
17835TIP3    H174920   5.556   6.326   2.707  0.1136  1.4347 -0.6361
17835TIP3    H274921   5.613   6.205   2.636 -1.5170  0.1044  0.2867
17836TIP3   OH274922   6.315   0.695  11.520 -0.7486  0.3303  0.8085
17836TIP3    H174923   6.252   0.666  11.587 -0.3628 -1.0944  0.5692
17836TIP3    H274924   6.287   0.651  11.440 -0.6445  1.2991  0.2155
17837TIP3   OH274925   6.665   3.990   3.051 -0.0833  0.0988 -0.3615
17837TIP3    H174926   6.596   3.980   3.117  0.2968 -0.5279 -0.0452
17837TIP3    H274927   6.693   4.081   3.059 -1.9957  0.8536 -1.6352
17838TIP3   OH274928   5.208   5.329   2.673 -0.7451 -0.2363  0.5211
17838TIP3    H174929   5.195   5.236   2.693  1.8562 -0.8400 -0.2673
17838TIP3    H274930   5.275   5.358   2.735  0.1029  0.5066 -0.7068
17839TIP3   OH274931   3.016   6.078  12.738  0.6169 -0.6247  0.3724
17839TIP3    H174932   2.985   6.152  12.788  1.1544  0.8425 -1.3540
17839TIP3    H274933   2.966   6.082  12.656 -0.2958 -2.9753  0.7297
17840TIP3   OH274934   1.910   4.492  13.412  0.1909 -0.1795 -0.0139
17840TIP3    H174935   1.861   4.414  13.386 -1.6602  1.0278 -0.3562
17840TIP3    H274936   1.952   4.522  13.332  1.1439 -0.9490  0.1779
17841TIP3   OH274937   0.720   2.358   0.163 -0.0102 -0.1074 -0.1594
17841TIP3    H174938   0.711   2.277   0.113  0.8837 -1.4798  1.7838
17841TIP3    H274939   0.677   2.340   0.246  0.0562  1.4938  0.2499
17842TIP3   OH274940   4.754   4.248   2.181  0.1347  0.2385 -0.3945
17842TIP3    H174941   4.827   4.194   2.211  0.4110  0.6062 -0.3960
17842TIP3    H274942   4.746   4.316   2.248 -0.5442 -0.0987 -0.1209
17843TIP3   OH274943   6.443   1.274   0.135  0.3760 -0.0396  0.3271
17843TIP3    H174944   6.399   1.322   0.066 -1.0623 -0.1206  1.1380
17843TIP3    H274945   6.405   1.309   0.216  1.5443 -0.3949  1.0501
17844TIP3   OH274946   4.869   3.082   0.236 -0.1300  0.1033 -0.3922
17844TIP3    H174947   4.900   3.003   0.193  0.2943 -0.2750  0.5625
17844TIP3    H274948   4.891   3.069   0.329  2.6214  2.5448 -0.5299
17845TIP3   OH274949   4.019   1.189  13.020  0.0984 -0.5461  0.3932
17845TIP3    H174950   4.063   1.127  12.962  1.5319  1.7613 -1.1768
17845TIP3    H274951   3.942   1.217  12.971 -1.5527 -2.2654  1.8399
17846TIP3   OH274952   6.253   6.536  16.608 -0.8942  0.3445  0.2910
17846TIP3    H174953   6.160   6.539  16.631 -1.4334  0.7383 -1.7025
17846TIP3    H274954   6.259   6.465  16.544  0.1510  0.4390  0.2777
17847TIP3   OH274955   3.107   1.438   3.233 -0.3239  0.3198  0.1807
17847TIP3    H174956   3.123   1.408   3.144 -1.7286  1.8325 -0.6149
17847TIP3    H274957   3.193   1.439   3.274  0.8549  2.5471 -2.1057
17848TIP3   OH274958   3.220   3.802  11.834 -0.2837  0.0183 -0.5637
17848TIP3    H174959   3.180   3.741  11.772  0.8487 -0.2626 -1.0303
17848TIP3    H274960   3.299   3.758  11.864 -2.2084 -1.2389  3.4184
17849TIP3   OH274961   2.158   0.606   0.049  0.3392 -0.3610  0.0078
17849TIP3    H174962   2.067   0.590   0.025  0.5574  0.3033 -1.3274
17849TIP3    H274963   2.183   0.528   0.098 -1.3225  0.0159  1.5818
17850TIP3   OH274964   0.178   1.391  12.243 -0.4097  0.2029 -0.3062
17850TIP3    H174965   0.118   1.319  12.224 -1.6207  0.6989  1.4185
17850TIP3    H274966   0.121   1.463  12.272  0.7125  2.0253 -2.2714
17851TIP3   OH274967   3.380   1.692  12.804 -0.3787 -0.2182  0.4288
17851TIP3    H174968   3.296   1.728  12.834 -0.2917  1.1819 -0.8700
17851TIP3    H274969   3.411   1.755  12.740  1.8372 -0.5675  1.0821
17852TIP3   OH274970   4.548   0.229  11.230  0.1336  0.0533  0.1795
17852TIP3    H174971   4.620   0.242  11.168 -1.2739 -0.0064 -1.5564
17852TIP3    H274972   4.557   0.137  11.256 -0.1139 -0.3792 -1.1444
17853TIP3   OH274973   1.120   6.079  15.980  0.3892 -0.2319 -0.1347
17853TIP3    H174974   1.091   6.133  15.907 -0.7890 -1.2231 -0.4298
17853TIP3    H274975   1.148   6.142  16.047  2.9755  0.7055 -1.9377
17854TIP3   OH274976   0.088   2.359   5.076  0.4939 -0.0556 -0.0387
17854TIP3    H174977   0.170   2.312   5.091  0.1064 -0.0645  2.4114
17854TIP3    H274978   0.027   2.292   5.045  0.4587 -0.8441  1.6404
17855TIP3   OH274979   4.645   3.574   3.631 -0.0395 -0.3824 -0.1324
17855TIP3    H174980   4.688   3.633   3.693  0.2440 -0.3596 -0.3489
17855TIP3    H274981   4.685   3.596   3.547 -0.0221 -0.7991 -0.2327
17856TIP3   OH274982   5.421   0.586  13.463  0.3255  0.1006 -0.2368
17856TIP3    H174983   5.487   0.545  13.407 -0.2940 -0.8508 -0.2851
17856TIP3    H274984   5.376   0.648  13.405  0.0393 -0.4933 -0.6612
17857TIP3   OH274985   1.678   1.912   0.764  0.1595  0.5537 -0.0301
17857TIP3    H174986   1.632   1.985   0.722 -0.2557 -0.0838 -0.7031
17857TIP3    H274987   1.700   1.853   0.693  3.2346  1.4276  0.0774
17858TIP3   OH274988   1.927   4.001  13.401 -0.0388  0.0142 -0.3726
17858TIP3    H174989   1.916   3.995  13.496 -1.6497  0.5409 -0.4846
17858TIP3    H274990   1.995   3.937  13.380  0.9931  0.5524  1.2302
17859TIP3   OH274991   4.728   0.350  14.031 -0.2604 -0.0882  0.2923
17859TIP3    H174992   4.698   0.303  13.954  1.0357 -0.1561 -0.1924
17859TIP3    H274993   4.809   0.394  14.003  0.1345  0.0325  1.5494
17860TIP3   OH274994   3.093   3.208   3.265 -0.0215 -0.4597 -0.2803
17860TIP3    H174995   3.047   3.157   3.198 -1.4986 -0.1005  0.4130
17860TIP3    H274996   3.173   3.238   3.222 -2.0515  1.9064 -2.7988
17861TIP3   OH274997   3.769   5.588   3.190  0.0083  0.0895 -0.3873
17861TIP3    H174998   3.836   5.561   3.252  0.2942 -0.3493 -0.8809
17861TIP3    H274999   3.816   5.641   3.125  0.5702 -2.8201 -2.5601
17862TIP3   OH275000   4.276   3.983   0.291 -0.3805 -0.1310 -0.6604
17862TIP3    H175001   4.347   3.924   0.265 -0.2078 -0.2560  0.0660
17862TIP3    H275002   4.294   4.002   0.383 -0.0333  1.6187 -1.0581
17863TIP3   OH275003   4.493   1.681   3.639 -0.5205 -0.3827 -0.3983
17863TIP3    H175004   4.435   1.733   3.583 -0.8986 -1.9946 -1.5878
17863TIP3    H275005   4.456   1.592   3.635 -0.7453 -0.5299  2.7036
17864TIP3   OH275006   2.651   6.349  15.220  0.0253 -0.1228 -0.0543
17864TIP3    H175007   2.649   6.445  15.225 -0.2492 -0.0729 -1.0168
17864TIP3    H275008   2.643   6.321  15.311  0.4740  0.7728  0.2743
17865TIP3   OH275009   4.310   1.885  14.373  0.4583  0.7630  0.0813
17865TIP3    H175010   4.261   1.955  14.415 -1.8958 -1.0800  0.6440
17865TIP3    H275011   4.343   1.831  14.446 -1.0628 -0.7827 -0.3153
17866TIP3   OH275012   3.163   5.014   3.885 -0.2322 -0.0217 -0.3346
17866TIP3    H175013   3.203   4.945   3.832  1.0281  0.8471 -0.5353
17866TIP3    H275014   3.158   5.089   3.827 -0.3903  0.4497  0.2793
17867TIP3   OH275015   1.050   0.922   1.976  0.0805  0.3734 -0.3005
17867TIP3    H175016   0.983   0.990   1.970 -1.4112 -0.7733  1.9368
17867TIP3    H275017   1.122   0.963   2.024 -0.2896  0.7437 -0.0530
17868TIP3   OH275018   2.386   5.211   4.202 -0.1581 -0.1063  0.4078
17868TIP3    H175019   2.457   5.235   4.261  1.4178 -1.1540 -0.9440
17868TIP3    H275020   2.349   5.131   4.240 -0.3677  0.2380  0.9264
17869TIP3   OH275021   6.363   2.139  14.042 -0.2046  0.3465  0.0624
17869TIP3    H175022   6.403   2.141  14.129  0.7483 -1.2754 -0.2861
17869TIP3    H275023   6.391   2.055  14.005 -0.5969  0.9848 -1.8019
17870TIP3   OH275024   0.827   1.038  12.715  0.4016  0.7054 -0.2110
17870TIP3    H175025   0.914   1.003  12.730  0.9813  2.1573  0.0180
17870TIP3    H275026   0.839   1.133  12.711 -1.0115  0.8828 -1.2902
17871TIP3   OH275027   2.115   2.274  12.105 -0.0912  0.3456  0.4628
17871TIP3    H175028   2.156   2.201  12.059  1.4864 -0.3330  2.7802
17871TIP3    H275029   2.180   2.302  12.169 -1.7678  1.8922  1.6060
17872TIP3   OH275030   4.107   3.415   5.550  0.2588  0.4549 -0.6455
17872TIP3    H175031   4.079   3.481   5.486  0.8281  1.5884  0.2281
17872TIP3    H275032   4.057   3.337   5.528 -2.7670  2.0190  0.1146
17873TIP3   OH275033   5.983   1.466   4.039 -0.4455  0.8303  0.3916
17873TIP3    H175034   5.910   1.476   4.099  0.0817  0.7658  1.0603
17873TIP3    H275035   5.974   1.378   4.004 -1.5389  1.3520 -0.6989
17874TIP3   OH275036   1.196   3.910  14.052 -0.2443  0.0304 -0.1094
17874TIP3    H175037   1.124   3.969  14.033 -0.3430 -0.0228  0.0967
17874TIP3    H275038   1.275   3.962  14.034 -0.3184  0.5034  0.8945
17875TIP3   OH275039   4.173   5.345  13.161 -0.1821  0.0106  0.4175
17875TIP3    H175040   4.078   5.332  13.158 -0.0699 -0.8527 -2.7065
17875TIP3    H275041   4.194   5.387  13.078  2.2725 -0.6952  0.6157
17876TIP3   OH275042   0.174   2.884   0.895  0.1689  0.0995  0.1086
17876TIP3    H175043   0.216   2.801   0.919 -1.8440 -1.1352 -0.4029
17876TIP3    H275044   0.088   2.880   0.938  0.1175  2.0671  0.2817
17877TIP3   OH275045   4.288   5.920   5.889 -0.5887 -0.3893 -0.4784
17877TIP3    H175046   4.224   5.988   5.869 -3.1362 -2.3630  0.4239
17877TIP3    H275047   4.259   5.883   5.972  2.4634 -0.6637  0.6097
17878TIP3   OH275048   2.639   1.771   0.683 -0.5677  0.1606 -0.5260
17878TIP3    H175049   2.698   1.696   0.678  0.2113  0.5027  2.0229
17878TIP3    H275050   2.686   1.843   0.641 -1.0664 -0.5820 -2.4357
17879TIP3   OH275051   6.644   0.145  12.574 -0.2101 -0.2935 -0.5069
17879TIP3    H175052   6.660   0.065  12.623 -0.7516  0.9386  1.8379
17879TIP3    H275053   6.732   0.180  12.556 -0.0157 -0.3977  0.2242
17880TIP3   OH275054   2.179   2.552  15.046  0.5010 -0.0018 -0.7906
17880TIP3    H175055   2.194   2.608  15.122  1.5234 -0.0239 -0.9692
17880TIP3    H275056   2.216   2.468  15.070  0.4287 -0.1385 -1.1520
17881TIP3   OH275057   2.095   2.445   0.221 -0.3467  0.2423  0.3080
17881TIP3    H175058   2.064   2.517   0.166 -0.0238 -0.0890 -0.3155
17881TIP3    H275059   2.073   2.366   0.173  1.0132 -0.0188  0.0575
17882TIP3   OH275060   6.388   5.353  15.954  0.1465  0.3080  0.3995
17882TIP3    H175061   6.326   5.425  15.946 -0.9749 -0.5528  1.1531
17882TIP3    H275062   6.385   5.309  15.869 -2.4390 -1.4070  1.2750
17883TIP3   OH275063   4.216   5.549  12.688 -0.1427  0.5074  0.1156
17883TIP3    H175064   4.159   5.529  12.614  0.3795  2.5801 -0.9338
17883TIP3    H275065   4.167   5.615  12.738  1.4415  2.7424 -1.1014
17884TIP3   OH275066   5.599   0.313  12.300 -0.2167  0.0870  0.2850
17884TIP3    H175067   5.647   0.259  12.237  0.7152 -0.5315  1.4690
17884TIP3    H275068   5.546   0.372  12.247  0.4129 -0.5268 -1.0584
17885TIP3   OH275069   2.326   1.459  15.475 -0.3712  0.1899 -0.0861
17885TIP3    H175070   2.296   1.399  15.543  0.2687  0.7106  0.6703
17885TIP3    H275071   2.273   1.537  15.488 -2.0590 -0.5948 -1.8352
17886TIP3   OH275072   2.878   3.482  15.288 -0.1274  0.1354 -0.4762
17886TIP3    H175073   2.825   3.410  15.325  0.8102 -0.9439 -1.1573
17886TIP3    H275074   2.956   3.485  15.343 -0.1972  0.6794 -0.4098
17887TIP3   OH275075   5.857   0.435   1.121 -0.7219  0.2455  0.3214
17887TIP3    H175076   5.859   0.507   1.059  0.1322  0.5270  0.6614
17887TIP3    H275077   5.861   0.477   1.207 -2.2602 -0.1193  0.6128
17888TIP3   OH275078   2.772   5.837   6.805 -0.0908 -0.3032  0.8145
17888TIP3    H175079   2.694   5.786   6.784 -0.9340  1.4601 -0.6790
17888TIP3    H275080   2.737   5.920   6.839  1.1671 -0.0425  1.5219
17889TIP3   OH275081   6.304   3.552   3.207 -0.2654 -0.0735 -0.2219
17889TIP3    H175082   6.277   3.623   3.265 -0.0091  0.2709 -0.5220
17889TIP3    H275083   6.268   3.473   3.247 -0.5488  0.2258  0.1147
17890TIP3   OH275084   6.011   3.726  12.701  0.3541 -0.0573  0.3012
17890TIP3    H175085   5.970   3.786  12.638 -1.5085  1.2048  2.5117
17890TIP3    H275086   6.040   3.783  12.772  1.8633 -1.4728  0.8761
17891TIP3   OH275087   6.167   4.960  16.656 -0.0765 -0.5715 -0.2293
17891TIP3    H175088   6.206   4.969  16.569 -1.8001  0.5062 -0.9491
17891TIP3    H275089   6.165   4.866  16.673  1.0469 -0.7410 -0.9798
17892TIP3   OH275090   2.562   3.825   1.695 -0.2547 -0.8345  0.1443
17892TIP3    H175091   2.628   3.847   1.629 -1.2237  0.0182 -0.5743
17892TIP3    H275092   2.578   3.732   1.715  0.1461 -1.0780 -1.1944
17893TIP3   OH275093   3.896   0.818  11.476 -0.3850  0.1027 -0.4301
17893TIP3    H175094   3.932   0.782  11.395  2.5927  1.2755  0.2521
17893TIP3    H275095   3.923   0.909  11.477 -0.3818  0.1436  1.8483
17894TIP3   OH275096   2.075   6.613  13.156  0.5051  0.0140  0.0213
17894TIP3    H175097   2.053   6.663  13.076  2.0964  0.3240 -0.2623
17894TIP3    H275098   2.086   6.680  13.223 -0.9420 -0.2557  0.5644
17895TIP3   OH275099   6.695   1.139   3.964 -0.0523 -0.0701  0.2376
17895TIP3    H175100   6.670   1.194   4.038 -0.6863  1.6219 -1.1598
17895TIP3    H275101   6.749   1.196   3.909  1.2520 -1.5939 -0.1398
17896TIP3   OH275102   0.861   5.445  16.005 -0.2998  0.8302 -0.0686
17896TIP3    H175103   0.894   5.528  15.970  2.0499  0.0383  0.0581
17896TIP3    H275104   0.940   5.397  16.030 -1.4591 -2.1601 -1.7115
17897TIP3   OH275105   2.823   6.378   6.629  0.1411 -0.0614  0.6200
17897TIP3    H175106   2.759   6.316   6.663 -1.1149  0.7888 -0.0875
17897TIP3    H275107   2.906   6.330   6.630 -0.4906 -1.2006  1.5517
17898TIP3   OH275108   0.341   0.193  11.136  0.1002 -0.9053 -0.7972
17898TIP3    H175109   0.298   0.159  11.214  1.8122  0.9586  1.0626
17898TIP3    H275110   0.419   0.238  11.168  1.0160 -0.2366 -3.6143
17899TIP3   OH275111   1.637   0.583  16.047  0.1839  0.6561 -0.5114
17899TIP3    H175112   1.688   0.621  16.118 -0.3915 -0.3286  0.4756
17899TIP3    H275113   1.555   0.633  16.046 -0.7117 -0.6794  1.0068
17900TIP3   OH275114   4.576   6.246   1.605 -0.0288  0.0368  0.5086
17900TIP3    H175115   4.595   6.337   1.582  0.1234 -0.6440 -2.4992
17900TIP3    H275116   4.642   6.223   1.670  1.5121  1.3864 -0.5113
17901TIP3   OH275117   6.140   5.778  15.776 -0.4242 -0.7900  0.5920
17901TIP3    H175118   6.134   5.806  15.685 -1.0844 -0.8453  0.6129
17901TIP3    H275119   6.053   5.742  15.796  0.1111 -1.9727  0.8573
17902TIP3   OH275120   1.026   2.473  15.045  0.6231  0.1967  0.2725
17902TIP3    H175121   1.013   2.378  15.038  1.8811 -0.3137  3.2913
17902TIP3    H275122   0.939   2.508  15.063  0.1384 -0.3489 -0.9076
17903TIP3   OH275123   5.362   1.480   4.171  0.2542 -0.6448 -0.1968
17903TIP3    H175124   5.284   1.426   4.182  0.3817 -0.4829  2.1789
17903TIP3    H275125   5.334   1.552   4.115 -1.3947 -0.4775  0.7722
17904TIP3   OH275126   2.619   0.557  11.178 -0.0464  0.0164  0.0358
17904TIP3    H175127   2.659   0.622  11.121  1.1951 -0.6804  0.0765
17904TIP3    H275128   2.612   0.600  11.263 -1.7158  0.9905 -0.5507
17905TIP3   OH275129   5.105   5.669   1.731  0.0660  0.6995  0.4842
17905TIP3    H175130   5.160   5.736   1.771  1.3791  0.3732 -0.7107
17905TIP3    H275131   5.099   5.694   1.639 -1.1176  0.2710  0.4223
17906TIP3   OH275132   1.385   5.494   1.808 -0.3228 -0.0419  0.9675
17906TIP3    H175133   1.366   5.508   1.901  1.8745  0.2845  1.4022
17906TIP3    H275134   1.366   5.578   1.767 -1.0949 -0.1250  1.1359
17907TIP3   OH275135   2.616   6.741   2.984  0.3202 -0.1292  0.0953
17907TIP3    H175136   2.544   6.687   2.953 -0.1890 -1.7250  3.5671
17907TIP3    H275137   2.681   6.737   2.915 -1.9029 -0.6520 -2.0831
17908TIP3   OH275138   4.979   5.183  17.167  0.1143  0.0441  0.0867
17908TIP3    H175139   4.991   5.138  17.251  3.6827 -0.2713 -0.4156
17908TIP3    H275140   4.936   5.119  17.111 -0.5950 -0.4252  1.1495
17909TIP3   OH275141   5.011   1.420  11.673  0.3051 -0.4902  0.2768
17909TIP3    H175142   5.106   1.414  11.663  0.0996 -1.1605 -1.6314
17909TIP3    H275143   4.997   1.502  11.720  1.7794  0.1757 -0.3874
17910TIP3   OH275144   4.620   4.709   0.332 -0.2492 -0.1203  0.1850
17910TIP3    H175145   4.675   4.631   0.325 -0.5094 -0.4391  1.3893
17910TIP3    H275146   4.611   4.723   0.427  0.1773  1.6359  0.0010
17911TIP3   OH275147   6.661   5.805   2.209 -0.3908  0.0437 -0.1518
17911TIP3    H175148   6.634   5.815   2.118  1.2473 -1.8016 -0.9006
17911TIP3    H275149   6.586   5.764   2.252 -0.9472  0.3572 -0.8055
17912TIP3   OH275150   3.421   6.691   1.890 -0.0529 -0.6992 -0.7359
17912TIP3    H175151   3.386   6.637   1.961 -0.9722  0.3175 -0.3936
17912TIP3    H275152   3.505   6.722   1.923 -0.9553  0.6514  0.3907
17913TIP3   OH275153   0.641   6.243   6.468  0.5165  0.4620  0.7207
17913TIP3    H175154   0.650   6.155   6.505 -3.0905  0.6717  2.5466
17913TIP3    H275155   0.681   6.300   6.533  1.3473  0.3354  0.3401
17914TIP3   OH275156   6.345   0.029  16.569 -0.4100  0.5271  0.1242
17914TIP3    H175157   6.295   0.087  16.626 -1.7589 -0.1646 -0.3173
17914TIP3    H275158   6.336  -0.058  16.608 -0.0076  0.3038 -0.2641
17915TIP3   OH275159   3.513   0.336   3.114 -0.1168  0.0119  0.2577
17915TIP3    H175160   3.515   0.316   3.208 -1.2808 -1.4920 -0.0010
17915TIP3    H275161   3.430   0.383   3.102  0.8610  1.8366  0.2304
17916TIP3   OH275162   4.328   2.898   4.728  0.0497 -0.0806  0.2024
17916TIP3    H175163   4.256   2.938   4.679  0.7074  1.6743  0.6047
17916TIP3    H275164   4.303   2.908   4.820  0.7354  0.4567  0.3403
17917TIP3   OH275165   2.657   0.043  12.912  0.4717 -0.4280  0.0213
17917TIP3    H175166   2.626   0.102  12.843  1.5307  1.3909  1.0308
17917TIP3    H275167   2.577   0.011  12.954 -0.1421  1.0018  0.0004
17918TIP3   OH275168   6.506   5.941   1.401  0.6159  0.3073  0.0658
17918TIP3    H175169   6.555   5.931   1.319 -0.8128 -3.4360 -0.5110
17918TIP3    H275170   6.421   5.977   1.373  0.2803 -0.5726 -0.0723
17919TIP3   OH275171   5.217   0.541   2.894  0.0079  0.1000  0.8733
17919TIP3    H175172   5.169   0.497   2.964  1.0196 -0.4649  1.2370
17919TIP3    H275173   5.210   0.634   2.914 -0.5458  0.0016  1.1587
17920TIP3   OH275174   2.540   5.467  15.258  0.1262  0.0370  0.0147
17920TIP3    H175175   2.449   5.477  15.285  0.0735  1.4115 -0.5760
17920TIP3    H275176   2.535   5.448  15.164  0.3610 -3.2322  0.5533
17921TIP3   OH275177   2.057   5.474  13.381  0.3632 -0.0005  0.0418
17921TIP3    H175178   2.034   5.525  13.303 -1.3957  1.6435  1.5412
17921TIP3    H275179   2.149   5.496  13.397  0.4787  0.3700 -1.0165
17922TIP3   OH275180   3.345   6.268  12.905 -0.0163  0.7178 -0.6087
17922TIP3    H175181   3.326   6.352  12.947  1.7763  1.3430 -1.0064
17922TIP3    H275182   3.423   6.284  12.853 -0.2201 -0.9551 -1.4759
17923TIP3   OH275183   4.523   1.325  16.582  0.4109  0.1092 -0.2529
17923TIP3    H175184   4.596   1.265  16.571 -0.1922 -0.9318  1.0571
17923TIP3    H275185   4.445   1.270  16.567 -0.1241  0.9991 -0.8242
17924TIP3   OH275186   4.138   5.176   0.783 -0.3853  0.0482 -0.0667
17924TIP3    H175187   4.151   5.263   0.743  1.1820 -1.0049 -2.0772
17924TIP3    H275188   4.218   5.162   0.834  0.1868 -0.8658 -1.1640
17925TIP3   OH275189   5.574   5.575  11.155 -0.0406  0.0530 -0.5504
17925TIP3    H175190   5.623   5.517  11.214  0.5523  1.4205  0.3711
17925TIP3    H275191   5.639   5.607  11.093  0.3139  1.8749  0.6758
17926TIP3   OH275192   0.125   2.795  14.453 -0.1281  0.1286  0.1401
17926TIP3    H175193   0.154   2.824  14.366  0.7438 -1.3410 -0.1060
17926TIP3    H275194   0.095   2.874  14.496  0.1605  1.0221 -1.2250
17927TIP3   OH275195   3.533   6.403  12.030 -0.1626  0.1644  0.4898
17927TIP3    H175196   3.525   6.309  12.017 -0.4678  0.1088  1.0884
17927TIP3    H275197   3.446   6.431  12.058  0.1708  0.4784  1.2200
17928TIP3   OH275198   0.276   1.287  11.249  0.0925 -0.5129 -0.0419
17928TIP3    H175199   0.256   1.333  11.168 -1.3281  0.5304  0.8601
17928TIP3    H275200   0.191   1.261  11.284  0.7936 -2.7342  0.1297
17929TIP3   OH275201   4.930   3.593  12.197 -0.7233 -0.0761 -0.2477
17929TIP3    H175202   4.963   3.525  12.257 -1.7406 -1.3732 -1.1156
17929TIP3    H275203   4.933   3.673  12.249  1.1587 -0.6297  0.5911
17930TIP3   OH275204   2.317   2.203   5.313  0.1262  0.0355 -0.1505
17930TIP3    H175205   2.404   2.243   5.319 -1.2060  3.1287  0.3982
17930TIP3    H275206   2.279   2.240   5.234 -1.0351 -0.6085  0.0836
17931TIP3   OH275207   5.383   4.007   0.700 -0.2940 -1.1504  0.1696
17931TIP3    H175208   5.394   3.930   0.644 -0.4271 -0.7465 -0.4310
17931TIP3    H275209   5.293   4.001   0.733 -0.7325 -0.6213 -0.8752
17932TIP3   OH275210   2.930   1.692  12.494 -0.0782 -0.8016  0.1554
17932TIP3    H175211   2.974   1.777  12.486 -1.6664  0.0422  0.0532
17932TIP3    H275212   3.001   1.628  12.485  0.8314  0.4253 -2.4319
17933TIP3   OH275213   6.631   2.534  12.994 -1.2679 -0.0773  0.0174
17933TIP3    H175214   6.702   2.566  12.938 -0.6548 -1.2551  0.1037
17933TIP3    H275215   6.573   2.610  13.004  0.1162  0.9909  0.1834
17934TIP3   OH275216   5.265   0.009  16.405  0.8241 -0.5123  0.7104
17934TIP3    H175217   5.315   0.087  16.428  1.5378 -0.1537 -1.8137
17934TIP3    H275218   5.173   0.036  16.412  1.0523  0.3128  0.6021
17935TIP3   OH275219   4.672   4.923  13.552  0.3002  0.0812  0.1975
17935TIP3    H175220   4.627   4.943  13.470  1.0810 -1.0413 -0.5254
17935TIP3    H275221   4.701   5.008  13.585 -0.7051  0.6228 -0.2738
17936TIP3   OH275222   1.716   5.512  13.409 -0.0233 -0.0425  0.3795
17936TIP3    H175223   1.699   5.602  13.435  0.6268 -0.3422  1.9909
17936TIP3    H275224   1.650   5.461  13.457  2.1962 -0.7643  2.9098
17937TIP3   OH275225   2.833   2.454  12.593  0.2161  0.5008 -0.3992
17937TIP3    H175226   2.817   2.543  12.627 -1.1585  0.3268 -0.5580
17937TIP3    H275227   2.870   2.407  12.668  2.4173  1.5661 -0.7136
17938TIP3   OH275228   0.578   3.770   0.740  0.4359  0.1798  0.0561
17938TIP3    H175229   0.504   3.825   0.766  0.9451  1.4714 -1.0904
17938TIP3    H275230   0.556   3.740   0.652  0.4720 -0.9348  0.4106
17939TIP3   OH275231   5.564   6.239  11.640 -0.0926 -0.3248 -0.2104
17939TIP3    H175232   5.546   6.333  11.645  0.2360 -0.1563 -1.8798
17939TIP3    H275233   5.486   6.198  11.678 -0.1622  0.5998  0.7122
17940TIP3   OH275234   5.185   6.469  15.388  0.6905 -0.1456 -0.4506
17940TIP3    H175235   5.166   6.559  15.415  1.3703  0.4765 -1.9685
17940TIP3    H275236   5.100   6.433  15.363  0.2252 -0.3553  1.2791
17941TIP3   OH275237   3.273   3.514   3.124  0.1244 -0.1806  0.0382
17941TIP3    H175238   3.350   3.569   3.111 -0.6503  1.2312  1.1412
17941TIP3    H275239   3.306   3.424   3.116  1.4081  0.4012 -1.9014
17942TIP3   OH275240   2.388   3.724   5.784  0.4379 -0.3287 -0.5052
17942TIP3    H175241   2.454   3.764   5.728  0.2238  1.2766  0.3350
17942TIP3    H275242   2.348   3.797   5.831 -1.8314 -1.2682 -0.8436
17943TIP3   OH275243   4.385   2.354  13.722  0.5949  0.1277 -0.2063
17943TIP3    H175244   4.309   2.394  13.679  0.9599  1.1879  0.0863
17943TIP3    H275245   4.389   2.266  13.686 -0.4535  0.2321 -0.6332
17944TIP3   OH275246   6.115   1.954   3.989 -0.4590  0.2099 -0.4597
17944TIP3    H175247   6.178   1.893   3.950  0.2804  0.4054  0.4122
17944TIP3    H275248   6.030   1.915   3.970  0.0139 -1.3571  0.4464
17945TIP3   OH275249   2.907   1.356  14.959 -0.2247 -0.0317 -0.4092
17945TIP3    H175250   2.834   1.382  14.903  0.2785  0.3977 -0.8838
17945TIP3    H275251   2.920   1.431  15.018  0.1883  0.1324 -0.7032
17946TIP3   OH275252   6.595   2.539  15.155  0.6920  0.1075 -0.1818
17946TIP3    H175253   6.588   2.542  15.059 -2.6909  0.4036 -0.0201
17946TIP3    H275254   6.527   2.599  15.186  0.7628 -1.0493  2.4313
17947TIP3   OH275255   3.859   1.616   3.929 -0.4538 -0.9301  0.0103
17947TIP3    H175256   3.838   1.527   3.900  2.8659 -2.0797  0.6361
17947TIP3    H275257   3.913   1.652   3.858  0.0626 -0.2761  0.7175
17948TIP3   OH275258   2.553   3.434  14.912 -0.3396 -0.1731 -0.0518
17948TIP3    H175259   2.485   3.435  14.981  1.7540 -1.7131  2.2026
17948TIP3    H275260   2.605   3.356  14.931  1.5799  0.4774 -2.2056
17949TIP3   OH275261   5.544   5.281   4.486  0.4018  0.0883  0.2680
17949TIP3    H175262   5.628   5.242   4.512  1.1680  1.2147 -0.4056
17949TIP3    H275263   5.486   5.206   4.472  1.5727 -0.7701 -0.1468
17950TIP3   OH275264   3.585   6.676  13.298  0.7321 -0.4155 -0.3721
17950TIP3    H175265   3.609   6.762  13.330  0.6038 -0.6778  0.4395
17950TIP3    H275266   3.666   6.639  13.264  1.3984 -1.0633  1.8049
17951TIP3   OH275267   6.506   2.100   4.367  0.0768 -0.0701  0.3466
17951TIP3    H175268   6.420   2.098   4.408  0.5426  3.0433  1.7928
17951TIP3    H275269   6.568   2.092   4.440  1.0274 -0.8774 -0.5080
17952TIP3   OH275270   3.956   0.340   5.655  0.1310  0.6789  0.2031
17952TIP3    H175271   3.864   0.325   5.634  0.6571  0.0099 -1.8111
17952TIP3    H275272   3.979   0.266   5.712 -0.4884  0.6744  0.4572
17953TIP3   OH275273   6.631   6.277  11.907  0.2888  0.0580  0.4101
17953TIP3    H175274   6.631   6.181  11.899  0.6521  0.1062 -0.1526
17953TIP3    H275275   6.554   6.305  11.858  0.8890  0.1420 -0.4968
17954TIP3   OH275276   5.204   4.907   2.578  0.0339  0.1628  0.1498
17954TIP3    H175277   5.157   4.846   2.521 -1.8175  0.7139  0.9933
17954TIP3    H275278   5.276   4.940   2.525  0.1084 -1.5160 -0.8598
17955TIP3   OH275279   1.304   1.433   0.410  0.4690  0.2661 -0.5679
17955TIP3    H175280   1.303   1.345   0.373  1.4251  0.3681 -0.8412
17955TIP3    H275281   1.394   1.462   0.403  0.4802  0.6952  0.9131
17956TIP3   OH275282   2.347   5.145   5.068  0.1826  0.3184  0.2553
17956TIP3    H175283   2.338   5.240   5.057 -1.1539  0.2075  0.1366
17956TIP3    H275284   2.276   5.108   5.015 -0.5550 -0.6504  1.8182
17957TIP3   OH275285   5.832   2.482  12.822 -0.3467 -0.7704  0.2746
17957TIP3    H175286   5.762   2.546  12.807  0.6226 -0.0163 -1.2763
17957TIP3    H275287   5.887   2.522  12.889 -0.2651 -0.4096 -0.0065
17958TIP3   OH275288   1.211   0.280   3.339 -0.4199  0.3742  0.3154
17958TIP3    H175289   1.190   0.350   3.278  0.1039  0.0953 -0.1901
17958TIP3    H275290   1.164   0.204   3.306 -1.0810  0.5033  0.9284
17959TIP3   OH275291   1.826   5.183   6.361 -0.2860  0.0834 -0.7514
17959TIP3    H175292   1.746   5.131   6.376  0.6350 -1.4900 -1.0480
17959TIP3    H275293   1.841   5.227   6.444 -0.3258 -1.2775  0.0138
17960TIP3   OH275294   1.334   6.683  11.742 -0.5994 -0.2795  0.2931
17960TIP3    H175295   1.345   6.593  11.712 -0.7058  0.0431 -0.7813
17960TIP3    H275296   1.344   6.736  11.663 -1.0314  0.6200  0.8148
17961TIP3   OH275297   2.687   2.950   3.431  0.3158 -0.3931  0.1362
17961TIP3    H175298   2.659   2.866   3.394  0.0734 -0.3285  0.1671
17961TIP3    H275299   2.678   2.938   3.525  0.8311 -0.5220  0.1699
17962TIP3   OH275300   4.223   0.630   4.825 -0.5631  0.3165 -0.1022
17962TIP3    H175301   4.277   0.562   4.786 -2.0498 -1.9520  1.5231
17962TIP3    H275302   4.244   0.628   4.918 -1.5134  1.2515  0.1633
17963TIP3   OH275303   3.602   2.679  15.982  0.5706 -0.1051  0.0069
17963TIP3    H175304   3.624   2.769  16.004 -0.0635 -0.3630  1.8295
17963TIP3    H275305   3.522   2.687  15.929 -0.7128  0.3679  1.9014
17964TIP3   OH275306   1.267   1.238  12.917  0.2297 -0.4827 -0.6392
17964TIP3    H175307   1.324   1.201  12.984  0.3244  1.1052  0.2106
17964TIP3    H275308   1.298   1.199  12.835 -0.0604 -2.6632  0.2305
17965TIP3   OH275309   3.566   0.841  14.006 -0.0986  0.4615  0.5114
17965TIP3    H175310   3.595   0.779  14.073 -1.8947  0.8892  1.7404
17965TIP3    H275311   3.508   0.789  13.950  0.2163  0.4748  0.1724
17966TIP3   OH275312   0.351   3.236   4.295 -0.6213  0.2841  0.1964
17966TIP3    H175313   0.410   3.309   4.311  0.5774 -0.8122  1.0286
17966TIP3    H275314   0.380   3.168   4.356 -1.2370 -1.1285 -1.0113
17967TIP3   OH275315   3.182   2.161  16.242 -0.4395 -0.2637 -0.0115
17967TIP3    H175316   3.219   2.203  16.164 -1.7359  0.8546 -0.0663
17967TIP3    H275317   3.239   2.189  16.314 -0.1181 -0.0605 -0.3423
17968TIP3   OH275318   4.644   4.362  15.384 -0.0964  0.0832  0.5434
17968TIP3    H175319   4.621   4.293  15.445  0.9698  1.4884  2.6326
17968TIP3    H275320   4.692   4.426  15.436  0.5672  1.5386 -1.6980
17969TIP3   OH275321   2.728   6.091   6.969 -0.2625 -0.4713  0.0853
17969TIP3    H175322   2.665   6.141   7.021 -0.0417  0.6468 -0.6802
17969TIP3    H275323   2.784   6.048   7.034 -2.0991 -1.9267  0.7924
17970TIP3   OH275324   3.026   1.141   3.905 -0.6977  0.0864  0.4486
17970TIP3    H175325   3.059   1.116   3.991 -0.1993 -0.1453  0.1913
17970TIP3    H275326   2.934   1.164   3.921 -0.2567  1.3735  1.2817
17971TIP3   OH275327   1.219   5.302  14.634  0.4624 -0.0326 -0.2227
17971TIP3    H175328   1.245   5.211  14.645  2.9383  0.6938  0.5042
17971TIP3    H275329   1.177   5.305  14.548 -0.2636 -1.9409  0.0295
17972TIP3   OH275330   6.723   1.739  13.517  0.4023  0.1798 -0.0644
17972TIP3    H175331   6.694   1.827  13.492 -0.9820 -0.3346 -0.3294
17972TIP3    H275332   6.706   1.734  13.611 -0.2214 -0.0652 -0.1894
17973TIP3   OH275333   2.186   1.877  13.856 -0.2186  0.4123 -0.8406
17973TIP3    H175334   2.219   1.966  13.841 -0.7575  0.6248 -0.7849
17973TIP3    H275335   2.092   1.883  13.838 -0.1979 -0.2241 -1.1589
17974TIP3   OH275336   4.233   5.926  16.122  0.0756 -0.5493 -0.8321
17974TIP3    H175337   4.290   5.991  16.081  1.0806 -1.6499 -1.2455
17974TIP3    H275338   4.195   5.971  16.197  1.6939  0.1609 -0.3938
17975TIP3   OH275339   6.521   1.242   5.161 -0.0783 -0.3673  0.0020
17975TIP3    H175340   6.535   1.303   5.089  0.7652 -1.4508 -0.7795
17975TIP3    H275341   6.489   1.297   5.233  0.5341  0.9652 -0.7073
17976TIP3   OH275342   4.586   5.307   5.226  0.0117  0.2475 -0.1682
17976TIP3    H175343   4.564   5.217   5.200  1.3354  0.3853 -1.9606
17976TIP3    H275344   4.509   5.337   5.275 -0.1716 -2.0713  1.1195
17977TIP3   OH275345   2.699   1.736   3.133 -0.0727 -0.2388 -0.4481
17977TIP3    H175346   2.785   1.736   3.174  0.6388 -1.1370 -1.8552
17977TIP3    H275347   2.701   1.808   3.071 -0.5034  0.0186 -0.1684
17978TIP3   OH275348   4.744   5.855   3.279 -0.2302 -0.0734 -0.1339
17978TIP3    H175349   4.691   5.924   3.319 -1.3423 -0.6041 -0.6415
17978TIP3    H275350   4.740   5.783   3.342 -0.8914 -0.4409 -0.5879
17979TIP3   OH275351   1.301   1.796   3.555 -0.0305  0.2010  0.2060
17979TIP3    H175352   1.388   1.834   3.566  0.0696  0.5838 -1.5612
17979TIP3    H275353   1.315   1.718   3.500 -0.6738 -0.3537  0.8144
17980TIP3   OH275354   4.372   6.574  15.840 -0.6981  0.3708 -0.3814
17980TIP3    H175355   4.464   6.559  15.819 -0.8847 -0.6047 -0.5253
17980TIP3    H275356   4.364   6.545  15.931 -0.9283  0.1555 -0.4692
17981TIP3   OH275357   0.776   4.568  14.920 -0.3692 -0.2073 -0.4829
17981TIP3    H175358   0.833   4.534  14.989 -0.8687 -1.1858 -0.5336
17981TIP3    H275359   0.712   4.622  14.965  0.9281  1.4275 -0.4797
17982TIP3   OH275360   4.541   2.883  11.539 -0.1428 -0.0077  0.5844
17982TIP3    H175361   4.554   2.968  11.582 -1.1097 -0.4232  1.7752
17982TIP3    H275362   4.620   2.869  11.488  0.1059  1.5362  0.4953
17983TIP3   OH275363   2.540   1.852   6.345 -0.0074  0.3422  0.3558
17983TIP3    H175364   2.545   1.941   6.310 -1.2654 -0.0880 -1.0031
17983TIP3    H275365   2.459   1.852   6.397  0.5513  0.2786  1.2402
17984TIP3   OH275366   3.827   3.510   3.959  0.0367 -0.4782 -0.1654
17984TIP3    H175367   3.788   3.539   4.041  0.9745  1.0820 -0.2465
17984TIP3    H275368   3.753   3.510   3.897 -0.5899 -1.2767  0.5584
17985TIP3   OH275369   4.823   5.954   4.460  0.1376  0.2395  0.2422
17985TIP3    H175370   4.874   5.891   4.409 -0.0392 -0.4195  0.8688
17985TIP3    H275371   4.807   5.910   4.543  2.1533  2.0331  1.6850
17986TIP3   OH275372   6.264   2.966  14.678 -0.1021  0.4230  0.5713
17986TIP3    H175373   6.337   2.915  14.715 -0.5815 -0.8626 -0.1879
17986TIP3    H275374   6.188   2.942  14.731 -0.8026 -1.4653 -1.1496
17987TIP3   OH275375   6.049   2.179  14.202  0.3260 -0.3559  0.1412
17987TIP3    H175376   6.031   2.089  14.177  0.4472  0.1276 -1.9454
17987TIP3    H275377   6.111   2.210  14.135  0.2998  1.2612  0.8100
17988TIP3   OH275378   3.492   1.640   3.891  0.0004 -0.6086 -0.1263
17988TIP3    H175379   3.444   1.581   3.950 -1.4817  1.0664  0.4329
17988TIP3    H275380   3.555   1.684   3.948 -1.0643  0.6106  0.1814
17989TIP3   OH275381   4.977   3.463   4.151  0.4481 -0.2856 -0.6634
17989TIP3    H175382   5.040   3.394   4.172  0.8179 -0.4844 -2.3047
17989TIP3    H275383   4.961   3.453   4.057  0.3069  1.6750 -0.8920
17990TIP3   OH275384   1.061   0.817   2.629  0.0374 -0.0685  0.3565
17990TIP3    H175385   1.038   0.799   2.538 -2.0958 -0.1469  0.8676
17990TIP3    H275386   1.119   0.893   2.625 -2.2387  1.7198 -0.9311
17991TIP3   OH275387   6.331   0.298  16.324 -0.7637  0.2037  0.4306
17991TIP3    H175388   6.350   0.205  16.330 -0.2033  0.3748  1.9760
17991TIP3    H275389   6.401   0.340  16.374 -1.7724  1.3312  0.9602
17992TIP3   OH275390   2.472   4.038   6.549 -0.1080 -0.1729 -0.6942
17992TIP3    H175391   2.476   4.123   6.506 -0.2524  0.0712 -0.2386
17992TIP3    H275392   2.380   4.028   6.574  0.1534  0.1602  0.4587
17993TIP3   OH275393   5.449   1.535   1.860  0.0408  0.2918 -0.1138
17993TIP3    H175394   5.534   1.496   1.883  0.4170  1.8768  1.3284
17993TIP3    H275395   5.391   1.510   1.932 -0.4980 -0.0289 -0.6492
17994TIP3   OH275396   2.698   5.559   4.295 -0.2130  0.2461 -0.3157
17994TIP3    H175397   2.632   5.548   4.364  1.4779  0.4224  1.4175
17994TIP3    H275398   2.650   5.598   4.222 -2.0694  0.1393  0.7834
17995TIP3   OH275399   5.238   5.012  16.394  0.7470  0.4719 -0.4635
17995TIP3    H175400   5.168   5.077  16.396 -1.8431 -2.1088  0.6014
17995TIP3    H275401   5.275   5.014  16.483  1.6850  1.4259 -0.8542
17996TIP3   OH275402   5.469   3.471  13.077  1.0368  0.0649  0.2152
17996TIP3    H175403   5.399   3.527  13.043 -0.4839 -1.7484  0.1911
17996TIP3    H275404   5.521   3.448  12.999  0.7536  0.2205 -0.0221
17997TIP3   OH275405   4.391   0.116   0.791  0.0551 -0.6947  0.5361
17997TIP3    H175406   4.415   0.155   0.708 -0.7405  0.5179  0.8575
17997TIP3    H275407   4.437   0.032   0.792  0.5917 -0.4390 -0.8258
17998TIP3   OH275408   3.323   1.815   1.111 -0.0243 -0.7085 -0.3838
17998TIP3    H175409   3.291   1.900   1.079 -2.4826 -0.5240  2.1810
17998TIP3    H275410   3.362   1.836   1.196 -1.0930 -2.1833  0.4993
17999TIP3   OH275411   6.015   4.475   2.587 -0.2382 -0.3050  0.4297
17999TIP3    H175412   6.060   4.479   2.503  0.9119  0.9060  1.0509
17999TIP3    H275413   5.940   4.535   2.578 -0.1709 -0.2520  0.2342
18000TIP3   OH275414   4.434   0.004   3.364  0.0119  0.4062 -0.5241
18000TIP3    H175415   4.485   0.028   3.286 -0.0958  4.2104  0.3687
18000TIP3    H275416   4.492   0.025   3.438 -1.0422 -0.0087  0.4531
18001TIP3   OH275417   5.778   2.369  12.578 -0.7253 -0.6185  0.1155
18001TIP3    H175418   5.788   2.414  12.662 -1.1105 -1.7993  0.8183
18001TIP3    H275419   5.867   2.348  12.550 -0.5748  0.0830  0.0394
18002TIP3   OH275420   5.579   6.012  17.009  0.2673  0.6193 -0.1935
18002TIP3    H175421   5.663   5.998  17.053  0.6807  1.4907 -0.6781
18002TIP3    H275422   5.517   5.958  17.058  1.3362 -1.0771 -0.6269
18003TIP3   OH275423   5.205   1.788  13.745 -0.1236  0.3291  0.0073
18003TIP3    H175424   5.138   1.809  13.809 -0.1668  2.2799 -0.6077
18003TIP3    H275425   5.177   1.833  13.665  1.4856  0.5410 -0.4825
18004TIP3   OH275426   2.703   5.900  13.170  0.1196  0.2023  0.2152
18004TIP3    H175427   2.718   5.892  13.075 -2.1890 -0.4583 -0.1482
18004TIP3    H275428   2.671   5.990  13.181  0.4107  0.2862  0.3958
18005TIP3   OH275429   0.428   5.385  13.236  0.1231  0.0164 -0.1392
18005TIP3    H175430   0.427   5.290  13.236 -1.3069  0.0051 -0.7118
18005TIP3    H275431   0.351   5.410  13.287 -0.2485  0.8311 -1.0626
18006TIP3   OH275432   2.766   0.705  13.203  0.3617  0.0991  0.1642
18006TIP3    H175433   2.677   0.671  13.192  0.5347 -0.7906  1.3148
18006TIP3    H275434   2.822   0.627  13.199  1.2024  0.7366 -1.4735
18007TIP3   OH275435   1.382   5.161   3.501 -0.2100  0.1922  0.6367
18007TIP3    H175436   1.409   5.253   3.496 -1.3656  0.5092 -0.2676
18007TIP3    H275437   1.459   5.115   3.535  0.0273  1.6500  2.2496
18008TIP3   OH275438   1.840   0.455   4.283 -0.2107  0.6534 -0.2292
18008TIP3    H175439   1.853   0.394   4.356 -0.9904  1.3318  0.4951
18008TIP3    H275440   1.823   0.398   4.208 -1.0497 -0.0359  0.4542
18009TIP3   OH275441   0.974   1.530   6.113  0.0890  0.0384 -0.4759
18009TIP3    H175442   0.931   1.591   6.173 -0.1428 -1.0207  0.4698
18009TIP3    H275443   0.920   1.530   6.034 -2.7868 -2.5443  1.2754
18010TIP3   OH275444   1.722   1.079  11.696  0.2357 -0.2093 -0.3271
18010TIP3    H175445   1.694   0.993  11.727 -0.5611  0.8126  2.0313
18010TIP3    H275446   1.818   1.074  11.694  0.4029 -0.3468  2.7064
18011TIP3   OH275447   2.646   0.664  12.399  0.4723  0.1549 -0.2737
18011TIP3    H175448   2.588   0.600  12.441  0.9016 -0.1363 -0.1133
18011TIP3    H275449   2.687   0.616  12.327  1.4076  0.0073  0.3434
18012TIP3   OH275450   6.264   2.785   3.758  0.0372  0.3220 -0.0035
18012TIP3    H175451   6.329   2.848   3.791  0.0953 -0.0159  0.5308
18012TIP3    H275452   6.181   2.832   3.762  0.0206  0.2372  0.7705
18013TIP3   OH275453   4.550   5.071   2.846 -0.2246 -0.3942  0.0593
18013TIP3    H175454   4.594   4.993   2.812 -1.7863 -2.0531  1.6534
18013TIP3    H275455   4.618   5.139   2.844  2.1590 -2.5432  1.4852
18014TIP3   OH275456   4.632   3.632  12.830 -0.5669 -0.0366 -0.3008
18014TIP3    H175457   4.623   3.566  12.762  1.3618 -0.2938 -0.3601
18014TIP3    H275458   4.564   3.696  12.811 -2.2673 -1.7882 -0.4441
18015TIP3   OH275459   0.937   5.559  10.943 -0.0712  0.5378  0.1603
18015TIP3    H175460   0.966   5.542  10.853 -2.2356 -1.1450 -0.2989
18015TIP3    H275461   0.984   5.638  10.968  1.1936  0.6255 -2.1630
18016TIP3   OH275462   5.258   5.710   4.383  0.3090 -0.4599 -0.3111
18016TIP3    H175463   5.345   5.748   4.374  0.3642 -0.4851  0.0809
18016TIP3    H275464   5.268   5.619   4.354  0.3505 -0.3877 -0.5233
18017TIP3   OH275465   5.237   1.072   1.088  0.0142  0.2285 -0.0417
18017TIP3    H175466   5.145   1.065   1.115 -0.0474  0.0721 -0.2866
18017TIP3    H275467   5.287   1.063   1.169 -0.1104 -1.7104 -0.1296
18018TIP3   OH275468   3.233   0.141   0.070 -0.4867 -0.2371  0.0852
18018TIP3    H175469   3.215   0.170   0.160 -0.1371 -1.3581  0.5352
18018TIP3    H275470   3.150   0.102   0.041 -0.6579  0.2973 -0.1599
18019TIP3   OH275471   4.436   5.897   3.327  0.5623 -0.2659  0.4007
18019TIP3    H175472   4.407   5.835   3.260  0.2326  1.5830 -1.2668
18019TIP3    H275473   4.495   5.847   3.383  1.1546 -1.8017 -1.4954
18020TIP3   OH275474   3.742   2.580  13.573  0.0271 -0.0362  0.4312
18020TIP3    H175475   3.679   2.650  13.558 -0.3227 -0.5902 -0.8604
18020TIP3    H275476   3.688   2.500  13.574  0.6155 -0.4472  0.0059
18021TIP3   OH275477   0.646   5.058  12.811 -0.0573  0.0935 -0.2929
18021TIP3    H175478   0.674   5.141  12.849 -0.1371 -0.4667  1.0874
18021TIP3    H275479   0.692   5.052  12.728 -0.1120  1.5459 -0.4439
18022TIP3   OH275480   4.078   5.611  17.293  0.0155  0.3472 -0.1815
18022TIP3    H175481   3.983   5.627  17.293 -0.2382 -0.8124  2.1036
18022TIP3    H275482   4.116   5.696  17.270 -1.5417  1.7894  2.0831
18023TIP3   OH275483   0.924   0.980  17.112 -0.2675  0.2045  0.2195
18023TIP3    H175484   0.915   0.948  17.022  0.3297 -0.1438  0.2805
18023TIP3    H275485   0.884   1.068  17.110 -1.4156 -0.3046 -0.0766
18024TIP3   OH275486   5.549   3.320   1.362  0.4671 -0.1035 -0.5283
18024TIP3    H175487   5.480   3.294   1.302  0.9232 -1.2045 -0.5942
18024TIP3    H275488   5.549   3.254   1.430  0.4997  0.6916  0.2649
18025TIP3   OH275489   4.219   3.140   0.437 -0.3276  0.1545  0.2304
18025TIP3    H175490   4.144   3.085   0.413  0.2743 -0.5069 -0.1864
18025TIP3    H275491   4.262   3.092   0.507 -0.2705  0.5148  0.4427
18026TIP3   OH275492   4.165   6.380  15.461 -0.0720 -0.3680  0.1547
18026TIP3    H175493   4.216   6.456  15.432 -1.2126  0.0815 -0.7637
18026TIP3    H275494   4.140   6.402  15.551  2.5837 -1.2887  1.2167
18027TIP3   OH275495   1.545   6.674  16.398  0.4073 -0.3490 -0.2290
18027TIP3    H175496   1.461   6.656  16.441  0.3084 -1.9779 -1.0149
18027TIP3    H275497   1.609   6.622  16.448  0.9584  0.8540  0.3434
18028TIP3   OH275498   0.909   2.427   3.448  0.0018 -0.1751  0.6255
18028TIP3    H175499   0.902   2.494   3.516  0.5228 -0.1448  0.6528
18028TIP3    H275500   0.949   2.472   3.374  4.9474 -1.4042  2.1329
18029TIP3   OH275501   6.367   6.737   1.341  0.4077  0.6216  0.3568
18029TIP3    H175502   6.446   6.775   1.377 -0.9190  0.8198  3.3127
18029TIP3    H275503   6.373   6.644   1.362  0.0685  0.5547  0.1704
18030TIP3   OH275504   2.304   6.347   0.867 -0.7305  0.3387  0.3634
18030TIP3    H175505   2.224   6.297   0.853 -1.2478  1.5148 -1.1627
18030TIP3    H275506   2.273   6.429   0.908 -0.2852  0.6890  0.0026
18031TIP3   OH275507   2.207   5.254  13.395 -0.1499  0.1338 -0.1240
18031TIP3    H175508   2.113   5.266  13.381 -0.2008 -1.9104 -2.1498
18031TIP3    H275509   2.231   5.182  13.336  2.5957  0.2336  0.7324
18032TIP3   OH275510   4.401   3.263   1.655 -0.5790  0.3242  0.2100
18032TIP3    H175511   4.348   3.308   1.721  0.7129  1.5735  0.4313
18032TIP3    H275512   4.337   3.233   1.590 -1.6947  0.5368  1.1828
18033TIP3   OH275513   1.309   5.780   5.487  0.0317 -0.1149 -0.2140
18033TIP3    H175514   1.219   5.768   5.457  0.3198 -2.9409 -0.1578
18033TIP3    H275515   1.307   5.752   5.578  1.1464 -1.2666 -0.5200
18034TIP3   OH275516   5.145   6.250  13.941 -0.1178 -0.0782  0.0113
18034TIP3    H175517   5.171   6.215  14.026  0.9623 -0.0501 -0.2889
18034TIP3    H275518   5.134   6.344  13.955  0.6235  0.0136 -0.0021
18035TIP3   OH275519   4.758   1.892   1.008  0.3768  0.0235  0.1503
18035TIP3    H175520   4.810   1.954   0.956  3.3671 -0.9673  1.7367
18035TIP3    H275521   4.763   1.927   1.098 -2.6157  0.3917  0.2507
18036TIP3   OH275522   5.828   5.220   6.042  0.0774 -0.3871  0.3420
18036TIP3    H175523   5.794   5.300   6.002  0.8751  0.1412  0.6893
18036TIP3    H275524   5.798   5.149   5.984  0.5618  0.2847 -0.7677
18037TIP3   OH275525   5.458   3.219   3.471  0.4374  0.5735 -0.1606
18037TIP3    H175526   5.518   3.191   3.540  0.5788 -1.5174 -1.0419
18037TIP3    H275527   5.387   3.154   3.474  0.1931  0.7469 -1.6115
18038TIP3   OH275528   1.806   0.428   6.985 -0.3027  0.3709  0.4293
18038TIP3    H175529   1.761   0.379   6.917  0.1722  0.0101  0.3713
18038TIP3    H275530   1.898   0.428   6.958  0.0676 -0.6592  1.5879
18039TIP3   OH275531   0.612   5.338  11.594 -0.8406  0.2289 -0.0604
18039TIP3    H175532   0.565   5.365  11.515 -1.5111  0.0317  0.2691
18039TIP3    H275533   0.700   5.375  11.583  0.3958 -3.0059 -2.7621
18040TIP3   OH275534   5.320   2.917   3.919 -0.3886  0.5042  0.1790
18040TIP3    H175535   5.278   2.965   3.989 -1.4913 -2.0307  1.4018
18040TIP3    H275536   5.251   2.904   3.854  0.1573  1.3624 -0.5894
18041TIP3   OH275537   4.189   1.030  13.714  0.0054  0.3033 -0.3693
18041TIP3    H175538   4.104   1.059  13.681 -0.1126 -0.9946 -1.2981
18041TIP3    H275539   4.168   0.962  13.778  0.3238 -0.0205 -0.6003
18042TIP3   OH275540   6.114   2.912  12.083  0.4889 -0.1667 -0.2931
18042TIP3    H175541   6.195   2.952  12.053  0.7753 -0.6506 -0.1637
18042TIP3    H275542   6.047   2.980  12.068  0.6658 -0.2744 -1.7128
18043TIP3   OH275543   6.021   3.681  10.729  0.6143  0.1540  0.3559
18043TIP3    H175544   6.101   3.671  10.780 -0.5089 -1.1345  1.9927
18043TIP3    H275545   5.983   3.593  10.725 -1.1065  0.8449  0.3396
18044TIP3   OH275546   6.089   5.509   4.408  0.4686  0.5016 -0.4319
18044TIP3    H175547   6.003   5.513   4.365 -0.3566  0.3842  1.1123
18044TIP3    H275548   6.094   5.589   4.459  1.3398  0.5619 -0.6016
18045TIP3   OH275549   6.385   3.850   0.495  0.7652 -0.1318 -0.8576
18045TIP3    H175550   6.412   3.939   0.519  2.8441 -0.3431 -2.1907
18045TIP3    H275551   6.441   3.793   0.549 -0.9924 -0.7099  0.4705
18046TIP3   OH275552   0.047   3.787   0.628  0.6001  0.3711 -0.7477
18046TIP3    H175553   0.014   3.719   0.687  1.5256  0.7292  0.2356
18046TIP3    H275554   0.002   3.772   0.545  1.1570 -1.7835 -0.7358
18047TIP3   OH275555   4.188   2.287   5.076 -0.0819  0.5741 -0.0456
18047TIP3    H175556   4.181   2.339   4.996 -0.6009 -0.0669 -0.4111
18047TIP3    H275557   4.156   2.201   5.053  2.8845 -0.6514 -0.0838
18048TIP3   OH275558   4.265   1.347  12.219  0.5971 -0.0438  1.0732
18048TIP3    H175559   4.246   1.412  12.152 -1.6685 -1.0993  0.5983
18048TIP3    H275560   4.316   1.280  12.173  0.7550  0.1783  0.9219
18049TIP3   OH275561   0.823   3.308  17.311 -0.1771  0.1191 -0.3821
18049TIP3    H175562   0.777   3.284  17.391 -1.1398  1.1659 -0.5935
18049TIP3    H275563   0.771   3.268  17.241  0.7449 -0.9244 -0.5135
18050TIP3   OH275564   3.020   3.038  15.347 -0.6182 -0.5643  0.6729
18050TIP3    H175565   3.076   2.965  15.320 -1.4942 -1.2196  0.5791
18050TIP3    H275566   3.069   3.116  15.322  0.0576 -1.1270  0.1932
18051TIP3   OH275567   4.422   2.035   5.730 -0.5826 -0.4219  0.3988
18051TIP3    H175568   4.423   2.105   5.795 -0.0840  1.2578 -1.3352
18051TIP3    H275569   4.509   1.995   5.737 -0.1577  0.4228  0.0858
18052TIP3   OH275570   2.579   4.510  13.215  0.3551  0.3384  0.2957
18052TIP3    H175571   2.674   4.509  13.202  0.2589  0.3281 -0.4377
18052TIP3    H275572   2.561   4.600  13.244  0.5872  0.3392  0.4447
18053TIP3   OH275573   0.428   0.743   1.513  0.0181 -0.5070  1.0385
18053TIP3    H175574   0.416   0.654   1.479 -0.8650  0.0188 -0.0926
18053TIP3    H275575   0.410   0.735   1.606 -1.8467 -1.2040  0.6630
18054TIP3   OH275576   5.156   6.148   2.655  0.4533  0.2425 -0.1241
18054TIP3    H175577   5.071   6.159   2.697 -0.9944 -0.5089 -2.6484
18054TIP3    H275578   5.136   6.121   2.565  3.3601  0.3050 -0.9160
18055TIP3   OH275579   2.004   0.068  13.328 -0.5239  0.1884  0.3429
18055TIP3    H175580   1.920   0.112  13.312  0.6480  2.0603 -1.1013
18055TIP3    H275581   2.065   0.139  13.348  0.9334 -1.0367  0.4155
18056TIP3   OH275582   4.379   0.204   1.578  0.5803  0.3328  0.1866
18056TIP3    H175583   4.322   0.265   1.530  2.2299  1.8397  0.0408
18056TIP3    H275584   4.329   0.183   1.657 -1.0830 -0.1537 -0.9372
18057TIP3   OH275585   2.456   4.739   5.408  0.7001 -0.0755  0.2567
18057TIP3    H175586   2.407   4.817   5.381  0.2910 -0.4870 -0.2038
18057TIP3    H275587   2.543   4.751   5.370  0.5782  0.0665  0.0189
18058TIP3   OH275588   6.751   0.569   0.907  0.1352  0.3804  0.0956
18058TIP3    H175589   6.688   0.605   0.845  0.7792 -0.5969 -1.1640
18058TIP3    H275590   6.701   0.509   0.961 -0.1975  0.3353 -0.2592
18059TIP3   OH275591   2.471   5.547   1.186  0.3350 -0.0497  0.2342
18059TIP3    H175592   2.559   5.583   1.179  0.6790 -1.1312 -2.2548
18059TIP3    H275593   2.418   5.601   1.128  0.1554 -1.4282 -0.9638
18060TIP3   OH275594   4.419   2.570  12.936  0.1097 -0.0199 -0.5117
18060TIP3    H175595   4.341   2.533  12.894  0.0702 -1.3299  0.6402
18060TIP3    H275596   4.386   2.616  13.013  0.2127  2.1029 -1.6707
18061TIP3   OH275597   3.004   6.535  14.974  0.5392 -0.5861  0.3744
18061TIP3    H175598   3.088   6.514  15.015  1.4088  2.7901  0.6405
18061TIP3    H275599   2.956   6.583  15.042 -0.5295 -0.2400 -0.5957
18062TIP3   OH275600   5.269   4.947   6.634  0.3488 -0.2799 -0.7085
18062TIP3    H175601   5.201   5.012   6.621  1.1587  0.4387 -1.4733
18062TIP3    H275602   5.253   4.880   6.568 -0.1835 -0.6142 -0.2499
18063TIP3   OH275603   0.221   4.179  16.104 -0.3306 -0.1484  0.0984
18063TIP3    H175604   0.229   4.090  16.069  0.2296 -1.2846  2.8291
18063TIP3    H275605   0.131   4.183  16.137 -0.5574  0.5615 -0.5842
18064TIP3   OH275606   6.051   6.132  11.490  1.2247 -0.2620  0.6105
18064TIP3    H175607   6.022   6.223  11.493  1.7653 -0.0903  0.5963
18064TIP3    H275608   5.976   6.085  11.453  1.3506  0.3371 -0.4319
18065TIP3   OH275609   3.066   0.236  16.912  0.3532  0.3914  0.6053
18065TIP3    H175610   3.020   0.292  16.849 -0.0147 -1.3285 -0.7170
18065TIP3    H275611   3.002   0.170  16.938  1.0558  0.0062  1.4161
18066TIP3   OH275612   1.351   3.835   2.045 -0.0818  0.1403  0.1596
18066TIP3    H175613   1.282   3.818   1.981 -1.3026 -0.3235  1.5390
18066TIP3    H275614   1.321   3.912   2.093 -0.8158 -1.3177  2.2260
18067TIP3   OH275615   4.907   0.159  15.372  0.2533  0.2360 -0.2303
18067TIP3    H175616   4.816   0.185  15.385  0.0540 -0.3012 -0.5491
18067TIP3    H275617   4.933   0.202  15.291  0.8568  1.8850  0.7960
18068TIP3   OH275618   1.829   5.747  16.902 -0.1448 -0.1145  0.4015
18068TIP3    H175619   1.887   5.823  16.899 -1.1462  0.6273 -2.2855
18068TIP3    H275620   1.792   5.741  16.815 -2.2070 -2.0859  1.3136
18069TIP3   OH275621   1.167   2.818  16.801 -0.1408 -0.1922  0.3822
18069TIP3    H175622   1.117   2.738  16.791  2.1324 -1.6593 -0.0419
18069TIP3    H275623   1.251   2.789  16.838  1.1640  1.8206 -0.8322
18070TIP3   OH275624   6.717   6.515  16.402  0.0937 -0.2909 -0.0955
18070TIP3    H175625   6.666   6.549  16.475 -2.4573 -0.3477 -1.7242
18070TIP3    H275626   6.734   6.424  16.425 -0.2369 -0.1683  0.6503
18071TIP3   OH275627   2.880   5.583  12.862 -0.5928 -0.3069 -0.3033
18071TIP3    H175628   2.933   5.502  12.862 -0.2559 -0.0886 -0.5894
18071TIP3    H275629   2.856   5.596  12.770  1.2853  1.1531 -0.6623
18072TIP3   OH275630   1.607   2.295  17.069  0.0995 -0.4000 -0.4654
18072TIP3    H175631   1.656   2.376  17.086  1.1177 -1.2509  0.9072
18072TIP3    H275632   1.631   2.271  16.980  0.7839  0.1613 -0.4435
18073TIP3   OH275633   2.723   0.447   5.565 -0.0258  0.5002  0.0450
18073TIP3    H175634   2.780   0.468   5.491  1.2230  0.3487  0.9288
18073TIP3    H275635   2.670   0.373   5.534  0.4276  0.4813 -0.7196
18074TIP3   OH275636   6.393   6.116  15.246  0.5302 -0.2288  0.3538
18074TIP3    H175637   6.307   6.134  15.284  1.1729  1.2859  1.1698
18074TIP3    H275638   6.402   6.179  15.175  0.1988 -1.6740 -1.0246
18075TIP3   OH275639   1.839   2.523  13.585  0.1660  0.3274 -0.0549
18075TIP3    H175640   1.882   2.467  13.520  0.8104 -1.2851  1.6765
18075TIP3    H275641   1.887   2.605  13.582  1.5200 -0.4494 -0.1791
18076TIP3   OH275642   1.910   3.074  13.303  0.0843  0.1721  0.1154
18076TIP3    H175643   1.865   3.009  13.248 -0.7562  1.7575 -1.1841
18076TIP3    H275644   1.983   3.104  13.249 -0.2612  1.1611  0.1851
18077TIP3   OH275645   2.901   0.460  13.288 -0.2035  0.4054 -0.3328
18077TIP3    H175646   2.831   0.399  13.312  1.2489 -1.5607 -0.7896
18077TIP3    H275647   2.968   0.448  13.355  0.4620  0.8512 -0.8960
18078TIP3   OH275648   6.069   4.367  12.578 -0.0564  0.0973 -0.3420
18078TIP3    H175649   6.076   4.316  12.498  0.0959 -1.8374  0.8486
18078TIP3    H275650   6.146   4.341  12.629 -0.2522  1.1498  0.5235
18079TIP3   OH275651   0.783   2.299   6.826 -0.0371 -0.3517 -0.1934
18079TIP3    H175652   0.799   2.369   6.762 -1.0102 -0.0464 -0.1222
18079TIP3    H275653   0.692   2.313   6.854  0.5544 -0.1272  1.7063
18080TIP3   OH275654   0.140   0.203  15.123  0.6146 -0.3741 -0.9535
18080TIP3    H175655   0.198   0.131  15.098  0.3909 -0.3049 -1.6959
18080TIP3    H275656   0.064   0.194  15.066 -1.3930 -2.0751  1.7428
18081TIP3   OH275657   2.357   1.501   4.355  0.1855 -0.3795 -0.2434
18081TIP3    H175658   2.278   1.451   4.338 -0.1938 -0.4289  1.4611
18081TIP3    H275659   2.331   1.564   4.423  1.5317 -0.2440  0.1819
18082TIP3   OH275660   5.832   0.914   4.563 -0.1607 -0.1566 -0.0262
18082TIP3    H175661   5.774   0.958   4.501  2.5481  0.6147 -2.1652
18082TIP3    H275662   5.803   0.822   4.561 -2.4184  0.4844  0.4014
18083TIP3   OH275663   0.615   6.628  11.629  0.0386 -0.1374  0.0721
18083TIP3    H175664   0.658   6.543  11.618  0.2185  0.0669 -0.9302
18083TIP3    H275665   0.653   6.664  11.709 -0.3746 -1.1939  0.7566
18084TIP3   OH275666   1.853   0.777   3.601 -1.1782  0.6223  0.4954
18084TIP3    H175667   1.828   0.863   3.635  0.4543  1.1976  0.2892
18084TIP3    H275668   1.873   0.792   3.509 -3.2761 -0.4882 -0.2294
18085TIP3   OH275669   2.179   1.334  11.696 -0.7117  0.6071  0.5121
18085TIP3    H175670   2.252   1.337  11.758  0.0912 -0.1448 -0.3487
18085TIP3    H275671   2.193   1.410  11.639 -2.2948  2.1763  2.1039
18086TIP3   OH275672   0.471   3.537  16.881 -0.9552 -0.3885 -0.4307
18086TIP3    H175673   0.541   3.496  16.932  1.0392 -0.1145 -2.7579
18086TIP3    H275674   0.425   3.592  16.944  1.4301  0.0275  1.0979
18087TIP3   OH275675   4.023   5.396   2.009 -0.2854  0.2135 -0.0245
18087TIP3    H175676   4.085   5.327   2.032 -0.2403  0.3852  0.3755
18087TIP3    H275677   3.991   5.429   2.093 -2.4985 -1.2582 -0.2109
18088TIP3   OH275678   0.606   1.037   2.416  0.5769  0.1009  0.3529
18088TIP3    H175679   0.566   1.116   2.378 -0.4548 -0.8569 -0.6469
18088TIP3    H275680   0.655   1.069   2.492 -0.0197  1.6711  0.1208
18089TIP3   OH275681   5.843   5.543  13.234 -0.2618  0.2024  0.3502
18089TIP3    H175682   5.875   5.626  13.199 -0.4370 -0.0087 -0.3330
18089TIP3    H275683   5.747   5.550  13.228 -0.2665 -0.5793 -1.0474
18090TIP3   OH275684   0.949   3.964  15.264  0.1615 -0.3017 -0.0971
18090TIP3    H175685   0.956   3.880  15.219 -0.4484  0.0892 -0.9553
18090TIP3    H275686   0.952   3.941  15.357 -2.2637 -1.5702 -0.2206
18091TIP3   OH275687   3.140   0.640  14.739 -0.1587  0.1011  0.3787
18091TIP3    H175688   3.088   0.679  14.810  0.2786 -1.1393  1.4296
18091TIP3    H275689   3.124   0.696  14.663 -1.6975  0.7063  1.1130
18092TIP3   OH275690   1.586   2.431  13.466 -0.5902  0.1516 -0.1400
18092TIP3    H175691   1.620   2.475  13.544 -0.7074 -0.5301  0.3024
18092TIP3    H275692   1.621   2.482  13.393  1.3415 -0.4577  0.2938
18093TIP3   OH275693   0.117   1.921   1.648 -0.2200 -0.0679  0.2294
18093TIP3    H175694   0.123   1.895   1.556 -0.5587  0.9556 -0.1079
18093TIP3    H275695   0.151   1.847   1.697  0.2714 -0.5040 -0.7421
18094TIP3   OH275696   2.129   4.523  15.371 -0.0259  0.5453  0.1382
18094TIP3    H175697   2.126   4.602  15.424  0.0829  0.2301  0.6201
18094TIP3    H275698   2.180   4.461  15.423 -2.2088 -0.6832  0.9243
18095TIP3   OH275699   6.489   0.035   1.648 -0.5796 -0.3731  0.2250
18095TIP3    H175700   6.446  -0.032   1.701 -1.8473  0.7587  0.6685
18095TIP3    H275701   6.450   0.117   1.677  0.0146  0.4478 -1.2140
18096TIP3   OH275702   6.475   2.047   3.211 -0.1845  0.2732 -0.2639
18096TIP3    H175703   6.393   1.999   3.200 -0.0286 -0.3450  1.0473
18096TIP3    H275704   6.451   2.120   3.268 -0.0409  0.7164 -0.7691
18097TIP3   OH275705   4.593   3.408   3.068  0.4824 -0.6220 -0.3808
18097TIP3    H175706   4.631   3.375   3.149  1.9738  0.2921 -0.6597
18097TIP3    H275707   4.639   3.360   2.999 -0.4614 -1.0769 -0.7052
18098TIP3   OH275708   4.523   5.863   2.897  0.2291 -0.0907  0.1725
18098TIP3    H175709   4.619   5.861   2.900  0.3939  3.1459  0.8031
18098TIP3    H275710   4.503   5.934   2.837 -1.7615  0.2232  1.1412
18099TIP3   OH275711   5.664   3.819  13.591 -0.1207 -0.4875  0.0010
18099TIP3    H175712   5.731   3.887  13.587 -1.5872  0.9460 -2.5599
18099TIP3    H275713   5.641   3.813  13.684  1.6789  0.8431  0.5663
18100TIP3   OH275714   5.234   3.624  11.426  0.2233 -0.6683 -0.2916
18100TIP3    H175715   5.261   3.658  11.341 -1.1350 -0.7093 -0.7514
18100TIP3    H275716   5.236   3.700  11.484 -2.7432  0.2843 -1.2965
18101TIP3   OH275717   4.934   5.276  15.605  0.8128 -0.0619 -0.1115
18101TIP3    H175718   4.969   5.198  15.649  1.3013  0.2265  0.0170
18101TIP3    H275719   4.888   5.241  15.529  1.1540 -0.4693 -0.1372
18102TIP3   OH275720   4.948   3.703   5.262  0.4937 -0.6266  0.0250
18102TIP3    H175721   4.871   3.663   5.303 -0.3011 -0.7915 -1.5606
18102TIP3    H275722   5.002   3.733   5.336 -1.2522 -0.1664  1.1616
18103TIP3   OH275723   5.311   6.496  13.640 -0.8324  0.2407  0.2311
18103TIP3    H175724   5.314   6.425  13.703 -0.4554  1.3195  1.4849
18103TIP3    H275725   5.383   6.554  13.666 -0.5355  0.6040 -1.3413
18104TIP3   OH275726   1.117   4.603   0.569 -0.1063 -0.0591 -0.3035
18104TIP3    H175727   1.101   4.572   0.658  0.7921 -1.6175 -0.6429
18104TIP3    H275728   1.208   4.632   0.571 -0.4580  1.0685 -0.4142
18105TIP3   OH275729   3.422   0.989   0.743  0.3862 -0.3257 -0.5051
18105TIP3    H175730   3.433   1.065   0.800  2.3943 -0.8093 -0.1527
18105TIP3    H275731   3.347   1.010   0.688 -0.2587  1.0908  0.8430
18106TIP3   OH275732   1.831   6.184  15.067  0.2878 -0.4402  0.1556
18106TIP3    H175733   1.907   6.178  15.124 -1.0654 -1.0590  1.9802
18106TIP3    H275734   1.757   6.159  15.122 -1.1601 -0.6340 -1.7598
18107TIP3   OH275735   4.701   6.376   4.817 -0.0423 -0.7050  0.4555
18107TIP3    H175736   4.716   6.321   4.740 -0.1992 -0.1108 -0.0105
18107TIP3    H275737   4.606   6.387   4.820 -0.0441 -0.8081  0.7946
18108TIP3   OH275738   2.312   1.147   5.502 -0.0819 -0.3980  0.2126
18108TIP3    H175739   2.281   1.056   5.504 -2.1320  0.1970 -1.4531
18108TIP3    H275740   2.391   1.144   5.449  0.8496 -1.4101  1.5635
18109TIP3   OH275741   3.406   3.166  15.325  0.0887 -0.2156  0.1250
18109TIP3    H175742   3.315   3.191  15.308  0.5968  2.2830  0.6440
18109TIP3    H275743   3.401   3.078  15.362 -2.0008 -0.6091 -0.9606
18110TIP3   OH275744   3.913   6.025  15.468 -0.1598 -0.7709 -0.2311
18110TIP3    H175745   3.861   6.065  15.398  0.7905 -0.9117 -1.0373
18110TIP3    H275746   3.994   6.075  15.470 -0.2909 -0.5762  0.9916
18111TIP3   OH275747   1.483   4.422  10.606 -0.2375 -0.3229  0.3275
18111TIP3    H175748   1.573   4.441  10.633 -0.5468  2.3506 -0.1672
18111TIP3    H275749   1.490   4.347  10.548  1.4053 -1.3050  1.6889
18112TIP3   OH275750   2.652   1.587  12.307  0.4826  0.2028  0.0663
18112TIP3    H175751   2.579   1.532  12.337 -0.0579  1.1701  0.5949
18112TIP3    H275752   2.619   1.627  12.226  0.7191  0.0682 -0.0974
18113TIP3   OH275753   5.596   2.017   4.464  0.3320  0.2586  0.3039
18113TIP3    H175754   5.566   1.940   4.416  0.6485  1.1822 -1.4576
18113TIP3    H275755   5.623   2.079   4.396  0.3105  1.8458  1.6681
18114TIP3   OH275756   2.050   4.667   0.139  0.3230 -0.8560 -0.1162
18114TIP3    H175757   1.995   4.595   0.110 -0.8533  0.0192 -0.1466
18114TIP3    H275758   2.088   4.637   0.221  0.2843 -1.7173 -0.4118
18115TIP3   OH275759   2.565   1.286   0.854 -0.3357 -0.0792 -0.1457
18115TIP3    H175760   2.626   1.338   0.801  0.4918 -1.6599 -0.8168
18115TIP3    H275761   2.605   1.198   0.857 -1.0076 -0.3668  2.0450
18116TIP3   OH275762   4.473   0.229   2.260 -0.6483  0.0686  0.4404
18116TIP3    H175763   4.427   0.266   2.184 -0.2474  0.3715  0.3429
18116TIP3    H275764   4.405   0.223   2.328 -0.5699  1.7518  0.7163
18117TIP3   OH275765   4.436   5.099  13.079  0.3307  0.0866 -0.0136
18117TIP3    H175766   4.363   5.141  13.125 -0.1590 -1.3387  0.5327
18117TIP3    H275767   4.461   5.026  13.135  1.0709 -0.4555 -1.0363
18118TIP3   OH275768   1.544   0.119   5.342  0.6696 -0.2695 -0.1329
18118TIP3    H175769   1.503   0.092   5.260  0.5955 -2.2804  0.5132
18118TIP3    H275770   1.590   0.041   5.373  0.4042  0.3294  1.9176
18119TIP3   OH275771   2.849   1.141   0.075 -0.1242  0.0502  0.4378
18119TIP3    H175772   2.934   1.097   0.072  0.3442  0.9767 -2.3754
18119TIP3    H275773   2.859   1.208   0.143  0.5682 -1.3486  1.7664
18120TIP3   OH275774   4.315   2.167  12.670 -0.4890 -0.2757  0.1898
18120TIP3    H175775   4.323   2.247  12.722 -0.7009 -0.7421  0.9590
18120TIP3    H275776   4.323   2.096  12.734 -1.3833 -0.8564 -0.3284
18121TIP3   OH275777   6.542   2.924   5.112 -0.4041  0.2876  0.1584
18121TIP3    H175778   6.447   2.929   5.117 -0.4389 -0.7281  0.8294
18121TIP3    H275779   6.560   2.875   5.032 -0.5213 -1.1968  1.0174
18122TIP3   OH275780   1.555   4.570  13.970  0.1017 -0.3747 -0.2230
18122TIP3    H175781   1.523   4.657  13.949 -0.4594 -0.6551 -0.5559
18122TIP3    H275782   1.603   4.581  14.052 -0.0458  0.2284 -0.2144
18123TIP3   OH275783   3.191   0.527  16.659 -0.1823 -0.0412  0.2166
18123TIP3    H175784   3.244   0.454  16.627  0.9746  0.3868  1.0941
18123TIP3    H275785   3.191   0.590  16.587 -1.0303 -0.8126 -0.4747
18124TIP3   OH275786   3.115   2.717   2.165  0.0222  0.5731  0.0399
18124TIP3    H175787   3.112   2.760   2.079  1.3806  0.4258 -0.1006
18124TIP3    H275788   3.130   2.788   2.227 -1.6488  0.7761  0.2768
18125TIP3   OH275789   1.044   3.280   3.194  0.0503 -0.1693  0.6857
18125TIP3    H175790   1.132   3.244   3.182  0.2750  0.6672 -0.2584
18125TIP3    H275791   1.053   3.373   3.176 -0.7981  0.1457  1.8042
18126TIP3   OH275792   0.026   5.212  14.580  0.1359  0.0711  0.2389
18126TIP3    H175793   0.024   5.281  14.514  1.9575  0.6324  0.7307
18126TIP3    H275794  -0.030   5.245  14.650  0.2652  0.6276  0.0827
18127TIP3   OH275795   0.946   5.503  17.276 -0.4286  0.2801 -0.5499
18127TIP3    H175796   0.997   5.445  17.220  1.2179 -0.5280  1.6495
18127TIP3    H275797   0.906   5.445  17.340  0.0815  1.3960  0.8300
18128TIP3   OH275798   3.604   1.641   0.350  1.2149 -0.3207 -0.4809
18128TIP3    H175799   3.576   1.718   0.399  3.5049  0.7658 -0.7580
18128TIP3    H275800   3.522   1.596   0.327 -0.1431  1.6491  0.2453
18129TIP3   OH275801   4.474   0.406   6.196 -0.8745  0.5080 -1.0719
18129TIP3    H175802   4.378   0.398   6.190 -0.8900 -0.5141  0.1456
18129TIP3    H275803   4.506   0.341   6.133 -0.9939 -0.0220 -0.5944
18130TIP3   OH275804   0.806   2.114   1.108  0.4853 -0.1597 -0.1362
18130TIP3    H175805   0.716   2.083   1.110  0.7726 -1.1061 -0.6620
18130TIP3    H275806   0.851   2.062   1.176  0.2133  1.8335  1.6485
18131TIP3   OH275807   3.890   3.710  17.186 -0.6409  0.4532 -0.0516
18131TIP3    H175808   3.907   3.804  17.192  0.0691  0.2547  1.4808
18131TIP3    H275809   3.968   3.668  17.221 -0.9612 -0.7301 -0.6611
18132TIP3   OH275810   5.581   5.615  13.871  0.1543 -0.2680  0.2119
18132TIP3    H175811   5.523   5.667  13.816 -0.1916 -0.1730  0.6534
18132TIP3    H275812   5.664   5.611  13.823  0.2406  0.8321  0.2408
18133TIP3   OH275813   5.391   4.971  14.804  0.4284  0.1102  0.0192
18133TIP3    H175814   5.455   4.901  14.819 -0.4011 -0.4289  1.2022
18133TIP3    H275815   5.422   5.015  14.725  1.1567 -1.3970 -0.5794
18134TIP3   OH275816   2.511   1.573  17.142 -0.0311 -0.0093  0.3125
18134TIP3    H175817   2.465   1.492  17.116 -1.2141  0.3385  1.2395
18134TIP3    H275818   2.563   1.548  17.218  1.6358 -0.4805 -0.9275
18135TIP3   OH275819   2.769   1.233   3.892  0.0736  0.7079 -0.4284
18135TIP3    H175820   2.801   1.314   3.851  0.3062  1.0070  0.3319
18135TIP3    H275821   2.686   1.215   3.848  1.4145 -0.3185 -2.7568
18136TIP3   OH275822   4.865   1.911  16.629 -0.2405  0.3751 -0.3834
18136TIP3    H175823   4.819   1.977  16.681  0.3719  0.9894 -0.6090
18136TIP3    H275824   4.845   1.934  16.538  0.4904  0.6489 -0.4862
18137TIP3   OH275825   0.902   4.678   4.533  0.4094  0.0923 -0.0306
18137TIP3    H175826   0.967   4.608   4.543 -0.0881 -0.0476  3.1036
18137TIP3    H275827   0.819   4.637   4.555  0.0915  1.5439  1.7743
18138TIP3   OH275828   3.966   2.062  12.869 -0.1693  0.1488  0.5099
18138TIP3    H175829   3.954   2.043  12.776  0.0897 -2.0166  0.8603
18138TIP3    H275830   4.056   2.036  12.888  0.0336  1.2973  1.2203
18139TIP3   OH275831   5.220   4.653  13.513 -0.4840 -0.4361  0.2333
18139TIP3    H175832   5.224   4.732  13.567  0.2279 -2.4721  3.4599
18139TIP3    H275833   5.131   4.621  13.523 -0.6904 -0.2353 -0.8312
18140TIP3   OH275834   1.427   1.891  13.016  0.1396 -0.0123 -0.4840
18140TIP3    H175835   1.357   1.891  12.951 -1.5545  0.3395  1.2445
18140TIP3    H275836   1.428   1.802  13.050  0.5221 -0.0098 -0.4872
18141TIP3   OH275837   6.104   6.000   5.184  0.2168 -0.3924  0.2557
18141TIP3    H175838   6.132   6.048   5.105  0.4920  2.4516  1.9337
18141TIP3    H275839   6.012   6.022   5.193  0.1856 -0.7153  0.7258
18142TIP3   OH275840   4.592   0.811  16.017 -0.0377  0.2951  0.1649
18142TIP3    H175841   4.649   0.852  16.083 -0.5605  1.0593  0.1617
18142TIP3    H275842   4.508   0.803  16.061 -0.1979  0.1316 -0.1724
18143TIP3   OH275843   2.138   3.021   0.882 -0.2823  0.2654  0.6657
18143TIP3    H175844   2.101   3.108   0.894 -2.5027 -0.4171 -0.7481
18143TIP3    H275845   2.145   3.010   0.787  0.1361 -1.0446  0.8252
18144TIP3   OH275846   0.545   4.349   0.649 -0.2782 -0.0395  0.2892
18144TIP3    H175847   0.624   4.393   0.681  0.4072 -1.5513  0.7746
18144TIP3    H275848   0.538   4.374   0.557  0.7058  0.1991  0.2762
18145TIP3   OH275849   1.617   3.218  12.212  0.2230  0.1600  0.0159
18145TIP3    H175850   1.636   3.173  12.130 -1.2301  0.3936 -0.4894
18145TIP3    H275851   1.661   3.167  12.280  0.8071 -0.4719 -0.8360
18146TIP3   OH275852   6.416   3.866   2.051 -0.4444 -0.2591 -0.3243
18146TIP3    H175853   6.470   3.945   2.056  0.5172 -0.8927 -0.3660
18146TIP3    H275854   6.327   3.898   2.043 -0.4777  0.8793  3.0705
18147TIP3   OH275855   4.729   1.988   3.456  0.3317  0.3714 -0.4279
18147TIP3    H175856   4.745   2.007   3.549 -1.3826 -0.2318  0.0364
18147TIP3    H275857   4.763   2.064   3.410 -1.2632  2.0169  0.9292
18148TIP3   OH275858   0.333   3.609  15.192 -0.1479  0.1399 -0.0075
18148TIP3    H175859   0.412   3.655  15.162 -1.3096  1.6611 -0.8610
18148TIP3    H275860   0.362   3.520  15.208  1.3891  0.2400 -1.9217
18149TIP3   OH275861   0.146   2.077   6.709 -0.2085 -0.4494  0.0384
18149TIP3    H175862   0.170   2.026   6.632 -3.0598 -0.4957 -0.9083
18149TIP3    H275863   0.170   2.022   6.783  0.5138 -1.3735 -0.8618
18150TIP3   OH275864   5.998   1.051   1.634 -0.3081 -0.2642 -0.3979
18150TIP3    H175865   6.001   1.138   1.676 -1.3238  0.3166 -1.4861
18150TIP3    H275866   5.906   1.036   1.617 -0.1661 -1.6754 -0.0619
18151TIP3   OH275867   6.639   5.062  13.077 -0.0175 -0.1019  0.2771
18151TIP3    H175868   6.579   5.070  13.003 -0.6006  0.4958  0.8047
18151TIP3    H275869   6.642   5.150  13.115  0.1007 -0.4510  1.0882
18152TIP3   OH275870   6.642   2.464   0.020 -0.3363 -0.4100 -0.5495
18152TIP3    H175871   6.717   2.463  -0.040 -0.5184 -1.2374 -0.7732
18152TIP3    H275872   6.637   2.554   0.050  2.0662 -0.7555  1.1207
18153TIP3   OH275873   5.481   1.337   4.375 -0.0676  0.2057  0.2997
18153TIP3    H175874   5.558   1.289   4.344  0.3817 -0.4070  2.2237
18153TIP3    H275875   5.454   1.389   4.299  1.7788 -0.1238 -0.6669
18154TIP3   OH275876   4.990   6.146  14.718 -0.3488  0.0655 -0.1248
18154TIP3    H175877   4.934   6.202  14.771  0.4067  1.6941 -0.9698
18154TIP3    H275878   4.945   6.140  14.633 -0.6710 -1.0575  0.1033
18155TIP3   OH275879   6.245   4.524  12.827 -0.3347 -0.1018  0.1000
18155TIP3    H175880   6.259   4.485  12.741 -0.0094  0.7101 -0.2257
18155TIP3    H275881   6.192   4.602  12.810  0.2601  0.4109  0.5462
18156TIP3   OH275882   3.372   0.981   2.257 -0.1446  0.3027 -0.6173
18156TIP3    H175883   3.344   1.042   2.325  0.3641  0.0021 -0.1358
18156TIP3    H275884   3.291   0.946   2.221 -0.5974  3.0492 -2.5837
18157TIP3   OH275885   0.324   5.844  14.635  0.7486  0.1767  0.1915
18157TIP3    H175886   0.235   5.881  14.635  0.1697 -1.0985 -1.2764
18157TIP3    H275887   0.367   5.886  14.560  0.3342 -1.4598 -1.0116
18158TIP3   OH275888   0.680   3.014   4.309  0.2103  0.0049 -0.2516
18158TIP3    H175889   0.612   2.948   4.321 -0.1993  0.7107  1.6685
18158TIP3    H275890   0.648   3.091   4.357  1.6516  0.8718 -0.6205
18159TIP3   OH275891   6.706   0.422  14.999  0.0301 -0.0655 -0.3366
18159TIP3    H175892   6.711   0.510  14.961  0.4457  0.7132  1.4131
18159TIP3    H275893   6.702   0.437  15.094  0.0618 -1.9414 -0.0012
18160TIP3   OH275894   1.260   2.358  13.201  0.9078 -0.1025 -0.1064
18160TIP3    H175895   1.260   2.433  13.141 -3.7935  0.2303 -0.0550
18160TIP3    H275896   1.256   2.396  13.288  0.2840 -0.3723 -0.0050
18161TIP3   OH275897   1.687   3.405   2.515 -0.4553  0.3898 -0.5089
18161TIP3    H175898   1.742   3.385   2.590 -0.1676 -1.1575 -1.0911
18161TIP3    H275899   1.599   3.381   2.543 -0.6262  1.4580 -0.0894
18162TIP3   OH275900   4.533   4.730   3.139 -0.0583 -0.1087  0.5511
18162TIP3    H175901   4.541   4.658   3.201 -2.5287 -2.2688 -1.4081
18162TIP3    H275902   4.447   4.769   3.158 -0.5543 -0.3701 -0.9909
18163TIP3   OH275903   5.740   4.951   5.905  0.2594 -0.5362  0.5451
18163TIP3    H175904   5.777   4.878   5.954  1.3479 -0.4211 -0.0782
18163TIP3    H275905   5.742   4.924   5.814 -1.2360 -0.5203  0.4724
18164TIP3   OH275906   6.421   0.283  13.123 -0.0968 -0.1176  0.1128
18164TIP3    H175907   6.433   0.188  13.112  0.5435 -0.0611  0.3150
18164TIP3    H275908   6.508   0.317  13.141 -0.3974  0.4491  0.5357
18165TIP3   OH275909   5.139   3.890   0.779  0.1734 -0.0754 -0.2999
18165TIP3    H175910   5.053   3.920   0.748  0.8277 -0.4862 -2.7760
18165TIP3    H275911   5.125   3.799   0.803 -0.0292 -0.2443 -1.0321
18166TIP3   OH275912   2.459   2.604  15.878 -0.0473  0.5589  0.4361
18166TIP3    H175913   2.369   2.572  15.886  0.5329 -1.0756  0.9438
18166TIP3    H275914   2.473   2.656  15.956 -0.3892  0.3721  0.6272
18167TIP3   OH275915   4.998   1.339   0.011  0.5067  0.3710 -0.4265
18167TIP3    H175916   4.996   1.315   0.103  0.7760 -0.7777 -0.7160
18167TIP3    H275917   5.086   1.374  -0.003 -0.1262  2.3555  0.1721
18168TIP3   OH275918   2.908   1.151  15.523 -0.0360 -0.2179  0.3452
18168TIP3    H175919   2.948   1.186  15.603  2.7727 -0.3312 -0.8947
18168TIP3    H275920   2.913   1.224  15.460  3.0572 -1.6892 -1.3426
18169TIP3   OH275921   5.435   4.199   2.346  0.5907 -0.3417 -0.4481
18169TIP3    H175922   5.431   4.280   2.295 -0.7492  0.3194  0.6045
18169TIP3    H275923   5.512   4.209   2.402  2.1004 -1.1017 -2.3109
18170TIP3   OH275924   5.749   6.422   1.656  0.0891  0.0939  0.1702
18170TIP3    H175925   5.704   6.465   1.583  0.0302  0.8715  0.6495
18170TIP3    H275926   5.748   6.329   1.633 -1.4318  0.1251 -0.0192
18171TIP3   OH275927   4.098   2.843   5.641 -0.0836 -0.4638  0.6850
18171TIP3    H175928   4.145   2.862   5.723 -0.9327  0.7292  0.9373
18171TIP3    H275929   4.141   2.898   5.576 -1.4716  1.1695  1.0575
18172TIP3   OH275930   5.212   4.908   1.538 -0.0231  0.4667  0.0793
18172TIP3    H175931   5.191   4.829   1.587 -0.9949  1.2844  1.0465
18172TIP3    H275932   5.189   4.887   1.447 -0.0103 -0.4396  0.2792
18173TIP3   OH275933   4.526   6.670  12.459  0.1214 -0.3501  0.4633
18173TIP3    H175934   4.466   6.668  12.533  0.7532  0.3251  1.0133
18173TIP3    H275935   4.519   6.583  12.419 -1.2779 -0.2491  0.4499
18174TIP3   OH275936   4.516   3.433   3.889  0.1095 -0.1115 -0.0761
18174TIP3    H175937   4.525   3.409   3.796  0.2279  0.0172 -0.0986
18174TIP3    H275938   4.524   3.528   3.890  2.3803 -0.2555  0.3056
18175TIP3   OH275939   3.546   4.246  11.159  0.1902  0.4461 -0.0990
18175TIP3    H175940   3.505   4.324  11.198  0.3730  0.9761 -0.9339
18175TIP3    H275941   3.628   4.236  11.207  0.9167  1.7185 -0.9862
18176TIP3   OH275942   0.463   6.379  13.520 -0.3347  0.4939  0.1290
18176TIP3    H175943   0.518   6.344  13.449 -2.1934  0.5772 -1.4335
18176TIP3    H275944   0.464   6.310  13.586 -2.0998 -1.7085 -1.9183
18177TIP3   OH275945   0.841   1.648  14.766  0.0822 -0.1926  0.5875
18177TIP3    H175946   0.901   1.596  14.713  0.3723 -0.6627  1.3619
18177TIP3    H275947   0.882   1.652  14.852 -0.6295  0.1217  0.9224
18178TIP3   OH275948   0.469   1.135   5.681  0.6797 -0.1521 -0.3970
18178TIP3    H175949   0.466   1.075   5.756  0.1526 -0.3500 -0.5675
18178TIP3    H275950   0.554   1.119   5.641  0.1443 -1.5713 -1.0624
18179TIP3   OH275951   4.007   2.779   3.071  0.2605 -0.6147  0.0820
18179TIP3    H175952   4.097   2.789   3.041  1.5927 -0.7115  3.5572
18179TIP3    H275953   3.983   2.865   3.107 -0.9007 -0.6987 -0.4489
18180TIP3   OH275954   5.360   0.339   1.956  0.6144  0.7359 -0.2624
18180TIP3    H175955   5.327   0.426   1.975 -1.2577 -0.1656  0.9157
18180TIP3    H275956   5.315   0.282   2.018 -0.1350 -1.4113 -2.6064
18181TIP3   OH275957   2.869   0.163  12.392  0.6551 -0.2206  0.0033
18181TIP3    H175958   2.853   0.094  12.327  0.3689 -1.6756  1.5308
18181TIP3    H275959   2.837   0.126  12.475  2.6866  0.7892  1.3471
18182TIP3   OH275960   4.674   0.849   3.816  0.8323  0.1850  0.3928
18182TIP3    H175961   4.616   0.856   3.740 -0.0025  0.4527  1.0379
18182TIP3    H275962   4.736   0.780   3.793  1.2810  1.0072 -0.9721
18183TIP3   OH275963   1.479   5.545  15.941  0.1573 -0.3854 -0.0340
18183TIP3    H175964   1.465   5.604  15.868 -0.7251 -0.6176 -0.0669
18183TIP3    H275965   1.392   5.510  15.961  0.0675  0.9034  2.1699
18184TIP3   OH275966   3.731   6.578  11.945 -0.4856  0.2183 -0.0465
18184TIP3    H175967   3.665   6.522  11.986  0.6852 -1.6291 -0.5464
18184TIP3    H275968   3.746   6.538  11.859  1.4193  0.4297  0.1487
18185TIP3   OH275969   3.776   4.845   1.979 -0.5901 -0.4348 -0.2772
18185TIP3    H175970   3.812   4.765   1.940  0.5808  0.0949 -0.3253
18185TIP3    H275971   3.844   4.911   1.965  0.1911 -0.3348  3.1778
18186TIP3   OH275972   5.390   2.164  17.219  0.2644  0.1265 -0.6242
18186TIP3    H175973   5.416   2.078  17.251  0.8483  0.2978 -0.6285
18186TIP3    H275974   5.321   2.146  17.154  0.1206 -0.3097 -0.3544
18187TIP3   OH275975   4.473   5.244   1.282  0.5143  0.0583 -0.2904
18187TIP3    H175976   4.448   5.242   1.190  1.2801 -1.4318 -0.4963
18187TIP3    H275977   4.564   5.216   1.283 -0.0659 -2.0026  1.0726
18188TIP3   OH275978   1.883   0.542   3.740  0.8022  0.0630  0.4949
18188TIP3    H175979   1.893   0.481   3.667 -2.6559  0.2576 -0.3335
18188TIP3    H275980   1.900   0.628   3.702 -0.4949  0.1154 -0.0283
18189TIP3   OH275981   1.582   5.377   4.013 -0.5718 -0.0516  0.7361
18189TIP3    H175982   1.668   5.355   4.051 -0.4843 -0.0506  0.5394
18189TIP3    H275983   1.581   5.331   3.929 -0.2682  0.9292  0.1767
18190TIP3   OH275984   1.335   2.212  16.546 -0.4685  0.0467  0.0813
18190TIP3    H175985   1.295   2.242  16.628  1.3073  1.4578  0.4963
18190TIP3    H275986   1.373   2.127  16.568 -1.7150 -0.5246  0.1336
18191TIP3   OH275987   5.119   2.723   2.848  0.1470 -0.4822 -0.0625
18191TIP3    H175988   5.173   2.799   2.871 -0.6613  0.1861 -0.2808
18191TIP3    H275989   5.164   2.648   2.886  2.9395 -0.4365 -2.8728
18192TIP3   OH275990   1.636   2.111  10.649 -0.3972  0.0523 -0.0341
18192TIP3    H175991   1.585   2.122  10.728 -1.8947 -0.3087 -0.9095
18192TIP3    H275992   1.628   2.195  10.603  0.2190  0.1603  0.0465
18193TIP3   OH275993   2.738   0.599  16.586  0.2211 -0.4014 -0.0372
18193TIP3    H175994   2.803   0.541  16.627 -0.5395 -1.0794  0.2460
18193TIP3    H275995   2.772   0.687  16.600  0.5222 -0.6805  1.1185
18194TIP3   OH275996   2.808   2.160   3.829  0.2523  0.0385  0.0543
18194TIP3    H175997   2.734   2.115   3.788 -0.2884  0.1407  0.8915
18194TIP3    H275998   2.885   2.122   3.787 -0.2100 -1.3176  0.3808
18195TIP3   OH275999   2.408   5.552   1.954 -0.3742 -0.2551 -0.2697
18195TIP3    H176000   2.355   5.533   1.876 -0.6253  1.3774 -0.5303
18195TIP3    H276001   2.442   5.467   1.981 -1.4783 -1.0601 -1.2984
18196TIP3   OH276002   1.962   2.514   4.355  0.8635 -0.4026  0.6585
18196TIP3    H176003   2.047   2.529   4.314  0.7262 -2.8816 -0.7478
18196TIP3    H276004   1.955   2.418   4.361 -3.2063 -0.5629 -2.4852
18197TIP3   OH276005   4.620   0.136   2.607  0.2538 -0.8553 -0.3903
18197TIP3    H176006   4.695   0.139   2.548  0.5902 -0.5899  0.0492
18197TIP3    H276007   4.553   0.188   2.563 -0.2767 -2.4852 -1.5993
18198TIP3   OH276008   1.387   4.269   0.940 -0.7247 -0.2246 -0.8657
18198TIP3    H176009   1.295   4.288   0.956 -0.6254 -0.4951  0.0931
18198TIP3    H276010   1.427   4.269   1.027  0.4045  1.0291 -1.3389
18199TIP3   OH276011   4.225   5.509   6.149  0.4819  0.6983  0.4680
18199TIP3    H176012   4.295   5.523   6.213  1.6508 -1.6422 -0.2201
18199TIP3    H276013   4.205   5.416   6.155 -0.2203  0.6588 -1.7300
18200TIP3   OH276014   3.927   2.170  11.811 -0.2948  0.2039  0.1101
18200TIP3    H176015   3.991   2.174  11.741  0.8233 -0.8540  1.0159
18200TIP3    H276016   3.962   2.228  11.879  0.5188 -1.4479  1.1866
18201TIP3   OH276017   5.953   1.132   2.357 -0.6163  0.1436  0.0886
18201TIP3    H176018   5.961   1.186   2.436 -1.8404  0.2960  0.1307
18201TIP3    H276019   5.861   1.105   2.356 -0.3532 -0.7692 -0.7002
18202TIP3   OH276020   0.770   3.313   3.451  0.1118  0.2523  0.1124
18202TIP3    H176021   0.747   3.262   3.528 -1.3288 -0.3368 -0.6795
18202TIP3    H276022   0.784   3.247   3.382  0.7688  0.7974 -0.2872
18203TIP3   OH276023   4.587   1.264   0.764 -0.1132  0.7523 -0.3020
18203TIP3    H176024   4.532   1.289   0.838 -1.3085 -2.0596 -0.1346
18203TIP3    H276025   4.538   1.291   0.687 -1.1111 -0.4905 -0.1233
18204TIP3   OH276026   6.056   0.732  17.049 -0.0878  0.4686 -0.3753
18204TIP3    H176027   6.063   0.637  17.038  1.6946  0.5806 -0.4988
18204TIP3    H276028   5.962   0.748  17.055 -0.4049 -1.4231  0.7824
18205TIP3   OH276029   5.307   5.545  16.134  0.8057  0.1464 -0.1327
18205TIP3    H176030   5.274   5.564  16.046  0.2448 -2.7919 -0.6561
18205TIP3    H276031   5.395   5.584  16.136  0.8979  0.1188 -2.0788
18206TIP3   OH276032   6.184   4.265   2.102  0.1243 -0.1784 -0.1708
18206TIP3    H176033   6.250   4.253   2.170  1.7404  2.3216 -1.1757
18206TIP3    H276034   6.122   4.327   2.140 -0.4306 -0.7953 -0.0528
18207TIP3   OH276035   0.597   5.802  16.467 -0.5827 -0.6145  0.2494
18207TIP3    H176036   0.541   5.872  16.501  1.2688  0.4040  1.3421
18207TIP3    H276037   0.569   5.792  16.376 -1.2339  1.2224  0.1950
18208TIP3   OH276038   3.288   1.610  16.202  0.1748  0.1535  0.1107
18208TIP3    H176039   3.295   1.530  16.150 -1.9956  0.2212 -0.3757
18208TIP3    H276040   3.333   1.676  16.149 -0.2165 -0.2196 -0.7155
18209TIP3   OH276041   4.026   3.804   4.587 -0.0560  0.2568 -0.6445
18209TIP3    H176042   4.012   3.722   4.636 -0.5803  1.1561  0.7615
18209TIP3    H276043   4.122   3.814   4.586 -0.0548  0.6831  1.0293
18210TIP3   OH276044   5.660   5.221  13.253  0.2377 -0.0593 -0.2514
18210TIP3    H176045   5.595   5.170  13.205 -1.3622  1.0532  0.6307
18210TIP3    H276046   5.723   5.248  13.186 -0.0785 -1.3192 -1.1063
18211TIP3   OH276047   1.207   4.144   5.690  0.1362  0.0848 -0.0827
18211TIP3    H176048   1.185   4.108   5.604 -2.1311  0.7543  0.1596
18211TIP3    H276049   1.260   4.221   5.672  1.3912 -0.8920 -0.7589
18212TIP3   OH276050   0.299   1.351   5.716  0.0564  0.2960  0.5544
18212TIP3    H176051   0.337   1.264   5.721 -2.2728 -0.9447 -1.3516
18212TIP3    H276052   0.246   1.360   5.795 -0.9735 -0.7012 -0.0074
18213TIP3   OH276053   4.713   1.416  13.158 -0.2677 -0.5520 -0.0212
18213TIP3    H176054   4.654   1.354  13.115  0.1359 -1.8904  1.2854
18213TIP3    H276055   4.702   1.399  13.251  2.4263 -1.0958  0.2822
18214TIP3   OH276056   2.658   6.507   4.131  0.2141 -0.4447  0.0653
18214TIP3    H176057   2.661   6.588   4.182  0.8998 -1.6654  2.0985
18214TIP3    H276058   2.566   6.480   4.136  0.0443  0.0426 -0.3596
18215TIP3   OH276059   2.180   6.148   4.370 -0.2299 -0.1228  0.2114
18215TIP3    H176060   2.182   6.240   4.341 -0.9286 -0.9429 -2.8887
18215TIP3    H276061   2.271   6.126   4.386 -0.0217  1.0062  0.6851
18216TIP3   OH276062   6.303   1.623  14.520  0.3927  0.1216  0.2033
18216TIP3    H176063   6.234   1.603  14.457  0.4749 -0.8330  0.4079
18216TIP3    H276064   6.260   1.673  14.588  0.3819  1.5479 -0.8018
18217TIP3   OH276065   0.284   4.222   1.730 -0.3718 -0.0949  0.0019
18217TIP3    H176066   0.274   4.132   1.760  0.7264  0.0188  0.7814
18217TIP3    H276067   0.287   4.216   1.635 -1.5427 -0.7363 -0.0122
18218TIP3   OH276068   5.259   4.084   5.592 -0.1781 -0.2473  0.4040
18218TIP3    H176069   5.165   4.095   5.607 -0.2785  0.3462 -0.5759
18218TIP3    H276070   5.299   4.156   5.641 -0.2491 -0.3679  0.6416
18219TIP3   OH276071   0.688   5.837   1.994 -0.8074  0.2396  0.2069
18219TIP3    H176072   0.742   5.906   2.034  2.2360 -1.0267 -1.3651
18219TIP3    H276073   0.646   5.880   1.919 -0.1065  0.7445  0.0887
18220TIP3   OH276074   3.686   2.833  13.223 -0.1587 -0.0134  0.2246
18220TIP3    H176075   3.689   2.782  13.142 -0.9402 -0.3046  0.3768
18220TIP3    H276076   3.664   2.922  13.194  0.7400  0.1590  0.0106
18221TIP3   OH276077   4.427   2.883   2.467  0.1768 -0.1103 -0.2399
18221TIP3    H176078   4.388   2.909   2.383  0.6537 -0.8765 -0.7080
18221TIP3    H276079   4.481   2.807   2.446 -0.6343 -1.0542  0.9776
18222TIP3   OH276080   5.716   1.124   0.429 -0.1762  0.0871  0.0588
18222TIP3    H176081   5.646   1.110   0.493  0.5586 -2.6530  0.3918
18222TIP3    H276082   5.734   1.218   0.434 -2.1756  0.4593  1.6960
18223TIP3   OH276083   0.490   5.670   1.345  0.2139  0.0771  0.0685
18223TIP3    H176084   0.501   5.636   1.433 -1.6723  1.2246  0.8231
18223TIP3    H276085   0.572   5.716   1.326  1.2875 -1.5744  0.5162
18224TIP3   OH276086   6.000   4.077   1.623  0.0841 -0.5148 -0.0878
18224TIP3    H176087   5.949   4.110   1.697 -2.2404 -1.2524 -1.2625
18224TIP3    H276088   6.027   3.989   1.649 -1.7889 -1.2553 -0.5408
18225TIP3   OH276089   4.623   5.344  10.443 -0.0800 -0.1178  0.1836
18225TIP3    H176090   4.536   5.366  10.411 -0.9491 -0.6801  2.0356
18225TIP3    H276091   4.667   5.429  10.452 -0.0212  0.0984 -1.7505
18226TIP3   OH276092   0.010   3.949   5.503  0.2628 -0.5150 -0.3595
18226TIP3    H176093   0.006   4.020   5.568 -0.1428 -0.0857 -0.8486
18226TIP3    H276094   0.101   3.920   5.506  0.3632 -0.1745  0.0656
18227TIP3   OH276095   5.534   0.014   4.829  0.1268 -0.2677  0.2426
18227TIP3    H176096   5.627  -0.002   4.845  0.7213  2.2009 -0.2299
18227TIP3    H276097   5.524   0.108   4.843 -2.0160 -0.2309 -1.1095
18228TIP3   OH276098   1.009   2.503  13.285 -0.0124  0.1474 -0.7099
18228TIP3    H176099   1.092   2.485  13.329  0.1273  0.7936 -0.6955
18228TIP3    H276100   0.946   2.513  13.356 -0.2496 -1.0010 -0.7419
18229TIP3   OH276101   1.402   4.284  11.258  0.2075  0.1924 -0.5679
18229TIP3    H176102   1.409   4.234  11.339  0.7571 -0.1160 -0.8026
18229TIP3    H276103   1.338   4.236  11.205 -0.4542  0.6143 -0.1637
18230TIP3   OH276104   2.122   2.526  11.929 -0.3404 -0.6888  0.0839
18230TIP3    H176105   2.030   2.510  11.912 -0.3840 -0.2262 -0.1280
18230TIP3    H276106   2.135   2.502  12.021 -1.5014  2.6470  1.2878
18231TIP3   OH276107   1.732   2.998  17.029 -0.2077  0.3542  0.0117
18231TIP3    H176108   1.699   3.031  16.945  0.8710  1.8617  0.1408
18231TIP3    H276109   1.776   2.916  17.007  0.2803  0.8540 -0.9548
18232TIP3   OH276110   3.139   2.057   0.317  0.2908  0.0958  0.2465
18232TIP3    H176111   3.189   2.124   0.270  0.1796 -0.4007 -0.5891
18232TIP3    H276112   3.049   2.088   0.314  0.5604  1.2590  2.2059
18233TIP3   OH276113   2.866   6.059  14.150  0.2729  0.1190  0.0450
18233TIP3    H176114   2.926   6.083  14.079  2.5484  1.0397  2.1430
18233TIP3    H276115   2.859   6.139  14.203 -1.6222 -0.4508  0.7360
18234TIP3   OH276116   4.400   5.900   5.380 -0.2610  0.0722 -0.1531
18234TIP3    H176117   4.451   5.861   5.309 -1.9418 -3.0465  0.1958
18234TIP3    H276118   4.433   5.857   5.459 -1.6672 -0.1306  0.3466
18235TIP3   OH276119   4.324   5.890  16.958 -0.5343 -0.4149  0.0303
18235TIP3    H176120   4.297   5.894  16.866 -0.7105 -2.7733 -0.0789
18235TIP3    H276121   4.260   5.832  17.000 -0.3973  0.5463  1.6333
18236TIP3   OH276122   5.777   2.323   2.190  0.6979  0.1162  0.0241
18236TIP3    H176123   5.822   2.338   2.273  0.2140 -0.6553  0.4443
18236TIP3    H276124   5.779   2.228   2.178 -0.6509  0.0671 -0.0233
18237TIP3   OH276125   1.088   2.213  10.522 -0.4077  0.1658  0.5887
18237TIP3    H176126   1.017   2.251  10.574 -1.2150 -0.2040 -0.2094
18237TIP3    H276127   1.168   2.240  10.567 -1.0759 -0.5829  2.3070
18238TIP3   OH276128   5.994   2.912   0.306 -0.1597 -0.0741 -0.4045
18238TIP3    H176129   6.026   2.867   0.383 -2.0550 -1.6550 -0.4545
18238TIP3    H276130   6.041   2.996   0.305 -0.8626  0.4907  3.0724
18239TIP3   OH276131   2.143   3.013  16.909  0.1673  0.2238  0.7026
18239TIP3    H176132   2.161   2.944  16.972 -1.1062 -0.5671  0.2270
18239TIP3    H276133   2.139   2.968  16.824 -1.6497  0.6911  0.4988
18240TIP3   OH276134   5.886   6.725  15.591 -0.1597 -0.3056  0.2534
18240TIP3    H176135   5.798   6.697  15.569  0.4299 -1.4515 -0.7906
18240TIP3    H276136   5.919   6.659  15.652 -0.1061  0.2633  0.8553
18241TIP3   OH276137   1.188   2.563  16.257 -0.0368 -0.0111  0.0438
18241TIP3    H176138   1.244   2.507  16.203  0.5609  0.2340  0.4065
18241TIP3    H276139   1.099   2.542  16.228  0.2259 -0.5473 -0.3979
18242TIP3   OH276140   5.109   1.671  13.440  0.1213  0.2914 -0.0629
18242TIP3    H176141   5.045   1.676  13.512  0.8532 -0.1166  0.6320
18242TIP3    H276142   5.110   1.578  13.416  1.6661 -0.0093  1.0686
18243TIP3   OH276143   6.413   3.671  16.477  0.9280 -0.6105  0.1396
18243TIP3    H176144   6.426   3.762  16.506  0.0328  1.0814 -3.9844
18243TIP3    H276145   6.497   3.648  16.435  1.2376 -1.8456  1.3875
18244TIP3   OH276146   5.958   0.795  11.394  0.5281  0.1719 -0.1241
18244TIP3    H176147   6.007   0.875  11.416  2.4730 -0.6879 -1.1582
18244TIP3    H276148   5.924   0.811  11.306  0.6271  0.0003 -0.1938
18245TIP3   OH276149   1.354   4.161  13.233 -0.3727  0.2280 -0.5801
18245TIP3    H176150   1.377   4.150  13.325 -1.3359 -1.4377 -0.5031
18245TIP3    H276151   1.369   4.254  13.216  1.7279  0.1958  0.6944
18246TIP3   OH276152   3.243   1.085  12.060  0.8367 -0.1382 -0.5931
18246TIP3    H176153   3.213   0.998  12.032  2.9135 -0.7442 -1.0497
18246TIP3    H276154   3.174   1.144  12.029 -1.8733 -1.7361  1.7787
18247TIP3   OH276155   4.652   4.149  13.464  0.3204  0.0894  0.3001
18247TIP3    H176156   4.707   4.137  13.540  0.7731 -0.8182 -0.1617
18247TIP3    H276157   4.643   4.062  13.425  0.4171  0.5819 -0.8938
18248TIP3   OH276158   1.052   5.471   1.657  0.2450 -0.4696 -0.1589
18248TIP3    H176159   1.053   5.410   1.730  0.5088  0.7162  0.8580
18248TIP3    H276160   1.117   5.436   1.596  1.6795 -0.2846  1.2079
18249TIP3   OH276161   5.070   4.544   6.247 -0.0815  0.1289 -0.0157
18249TIP3    H176162   5.034   4.633   6.248 -1.4194 -0.3950  0.9544
18249TIP3    H276163   4.996   4.488   6.225  1.2748 -0.5992 -3.3569
18250TIP3   OH276164   2.198   2.160  12.739 -0.2217 -0.2025 -0.3717
18250TIP3    H176165   2.215   2.160  12.833 -0.3599  0.0478 -0.3460
18250TIP3    H276166   2.284   2.145  12.699  0.1314  1.4055 -0.2588
18251TIP3   OH276167   6.206   1.852  14.181  0.2481  0.0744 -0.5058
18251TIP3    H176168   6.294   1.831  14.150  0.7126  1.5924 -0.2596
18251TIP3    H276169   6.220   1.896  14.265 -0.9019 -2.2826  1.0170
18252TIP3   OH276170   5.757   2.696  16.909  0.7591  0.3442 -0.5106
18252TIP3    H176171   5.846   2.669  16.930  1.8029  2.9785 -1.1379
18252TIP3    H276172   5.731   2.639  16.837  1.7975 -0.6929 -0.0909
18253TIP3   OH276173   1.580   3.814   2.167  0.6351  0.1699 -0.3002
18253TIP3    H176174   1.509   3.776   2.115 -0.6222 -0.0212  1.5010
18253TIP3    H276175   1.548   3.899   2.195  0.0052 -0.8957  2.5818
18254TIP3   OH276176   1.714   4.482   4.228 -0.2479 -0.2854  0.5207
18254TIP3    H176177   1.635   4.428   4.223 -2.1551  2.0737  2.4884
18254TIP3    H276178   1.701   4.549   4.160 -0.9015  1.1506  1.9841
18255TIP3   OH276179   1.820   4.974   1.171 -0.2775 -0.6084  0.5131
18255TIP3    H176180   1.820   5.008   1.081 -1.3225  0.8872  1.0466
18255TIP3    H276181   1.728   4.980   1.199  0.0758 -0.8381  1.7752
18256TIP3   OH276182   0.080   1.109   4.333  0.2183  0.4850  0.1370
18256TIP3    H176183   0.008   1.073   4.384  1.1903 -0.3729  0.9651
18256TIP3    H276184   0.102   1.040   4.270 -1.5192  1.8510 -2.1123
18257TIP3   OH276185   6.078   0.418   3.567  0.2339 -0.4404 -0.3232
18257TIP3    H176186   6.106   0.332   3.596  1.4373 -0.2038 -0.7148
18257TIP3    H276187   6.026   0.402   3.489 -0.9392 -0.9042  0.5249
18258TIP3   OH276188   2.838   5.208   4.435  0.0769  0.8795  0.0775
18258TIP3    H176189   2.884   5.243   4.359  2.9588  1.1484  1.7976
18258TIP3    H276190   2.901   5.150   4.478 -2.1107 -0.7849  1.2471
18259TIP3   OH276191   0.296   6.588   0.336 -0.1524  0.6885 -0.2125
18259TIP3    H176192   0.220   6.544   0.298  0.7713 -0.3477 -0.9030
18259TIP3    H276193   0.290   6.568   0.430 -0.7706  0.6796 -0.2497
18260TIP3   OH276194   3.689   2.099   4.288 -0.0400  0.2448 -0.2488
18260TIP3    H176195   3.635   2.046   4.231 -0.0747 -0.5531  0.5112
18260TIP3    H276196   3.770   2.112   4.239  0.4315 -1.5102  0.0269
18261TIP3   OH276197   0.122   6.102  17.191 -0.1260  0.2862  0.0702
18261TIP3    H176198   0.159   6.016  17.207  0.9034  0.8478  0.7639
18261TIP3    H276199   0.196   6.162  17.194 -0.6888  1.1105 -1.2702
18262TIP3   OH276200   3.647   5.592   5.010  0.3462  0.9874 -0.5986
18262TIP3    H176201   3.588   5.546   4.950  0.6302 -0.2306  0.0202
18262TIP3    H276202   3.700   5.523   5.049  1.1394  1.9073  0.0026
18263TIP3   OH276203   1.101   1.954  10.987 -0.1002  0.3581 -0.0873
18263TIP3    H176204   1.145   1.990  10.910  0.9824  0.7378  0.6871
18263TIP3    H276205   1.161   1.971  11.059 -1.7502  1.3585  1.1093
18264TIP3   OH276206   0.843   1.459  14.241  0.4961  0.3311 -0.0696
18264TIP3    H176207   0.817   1.537  14.291  0.1424  0.1187  0.0864
18264TIP3    H276208   0.909   1.417  14.296 -0.9715 -0.7109  0.9680
18265TIP3   OH276209   6.747   1.585   5.101  0.3768  0.3944 -0.0642
18265TIP3    H176210   6.737   1.505   5.049  0.8027  0.6054 -0.4788
18265TIP3    H276211   6.842   1.599   5.105  0.5158 -0.7340  2.4896
18266TIP3   OH276212   2.562   2.564  15.604  0.7249 -0.9623  0.2136
18266TIP3    H176213   2.530   2.597  15.688 -1.0998  1.2501 -1.2156
18266TIP3    H276214   2.494   2.504  15.574 -0.7466  1.3448 -1.4078
18267TIP3   OH276215   6.478   3.320   1.408 -0.2058 -0.0266 -0.0875
18267TIP3    H176216   6.419   3.395   1.404  1.0468  0.9527 -2.8482
18267TIP3    H276217   6.561   3.353   1.374 -0.0839 -2.9829 -3.1904
18268TIP3   OH276218   4.280   6.460   2.023 -0.1649 -0.0655  0.2445
18268TIP3    H176219   4.278   6.379   2.074  2.1205 -0.2173  0.2177
18268TIP3    H276220   4.280   6.530   2.089 -0.5514 -0.1485  0.3307
18269TIP3   OH276221   0.578   6.246  12.896  0.3161  0.5024 -0.1640
18269TIP3    H176222   0.634   6.191  12.951  1.9203  1.2347 -0.9688
18269TIP3    H276223   0.616   6.334  12.905 -1.2266  1.1816 -0.1168
18270TIP3   OH276224   3.306   4.791  13.161  0.1303  0.1360 -0.0475
18270TIP3    H176225   3.228   4.794  13.106 -0.0243 -1.7170  0.0132
18270TIP3    H276226   3.358   4.867  13.134 -0.8797  0.3974 -1.3087
18271TIP3   OH276227   0.036   4.063   5.257  0.4216 -0.7386  0.1231
18271TIP3    H176228  -0.021   3.991   5.284 -0.3939 -0.7035 -1.3787
18271TIP3    H276229   0.022   4.131   5.323  0.8797 -1.7704  1.3303
18272TIP3   OH276230   2.701   3.798   3.507 -0.3815  0.2828  0.0737
18272TIP3    H176231   2.606   3.786   3.513 -0.3382  0.0952  0.3960
18272TIP3    H276232   2.735   3.710   3.489 -0.4155  0.6310 -1.9191
18273TIP3   OH276233   3.236   2.966   3.358 -0.1145  0.2924  0.1705
18273TIP3    H176234   3.237   2.930   3.446 -0.0058  1.4445  0.6532
18273TIP3    H276235   3.165   3.030   3.358  3.0315  4.1610  1.0711
18274TIP3   OH276236   3.871   4.321   0.579 -0.4486  0.1457  0.1782
18274TIP3    H176237   3.922   4.337   0.499 -1.0004  0.5883 -0.0915
18274TIP3    H276238   3.921   4.365   0.648  0.7062 -1.3194  0.3201
18275TIP3   OH276239   2.892   4.128  12.362  0.0040 -0.2937  0.8834
18275TIP3    H176240   2.859   4.190  12.427  0.5134 -0.0749  0.9376
18275TIP3    H276241   2.813   4.088  12.325 -0.2872 -0.4124  1.6246
18276TIP3   OH276242   2.415   5.422  13.078 -0.2162  0.6362  0.3566
18276TIP3    H176243   2.465   5.374  13.144 -1.0512  0.6573  1.0246
18276TIP3    H276244   2.458   5.507  13.074 -0.8623  1.0733  1.7856
18277TIP3   OH276245   4.294   1.158  16.567 -1.0090  0.4163 -0.2814
18277TIP3    H176246   4.275   1.091  16.633 -2.4821  1.1243  0.0458
18277TIP3    H276247   4.275   1.115  16.484 -1.7700  0.3449 -0.0820
18278TIP3   OH276248   3.983   3.554  10.892 -0.2806  0.1914 -0.3367
18278TIP3    H176249   4.018   3.641  10.906  0.9485 -0.0166 -1.9002
18278TIP3    H276250   4.037   3.497  10.947 -1.8283  0.4871  1.6066
18279TIP3   OH276251   3.025   5.367   3.719  0.3423 -0.3047 -0.1997
18279TIP3    H176252   3.057   5.283   3.685 -1.5025 -1.6842  1.2092
18279TIP3    H276253   2.956   5.393   3.658  0.1285 -0.4175 -0.0068
18280TIP3   OH276254   3.194   4.501   6.108 -0.2847 -0.0020 -0.1108
18280TIP3    H176255   3.243   4.454   6.176 -1.9934 -1.8365 -0.0547
18280TIP3    H276256   3.258   4.517   6.039  0.6974 -1.2042  0.4846
18281TIP3   OH276257   6.731   4.213  16.183  0.1436  0.0441 -0.6884
18281TIP3    H176258   6.705   4.216  16.275 -0.9368 -0.3462 -0.9748
18281TIP3    H276259   6.718   4.303  16.152 -0.9016 -0.1397 -0.8251
18282TIP3   OH276260   1.278   5.630  11.232  0.0448  0.5649 -0.1406
18282TIP3    H176261   1.279   5.663  11.322 -0.4135  0.5386 -0.1250
18282TIP3    H276262   1.232   5.547  11.237  0.7733  0.1456 -0.2628
18283TIP3   OH276263   1.750   2.304  14.496  0.0566 -0.4102 -0.3992
18283TIP3    H176264   1.792   2.350  14.569  0.9249 -1.2462 -0.3480
18283TIP3    H276265   1.663   2.344  14.489  0.4519  0.5957  0.2207
18284TIP3   OH276266   5.141   4.087  16.238  0.2154  0.6466 -0.2995
18284TIP3    H176267   5.061   4.076  16.289  0.3998  0.7964  0.0256
18284TIP3    H276268   5.194   4.010  16.260  0.4415  0.8885  0.0081
18285TIP3   OH276269   5.639   5.066  16.364 -0.4633 -0.3162  0.3191
18285TIP3    H176270   5.592   5.149  16.355  0.9373  0.3601 -1.3255
18285TIP3    H276271   5.716   5.087  16.417  0.1887 -0.4186 -0.5698
18286TIP3   OH276272   6.209   6.678   2.954 -0.2886  0.1236 -1.1432
18286TIP3    H176273   6.207   6.685   3.049 -2.6373  3.4586 -1.2403
18286TIP3    H276274   6.299   6.651   2.933 -0.2436 -2.6960  1.9779
18287TIP3   OH276275   4.590   0.493  10.695  0.1200  0.4604 -0.2500
18287TIP3    H176276   4.561   0.457  10.611  0.4458 -0.1646 -0.1059
18287TIP3    H276277   4.655   0.559  10.672  1.4035 -0.8308 -0.4607
18288TIP3   OH276278   5.339   4.058   5.325  0.0530 -0.0943 -0.0348
18288TIP3    H176279   5.344   4.085   5.416 -0.8040 -0.5459  0.1617
18288TIP3    H276280   5.309   4.136   5.278  0.6052  0.1694  0.0505
18289TIP3   OH276281   5.302   5.068   0.006 -0.4862  0.3133  0.4484
18289TIP3    H176282   5.297   5.061  -0.089  0.2236 -0.5581  0.4641
18289TIP3    H276283   5.396   5.072   0.025 -0.6216  0.4413  1.1149
18290TIP3   OH276284   6.767   0.045  15.839 -0.0218 -0.3188  0.1494
18290TIP3    H176285   6.826  -0.030  15.846 -2.1666 -2.1174 -0.1468
18290TIP3    H276286   6.764   0.082  15.927  2.7710  0.8975 -0.1503
18291TIP3   OH276287   0.614   2.019  13.132 -0.2098 -0.2826  0.6996
18291TIP3    H176288   0.695   1.977  13.103 -1.8905 -2.6277 -0.9760
18291TIP3    H276289   0.564   2.033  13.052 -1.0830  2.1520  1.5794
18292TIP3   OH276290   2.915   1.646  15.617 -0.3813 -0.3050 -0.4326
18292TIP3    H176291   2.834   1.596  15.612  0.6032 -1.8750 -1.8981
18292TIP3    H276292   2.965   1.617  15.541  1.1177  1.4110 -0.1531
18293TIP3   OH276293   1.221   4.636   6.512 -0.1787  0.2834 -0.2842
18293TIP3    H176294   1.170   4.648   6.592  1.6411  5.1479  0.5357
18293TIP3    H276295   1.302   4.595   6.541 -0.1619  0.5900  0.1140
18294TIP3   OH276296   2.868   3.135   2.018  0.8219  0.3610 -0.3211
18294TIP3    H176297   2.953   3.090   2.013  0.7080 -0.0600  1.1289
18294TIP3    H276298   2.845   3.153   1.927  1.4718 -1.4066 -0.8712
18295TIP3   OH276299   4.182   6.546  12.537 -0.4168 -0.2798 -0.6371
18295TIP3    H176300   4.168   6.606  12.463 -0.7357  0.2518 -0.1503
18295TIP3    H276301   4.107   6.561  12.595 -0.0410 -0.5210 -0.0854
18296TIP3   OH276302   1.920   1.430   3.034  0.0015  0.5016  0.1103
18296TIP3    H176303   1.841   1.446   2.982  0.9148  0.6971 -1.2690
18296TIP3    H276304   1.984   1.492   3.000  0.7901  0.2746  1.1386
18297TIP3   OH276305   0.712   1.065   5.396 -0.2212  0.6388  0.6335
18297TIP3    H176306   0.640   1.094   5.340  0.0415 -0.6805 -0.4524
18297TIP3    H276307   0.780   1.130   5.383 -0.5543  0.9124  0.2310
18298TIP3   OH276308   3.857   1.464  16.117 -0.2055 -0.4248 -0.0261
18298TIP3    H176309   3.768   1.430  16.118 -0.8431  1.0690 -1.1825
18298TIP3    H276310   3.873   1.488  16.025  0.2516  2.0598  0.6177
18299TIP3   OH276311   3.870   4.771   3.884  0.2219 -0.3207 -0.1161
18299TIP3    H176312   3.783   4.748   3.917 -0.2342  0.4191 -0.7658
18299TIP3    H276313   3.865   4.865   3.868  2.0418  0.3597  2.5878
18300TIP3   OH276314   0.277   3.464  17.196 -0.0845 -0.3434 -0.2054
18300TIP3    H176315   0.274   3.398  17.127 -1.8123 -0.3508 -0.1709
18300TIP3    H276316   0.185   3.484  17.214  0.3818  1.3558  0.4731
18301TIP3   OH276317   4.406   5.752  12.739  0.4285 -0.7896  0.2037
18301TIP3    H176318   4.413   5.848  12.741  2.7368 -0.7781 -2.5341
18301TIP3    H276319   4.313   5.735  12.757  0.3172  1.7463  2.9461
18302TIP3   OH276320   0.814   6.623  16.172  0.2763 -0.1775  0.0735
18302TIP3    H176321   0.888   6.598  16.228 -0.2817 -0.0644  0.8606
18302TIP3    H276322   0.746   6.559  16.192 -0.2965  0.4921  0.2865
18303TIP3   OH276323   4.511   5.051  13.357 -0.0361 -0.2354 -0.6095
18303TIP3    H176324   4.451   5.093  13.418  1.1094 -1.2511  1.3049
18303TIP3    H276325   4.586   5.111  13.351 -1.4354  1.4071 -3.5912
18304TIP3   OH276326   0.596   2.638   0.746 -0.2178 -0.4517  0.2228
18304TIP3    H176327   0.585   2.733   0.744 -0.7633 -0.5114  0.1904
18304TIP3    H276328   0.553   2.611   0.828 -0.3924 -0.7050  0.0489
18305TIP3   OH276329   5.776   6.122  15.718  0.0058  0.1539 -0.3371
18305TIP3    H176330   5.756   6.050  15.777  0.3640 -0.6256 -1.1438
18305TIP3    H276331   5.691   6.158  15.694 -0.2107 -0.3672 -0.3612
18306TIP3   OH276332   5.711   4.958  13.695  0.2923  0.5243  0.3592
18306TIP3    H176333   5.804   4.980  13.690  0.2770  0.4263 -0.4068
18306TIP3    H276334   5.668   5.021  13.637 -0.1585  0.7737  0.9538
18307TIP3   OH276335   2.350   0.629   2.107 -0.0750 -0.3654 -0.2224
18307TIP3    H176336   2.369   0.539   2.084  0.8522 -0.3805  0.5434
18307TIP3    H276337   2.360   0.678   2.026  1.6022 -0.6365 -0.2066
18308TIP3   OH276338   0.982   4.209   3.100 -0.0561 -0.0111  0.0352
18308TIP3    H176339   1.076   4.200   3.111 -0.0059 -0.7896 -0.8799
18308TIP3    H276340   0.968   4.205   3.005 -1.0125  0.0352  0.1580
18309TIP3   OH276341   4.125   2.245   0.973 -0.1796  0.8012 -0.3587
18309TIP3    H176342   4.136   2.152   0.954 -2.9844  0.3870 -0.4068
18309TIP3    H276343   4.212   2.275   1.001  0.4243 -2.2439  1.4245
18310TIP3   OH276344   4.871   6.358  13.518 -0.0720  0.3062  0.0640
18310TIP3    H176345   4.924   6.311  13.455  1.3711 -0.7787  1.9844
18310TIP3    H276346   4.841   6.291  13.579 -1.5282  1.2875  0.4888
18311TIP3   OH276347   4.542   0.549  14.153  0.3077 -0.3691 -0.3529
18311TIP3    H176348   4.588   0.473  14.116  1.6063 -0.3239  1.0529
18311TIP3    H276349   4.609   0.617  14.156 -0.8635  0.9107 -1.6722
18312TIP3   OH276350   1.690   6.620   0.410  0.3716  0.3150 -0.3785
18312TIP3    H176351   1.707   6.687   0.476 -1.0922  2.2932 -1.8565
18312TIP3    H276352   1.768   6.621   0.355  0.5593  0.4800 -0.1107
18313TIP3   OH276353   5.912   2.206   5.508 -0.1929 -0.0598  0.1392
18313TIP3    H176354   5.924   2.158   5.426 -1.1654  1.1000 -0.7188
18313TIP3    H276355   5.948   2.293   5.491 -1.1392  0.4527  0.6485
18314TIP3   OH276356   1.833   6.292   3.374  0.0574  0.7848 -0.0209
18314TIP3    H176357   1.816   6.357   3.443 -2.5115 -0.4190  0.6032
18314TIP3    H276358   1.837   6.343   3.293 -3.5944  1.7156  0.2190
18315TIP3   OH276359   1.614   6.400  13.068  0.8945  0.5477  0.2235
18315TIP3    H176360   1.657   6.450  13.138 -0.8509 -0.4133  2.0918
18315TIP3    H276361   1.522   6.397  13.094 -0.0907  1.1381 -2.7851
18316TIP3   OH276362   0.727   4.419  12.207 -0.2021 -0.4462  0.1488
18316TIP3    H176363   0.800   4.380  12.255 -1.1261 -1.0864  1.0682
18316TIP3    H276364   0.757   4.419  12.116  1.0841 -0.3493  0.5414
18317TIP3   OH276365   5.521   5.320   6.522 -0.2641  1.1014 -0.2454
18317TIP3    H176366   5.593   5.378   6.547 -1.7237  3.2506 -0.7925
18317TIP3    H276367   5.513   5.260   6.595 -0.8576  3.7461  2.0201
18318TIP3   OH276368   5.005   3.429  11.366 -0.1236  0.0846 -0.4850
18318TIP3    H176369   5.095   3.453  11.342  0.1599  0.0764  0.5273
18318TIP3    H276370   4.973   3.378  11.291  1.0085 -0.6469 -0.4967
18319TIP3   OH276371   5.840   4.757  13.943  0.1251 -0.5076 -0.4152
18319TIP3    H176372   5.930   4.785  13.928  0.1286  0.0600  0.5794
18319TIP3    H276373   5.787   4.820  13.894  0.1711  0.8269  1.1752
18320TIP3   OH276374   1.253   0.606   2.372  0.7061  0.0590 -0.4729
18320TIP3    H176375   1.169   0.651   2.361  1.0346  0.6895 -0.4499
18320TIP3    H276376   1.270   0.609   2.467  0.7136 -0.1535 -0.4658
18321TIP3   OH276377   6.154   4.750   0.824 -0.5765 -0.7027  0.7203
18321TIP3    H176378   6.119   4.667   0.791  1.8210 -1.7897  0.6662
18321TIP3    H276379   6.208   4.783   0.752 -0.7190  0.4104  1.1105
18322TIP3   OH276380   1.190   3.493  17.115  0.1989 -0.2721  0.3347
18322TIP3    H176381   1.183   3.460  17.026  0.1144  1.5467 -0.3728
18322TIP3    H276382   1.247   3.569  17.109 -0.1370  0.1366  1.7605
18323TIP3   OH276383   6.215   3.850  12.396  0.1193  0.3043  0.0070
18323TIP3    H176384   6.278   3.923  12.395 -0.0911  0.4864  0.0606
18323TIP3    H276385   6.131   3.891  12.377  0.3990 -0.3222 -3.1632
18324TIP3   OH276386   1.466   1.175   6.136 -0.4741 -0.1381  0.0074
18324TIP3    H176387   1.555   1.160   6.168 -0.2654 -1.9927 -1.2912
18324TIP3    H276388   1.420   1.093   6.153 -1.8572  0.6679  0.3247
18325TIP3   OH276389   3.711   1.404  13.111  0.0247  0.0239 -0.1614
18325TIP3    H176390   3.727   1.498  13.102  0.0987  0.0664  0.3647
18325TIP3    H276391   3.727   1.368  13.024  0.1346  0.4787 -0.3305
18326TIP3   OH276392   0.951   4.988   2.106 -0.0862 -0.1936  0.0267
18326TIP3    H176393   0.938   5.016   2.016  1.6320 -0.1209 -0.2272
18326TIP3    H276394   0.967   5.069   2.155 -0.9534 -0.2366  0.4043
18327TIP3   OH276395   6.520   6.297  16.554  0.0481  0.2368  0.4243
18327TIP3    H176396   6.458   6.293  16.481  2.3478 -0.5550 -1.5931
18327TIP3    H276397   6.555   6.386  16.550 -0.4107  0.4647  1.1465
18328TIP3   OH276398   3.944   1.054   3.677 -0.9933  0.2505 -0.6986
18328TIP3    H176399   3.970   0.965   3.654 -0.9609 -0.0956  0.6233
18328TIP3    H276400   3.870   1.073   3.619 -0.4465 -0.3020 -1.5936
18329TIP3   OH276401   4.099   4.035  16.557  0.1371  0.1678 -0.4380
18329TIP3    H176402   4.125   4.012  16.646  0.3983 -0.9603 -0.7883
18329TIP3    H276403   4.175   4.082  16.521  0.4146 -0.2379 -0.3862
18330TIP3   OH276404   0.607   3.272   4.431 -0.2605  0.0737 -0.0761
18330TIP3    H176405   0.691   3.307   4.461 -1.0167  2.3337 -0.3604
18330TIP3    H276406   0.552   3.272   4.509 -0.7483  1.1608 -0.3979
18331TIP3   OH276407   5.674   1.072   5.588 -0.3610  0.2452  0.3087
18331TIP3    H176408   5.636   1.151   5.625 -0.2104 -0.8598  3.0076
18331TIP3    H276409   5.604   1.007   5.592  0.3871 -0.5463  0.9763
18332TIP3   OH276410   3.553   3.893   1.148 -0.1730 -0.3883 -0.0761
18332TIP3    H176411   3.512   3.961   1.095 -1.2327  0.1097  1.3122
18332TIP3    H276412   3.594   3.940   1.220  0.9100 -1.0779 -0.2156
18333TIP3   OH276413   3.077   3.161   4.350  0.3052 -0.6329  0.2429
18333TIP3    H176414   3.014   3.115   4.406  0.0044 -0.2949  0.1813
18333TIP3    H276415   3.128   3.091   4.310 -0.8925 -0.9810 -0.7223
18334TIP3   OH276416   5.578   1.201   3.923  0.6058 -0.0456 -0.1001
18334TIP3    H176417   5.642   1.226   3.990  0.1576  1.7560 -0.2723
18334TIP3    H276418   5.610   1.243   3.843 -0.7701  0.9429 -0.1768
18335TIP3   OH276419   2.445   2.705   2.104  0.0164 -0.5524 -0.1292
18335TIP3    H176420   2.356   2.715   2.138  0.7509  0.4376  1.6650
18335TIP3    H276421   2.466   2.790   2.066  1.6397  0.8485  3.3866
18336TIP3   OH276422   3.451   4.151   1.065  0.3530  0.4030  0.1854
18336TIP3    H176423   3.426   4.162   1.157  0.7546 -0.1876  0.3744
18336TIP3    H276424   3.517   4.218   1.050 -1.1247  1.8264 -0.2534
18337TIP3   OH276425   5.358   2.225   4.420 -0.3601 -0.4144 -0.6558
18337TIP3    H176426   5.452   2.234   4.403 -0.3497  0.2060 -0.3153
18337TIP3    H276427   5.331   2.149   4.368  0.3710 -0.7317 -0.5794
18338TIP3   OH276428   4.354   4.996   3.685 -0.5747  0.1554 -0.9379
18338TIP3    H176429   4.448   5.003   3.703 -0.9977  0.0944  1.7019
18338TIP3    H276430   4.348   4.929   3.617  1.2273 -1.3104  0.2257
18339TIP3   OH276431   5.607   6.075   2.196  0.3280 -0.4429 -0.4146
18339TIP3    H176432   5.678   6.133   2.167 -0.6475  0.3411 -1.3135
18339TIP3    H276433   5.549   6.131   2.246  0.3770 -1.1107  0.4162
18340TIP3   OH276434   6.242   2.633   5.262 -0.5797 -0.3760  0.1810
18340TIP3    H176435   6.214   2.703   5.321 -1.1123  0.1286 -0.6437
18340TIP3    H276436   6.267   2.679   5.181  1.4027 -0.9246  0.4409
18341TIP3   OH276437   4.925   0.885   2.870 -0.2844  0.2430  0.2034
18341TIP3    H176438   4.966   0.931   2.942  0.8848 -0.3540 -0.0549
18341TIP3    H276439   4.834   0.914   2.871  0.0597  1.3344  1.0095
18342TIP3   OH276440   1.127   0.614   2.787 -0.2567  0.1151 -0.3598
18342TIP3    H176441   1.108   0.682   2.723  0.0809  0.3294 -0.2346
18342TIP3    H276442   1.134   0.534   2.735 -0.9168  0.1300 -0.4750
18343TIP3   OH276443   0.567   6.061   0.697  0.6757 -0.8420 -0.0534
18343TIP3    H176444   0.632   6.111   0.746 -0.0821  0.6138 -0.4578
18343TIP3    H276445   0.608   5.976   0.680  2.9124  0.4124 -1.2840
18344TIP3   OH276446   6.765   2.744  12.523 -0.0149 -0.4489  0.1438
18344TIP3    H176447   6.674   2.775  12.515  0.2653  0.6549  0.9504
18344TIP3    H276448   6.766   2.660  12.479 -1.7367 -1.0778  1.2143
18345TIP3   OH276449   6.138   5.910  16.901 -0.1215  0.0293  0.2946
18345TIP3    H176450   6.207   5.855  16.863  0.2395  0.8392 -0.2685
18345TIP3    H276451   6.159   5.998  16.870 -1.1719  0.3546  0.4792
18346TIP3   OH276452   2.600   3.689  12.561  0.6027 -0.9162  0.4666
18346TIP3    H176453   2.655   3.673  12.638  3.0054  0.3764 -0.8896
18346TIP3    H276454   2.653   3.658  12.487 -0.6970 -0.0586 -0.8711
18347TIP3   OH276455   0.933   0.655  14.404  0.4905 -0.2076 -0.1857
18347TIP3    H176456   0.866   0.701  14.456  0.3634 -0.2866 -0.2797
18347TIP3    H276457   0.977   0.725  14.356 -1.6870 -0.3838 -2.6859
18348TIP3   OH276458   4.159   5.359   1.157  0.1281  0.9974  0.0482
18348TIP3    H176459   4.231   5.316   1.111 -2.0385 -0.7776 -1.9620
18348TIP3    H276460   4.156   5.447   1.119 -0.5758  0.1002 -2.1385
18349TIP3   OH276461   1.938   2.674   2.769  0.7653 -0.1489  0.1553
18349TIP3    H176462   1.870   2.742   2.766 -0.1608 -1.0969 -1.4128
18349TIP3    H276463   2.011   2.710   2.718 -0.5215 -1.0750 -2.5263
18350TIP3   OH276464   6.354   1.521   2.162  0.7173 -0.2894 -0.2468
18350TIP3    H176465   6.260   1.539   2.159  0.9393  0.7060 -1.6965
18350TIP3    H276466   6.365   1.474   2.245 -0.9606  0.0703  0.2356
18351TIP3   OH276467   3.563   5.919  16.055  0.8580  0.3697 -0.1192
18351TIP3    H176468   3.525   5.961  15.978  0.7564 -0.2036 -0.3850
18351TIP3    H276469   3.493   5.861  16.088  0.8690  0.6717  0.4530
18352TIP3   OH276470   4.595   1.037   2.057 -0.3903  0.0762 -0.2285
18352TIP3    H176471   4.554   1.108   2.105 -0.1195 -0.3778  0.7086
18352TIP3    H276472   4.685   1.066   2.043 -0.6433  0.4791 -1.0352
18353TIP3   OH276473   2.405   2.274  14.198 -0.0389  0.2421 -0.0722
18353TIP3    H176474   2.472   2.208  14.178  0.2155 -0.1579  1.9059
18353TIP3    H276475   2.375   2.251  14.286 -2.5221  0.6600 -0.7610
18354TIP3   OH276476   5.724   1.279   1.328 -0.4498  0.0668 -0.4117
18354TIP3    H176477   5.675   1.203   1.359 -0.8448  0.4240 -0.1556
18354TIP3    H276478   5.809   1.273   1.372 -0.3473 -0.4152 -0.6667
18355TIP3   OH276479   6.630   1.570  15.083  0.5028 -0.3779  0.1471
18355TIP3    H176480   6.583   1.496  15.043 -0.3044  0.7704 -1.1430
18355TIP3    H276481   6.560   1.626  15.117  1.0249  0.4824 -0.1804
18356TIP3   OH276482   2.498   6.508  15.713  0.1145  0.5748  0.0225
18356TIP3    H176483   2.561   6.436  15.706  0.7482  0.9738  1.2621
18356TIP3    H276484   2.547   6.585  15.685 -0.4458  0.5986 -0.9280
18357TIP3   OH276485   4.928   2.932   1.057 -0.2378 -0.1685  0.0865
18357TIP3    H176486   4.907   3.017   1.096 -1.5580 -0.8188  0.8301
18357TIP3    H276487   4.843   2.891   1.040  0.3644 -1.0206 -1.0233
18358TIP3   OH276488   4.517   6.700   2.115 -0.4813  0.0562 -0.4232
18358TIP3    H176489   4.442   6.760   2.109 -0.8389 -0.4065 -0.6047
18358TIP3    H276490   4.525   6.663   2.027 -1.1674 -1.2420  0.0453
18359TIP3   OH276491   6.332   0.609   3.946 -0.1459 -0.2052  0.1036
18359TIP3    H176492   6.241   0.581   3.938 -0.7672  1.0002  2.1726
18359TIP3    H276493   6.334   0.695   3.904 -0.4465  0.5848  1.6402
18360TIP3   OH276494   6.028   5.401  12.624  0.7008  0.1696 -0.6504
18360TIP3    H176495   5.965   5.347  12.576  0.8323 -0.1979 -0.4195
18360TIP3    H276496   5.975   5.470  12.663  0.7730  1.2913 -2.4296
18361TIP3   OH276497   6.370   5.337  13.618  0.6749  0.5804 -0.3254
18361TIP3    H176498   6.364   5.360  13.525  0.9218 -2.7227 -1.2856
18361TIP3    H276499   6.446   5.280  13.623 -0.7155 -1.2620  1.4001
18362TIP3   OH276500   4.365   5.635   4.297 -0.4738  0.4511 -0.6230
18362TIP3    H176501   4.323   5.662   4.378  1.2325 -1.1971  0.9167
18362TIP3    H276502   4.303   5.658   4.228 -3.2041 -0.4576  1.3718
18363TIP3   OH276503   6.095   6.532   4.514  0.2810  0.1487  0.2259
18363TIP3    H176504   6.124   6.459   4.459 -0.1657  0.4927 -0.4777
18363TIP3    H276505   6.176   6.572   4.545  0.5447  0.0018 -0.2612
18364TIP3   OH276506   4.616   5.878  14.154 -0.3103  0.6701  0.0497
18364TIP3    H176507   4.543   5.890  14.094 -0.5574  1.8592  0.5625
18364TIP3    H276508   4.669   5.809  14.114 -1.1640  0.5160 -0.8483
18365TIP3   OH276509   3.619   1.370  15.611 -0.0584 -0.4697  0.4215
18365TIP3    H176510   3.570   1.424  15.549 -0.2142 -0.8270  0.2263
18365TIP3    H276511   3.696   1.342  15.562 -0.2241 -0.8224  0.3570
18366TIP3   OH276512   1.793   4.814  16.242 -0.3877 -0.3640  0.2732
18366TIP3    H176513   1.795   4.842  16.334  1.8162  1.6212 -0.2857
18366TIP3    H276514   1.721   4.864  16.203 -0.7746 -0.5662  0.7111
18367TIP3   OH276515   6.448   0.570  17.182  0.1020 -0.3727 -0.6258
18367TIP3    H176516   6.428   0.593  17.092  0.6688  4.6337  0.2515
18367TIP3    H276517   6.544   0.572  17.187  0.1150 -1.5178 -0.0547
18368TIP3   OH276518   4.553   1.941   2.970  0.4527  0.0023  0.3742
18368TIP3    H176519   4.491   1.882   2.928  1.1305 -0.5336  0.1096
18368TIP3    H276520   4.574   1.897   3.053  3.0800 -1.6057 -0.9991
18369TIP3   OH276521   5.121   5.510   0.995 -0.3975 -0.3701 -0.0295
18369TIP3    H176522   5.087   5.486   1.081  1.4315 -0.2129  0.7834
18369TIP3    H276523   5.122   5.605   0.994  1.1536 -0.3508  0.4803
18370TIP3   OH276524   6.697   0.280  12.835 -0.4969  0.2348 -0.1696
18370TIP3    H176525   6.748   0.221  12.890 -1.1762  0.8399  1.1504
18370TIP3    H276526   6.679   0.229  12.755  2.3171  0.0686 -0.8196
18371TIP3   OH276527   0.981   2.996   6.475  0.5359  0.1229 -0.4205
18371TIP3    H176528   0.950   3.080   6.443  2.6487  1.2024  0.1924
18371TIP3    H276529   1.030   2.959   6.401  2.2749  0.9250  0.2776
18372TIP3   OH276530   6.011   3.388  16.339 -0.0724 -0.4896  0.1677
18372TIP3    H176531   5.940   3.334  16.374 -0.5682  0.0851  0.0762
18372TIP3    H276532   6.050   3.335  16.270 -0.8210 -0.5739 -0.2029
18373TIP3   OH276533   6.083   5.218  13.314 -0.3628 -0.1737  0.4163
18373TIP3    H176534   6.021   5.271  13.265 -0.3777  0.6602  1.2905
18373TIP3    H276535   6.105   5.272  13.390  2.7915  0.3769 -0.7227
18374TIP3   OH276536   0.538   3.963  15.339 -0.5446 -0.3910  0.4863
18374TIP3    H176537   0.551   4.022  15.265  1.0591  0.1105  1.1316
18374TIP3    H276538   0.590   4.001  15.409 -0.3366 -1.9972  1.2400
18375TIP3   OH276539   4.043   0.509  12.446 -0.1981 -0.1810  0.2513
18375TIP3    H176540   3.988   0.473  12.376 -0.9637  2.2166 -0.5018
18375TIP3    H276541   4.131   0.476  12.426 -0.8492 -1.7250 -0.2411
18376TIP3   OH276542   1.476   1.372  16.143  0.4777 -0.3387 -0.4328
18376TIP3    H176543   1.563   1.342  16.172  0.6974  0.6931  0.0241
18376TIP3    H276544   1.457   1.447  16.199 -0.5337 -0.2881 -0.8237
18377TIP3   OH276545   5.807   1.399   0.390 -0.1788  0.3377  0.1748
18377TIP3    H176546   5.810   1.420   0.297  0.6765 -1.0804 -0.1409
18377TIP3    H276547   5.899   1.398   0.418 -0.4630  3.1311  1.6566
18378TIP3   OH276548   1.156   1.049  11.851 -0.2629 -0.0623 -0.2806
18378TIP3    H176549   1.094   0.980  11.828  0.0756 -0.5965  0.3937
18378TIP3    H276550   1.105   1.110  11.905 -0.5994  0.3048 -0.9939
18379TIP3   OH276551   3.251   1.185   2.430  0.4290 -0.3913  0.0086
18379TIP3    H176552   3.334   1.206   2.474  0.5699  1.9902 -1.2853
18379TIP3    H276553   3.239   1.254   2.366 -3.1577 -0.0261  0.8982
18380TIP3   OH276554   2.391   6.680   1.345  0.7780  0.2013 -0.0168
18380TIP3    H176555   2.372   6.684   1.439 -1.0945  0.0787 -0.3566
18380TIP3    H276556   2.330   6.615   1.311  1.6357  0.0334 -1.2813
18381TIP3   OH276557   6.472   2.552   0.569  0.2774 -0.7110  0.4290
18381TIP3    H176558   6.427   2.604   0.635  1.9090  0.3282  0.7924
18381TIP3    H276559   6.533   2.613   0.527  0.2022 -1.6555 -1.1593
18382TIP3   OH276560   4.564   1.861  12.014  0.1733  0.3607 -0.0538
18382TIP3    H176561   4.607   1.895  11.937  0.2455  0.0111 -0.1702
18382TIP3    H276562   4.612   1.781  12.036 -0.0783  0.2563  0.1309
18383TIP3   OH276563   1.834   0.630   2.568  0.5614 -0.0029  0.7254
18383TIP3    H176564   1.756   0.681   2.590  0.7216 -0.0330  1.3692
18383TIP3    H276565   1.905   0.693   2.569  0.1547  0.8172 -3.2634
18384TIP3   OH276566   0.572   1.269  16.393 -0.5009 -0.0422 -0.1144
18384TIP3    H176567   0.483   1.272  16.358  0.0172 -0.9015 -1.6150
18384TIP3    H276568   0.603   1.359  16.389 -0.8094  0.0360 -0.9781
18385TIP3   OH276569   6.313   3.326   4.386  0.2032 -0.0891  0.3023
18385TIP3    H176570   6.263   3.246   4.404  0.4782 -0.1796  0.6761
18385TIP3    H276571   6.377   3.300   4.319  1.2251 -0.5514  1.4337
18386TIP3   OH276572   6.657   2.304  14.876  0.4962 -0.1991 -0.3445
18386TIP3    H176573   6.619   2.386  14.908 -0.7300 -0.6166 -0.6860
18386TIP3    H276574   6.697   2.328  14.792  1.1938  0.2801  0.1044
18387TIP3   OH276575   1.639   6.245  12.357 -0.1025 -0.3362  0.0145
18387TIP3    H176576   1.665   6.309  12.423  1.9941 -0.3197 -0.7555
18387TIP3    H276577   1.695   6.169  12.373  0.6600 -0.2299 -1.8724
18388TIP3   OH276578   3.828   2.261   4.958 -0.0850 -0.0836  0.2633
18388TIP3    H176579   3.762   2.325   4.984 -0.2144 -0.6605  1.4442
18388TIP3    H276580   3.825   2.195   5.028  1.2288 -0.4925 -0.0523
18389TIP3   OH276581   0.273   5.872  16.934  0.2988  0.6202 -0.5234
18389TIP3    H176582   0.262   5.777  16.926 -0.5659  0.7850 -1.4237
18389TIP3    H276583   0.272   5.888  17.029  0.6959 -0.2887 -0.3507
18390TIP3   OH276584   4.910   0.492  15.396  0.1997 -0.8128  0.2018
18390TIP3    H176585   4.925   0.487  15.490  1.5424 -1.6051 -0.0303
18390TIP3    H276586   4.993   0.465  15.356 -0.0180  0.4379 -1.2252
18391TIP3   OH276587   2.377   5.058  12.328 -0.4016 -0.1252  0.3634
18391TIP3    H176588   2.281   5.054  12.329 -0.4988  1.4792  0.0754
18391TIP3    H276589   2.405   4.991  12.390 -1.6998 -0.8642  0.1726
18392TIP3   OH276590   0.269   0.144   4.539 -0.6904  0.5561  0.6423
18392TIP3    H176591   0.236   0.055   4.537  0.9594 -0.1821  2.6423
18392TIP3    H276592   0.253   0.178   4.451 -0.9901 -1.8171 -0.2891
18393TIP3   OH276593   4.397   1.456  11.357 -0.3931  0.4617 -0.4865
18393TIP3    H176594   4.476   1.405  11.376 -0.6651  0.1327 -0.2148
18393TIP3    H276595   4.429   1.534  11.312  0.5415  2.2400  2.8848
18394TIP3   OH276596   3.998   0.576  14.308  0.5014 -0.4101  0.0532
18394TIP3    H176597   4.070   0.536  14.258 -0.8917  0.3137 -2.7518
18394TIP3    H276598   4.042   0.632  14.372  2.4149 -2.2116  0.4439
18395TIP3   OH276599   6.482   4.691  15.476  0.0373  0.0609 -0.2755
18395TIP3    H176600   6.387   4.701  15.479  0.0688  0.1319  1.2679
18395TIP3    H276601   6.516   4.769  15.521  0.8460  0.2638 -1.2144
18396TIP3   OH276602   5.552   5.375  17.239  0.0057  0.4594 -0.5029
18396TIP3    H176603   5.582   5.284  17.243 -0.8669  0.2023  0.9152
18396TIP3    H276604   5.481   5.375  17.175 -0.4194 -0.0056 -0.0402
18397TIP3   OH276605   0.783   2.872   4.591 -0.0927 -0.0061 -0.2255
18397TIP3    H176606   0.832   2.880   4.509 -0.9100  1.0842 -0.6254
18397TIP3    H276607   0.846   2.836   4.653  1.4377  1.8951 -0.5743
18398TIP3   OH276608   6.065   5.404   4.017  0.3452 -0.4978 -0.4704
18398TIP3    H176609   6.045   5.317   3.983  1.5355 -1.2532  0.6704
18398TIP3    H276610   5.984   5.453   4.007 -1.4533 -2.7299  1.9747
18399TIP3   OH276611   0.894   4.020  12.172 -0.3968 -0.0020  0.2752
18399TIP3    H176612   0.971   4.062  12.210 -0.9951  0.2873  1.1863
18399TIP3    H276613   0.828   4.023  12.241 -1.0191 -0.8458 -0.2599
18400TIP3   OH276614   3.417   1.832  17.154  0.0364 -0.0320  0.4980
18400TIP3    H176615   3.429   1.747  17.197  1.4368 -0.2422 -0.2717
18400TIP3    H276616   3.431   1.896  17.224  2.0239 -0.3751  0.4569
18401TIP3   OH276617   6.731   1.951   4.874  0.0403 -0.3475  0.5144
18401TIP3    H176618   6.654   1.966   4.819 -1.0865 -0.4834  2.0003
18401TIP3    H276619   6.722   2.015   4.945  1.0367 -0.7210  0.9844
18402TIP3   OH276620   2.528   3.862  14.159  0.0180  0.3065 -0.0900
18402TIP3    H176621   2.500   3.791  14.217 -0.4133 -0.0912 -0.7681
18402TIP3    H276622   2.611   3.892  14.195  1.5790 -2.3110 -1.2623
18403TIP3   OH276623   3.238   6.318   2.205 -0.4252 -0.3639 -0.1177
18403TIP3    H176624   3.282   6.273   2.277  0.7898 -2.3027 -1.9596
18403TIP3    H276625   3.145   6.315   2.228 -0.0558 -0.7167  1.4412
18404TIP3   OH276626   5.817   3.234   6.096 -0.0341  0.4833  0.1599
18404TIP3    H176627   5.721   3.233   6.106 -0.1323  0.0721 -0.7499
18404TIP3    H276628   5.849   3.192   6.176 -0.7120 -1.2561 -0.4250
18405TIP3   OH276629   0.129   1.365   5.941 -0.3330  0.3640  0.2025
18405TIP3    H176630   0.213   1.383   5.983 -0.0563  0.4835 -0.3922
18405TIP3    H276631   0.064   1.386   6.008  0.0976  0.6317  0.5429
18406TIP3   OH276632   5.808   5.025  14.921 -0.0175  0.4424  0.2360
18406TIP3    H176633   5.790   4.990  15.008  0.3468 -2.9161 -0.9117
18406TIP3    H276634   5.753   4.974  14.862  2.0620  0.3649 -1.7907
18407TIP3   OH276635   2.055   1.708  16.955 -0.1635  0.3722  0.3768
18407TIP3    H176636   2.060   1.740  17.045 -0.8961 -0.2592  0.6523
18407TIP3    H276637   2.146   1.713  16.923  0.2492 -0.1450  1.4152
18408TIP3   OH276638   3.503   6.042   0.089  0.5901  0.0793  0.1650
18408TIP3    H176639   3.527   6.003   0.005  1.3617 -1.1724  0.9220
18408TIP3    H276640   3.457   5.972   0.135 -2.9086  1.7775 -0.4493
18409TIP3   OH276641   4.073   6.179  11.388  0.2190  0.3847  0.8372
18409TIP3    H176642   4.068   6.084  11.383 -1.0970  0.5060 -1.3351
18409TIP3    H276643   4.042   6.201  11.476  0.2739 -1.1599  1.2576
18410TIP3   OH276644   2.187   6.537   3.546 -0.1289  0.1496  0.4015
18410TIP3    H176645   2.215   6.584   3.468 -0.0155 -0.4542  0.0714
18410TIP3    H276646   2.238   6.576   3.617 -0.4586  0.9114  0.2327
18411TIP3   OH276647   2.060   3.270   5.375  0.3273 -0.5409 -0.3494
18411TIP3    H176648   1.986   3.327   5.354 -0.3143 -0.5459  1.6391
18411TIP3    H276649   2.019   3.186   5.396  0.3985  0.2644  3.9216
18412TIP3   OH276650   6.171   3.204  11.443  0.3357 -0.1994 -0.6043
18412TIP3    H176651   6.264   3.229  11.445  0.1483  0.4826  0.4849
18412TIP3    H276652   6.128   3.267  11.501 -0.5555 -1.5053  0.2243
18413TIP3   OH276653   1.915   5.944  14.131  0.4626 -0.3397 -0.3715
18413TIP3    H176654   1.926   6.013  14.065 -0.2387 -0.2470 -0.3942
18413TIP3    H276655   1.988   5.957  14.192 -0.6992  1.6446  0.7006
18414TIP3   OH276656   3.886   3.537  12.207  0.2777  0.3231  0.1520
18414TIP3    H176657   3.899   3.599  12.279  2.1785  0.1159  0.0401
18414TIP3    H276658   3.966   3.543  12.155 -0.2852 -0.8733 -0.9133
18415TIP3   OH276659   5.757   0.256   0.152 -1.0676  0.0856  0.2193
18415TIP3    H176660   5.741   0.266   0.246 -2.1810  1.8681 -0.1214
18415TIP3    H276661   5.692   0.191   0.124  0.0210 -1.3393  0.8250
18416TIP3   OH276662   0.352   3.015  15.230 -0.0654  0.4196 -0.4632
18416TIP3    H176663   0.432   2.968  15.207  1.8065  1.7181  2.8091
18416TIP3    H276664   0.302   2.953  15.284  1.5131  1.3767  2.2549
18417TIP3   OH276665   0.081   2.208  12.609  0.1684  0.1806 -0.6605
18417TIP3    H176666   0.137   2.182  12.682  0.8076  1.9453 -0.4708
18417TIP3    H276667   0.004   2.248  12.650 -2.2572 -3.7681 -0.8436
18418TIP3   OH276668   0.129   2.215   2.432  0.5138 -0.2971 -0.1526
18418TIP3    H176669   0.129   2.232   2.337  1.0168 -1.7326 -0.4332
18418TIP3    H276670   0.054   2.157   2.446  0.1318  0.3254  0.4251
18419TIP3   OH276671   3.486   1.776   5.319  0.1008 -0.3711 -0.6171
18419TIP3    H176672   3.523   1.861   5.341  0.2160 -0.0936 -1.8199
18419TIP3    H276673   3.419   1.795   5.254 -2.2940 -0.8554  1.5635
18420TIP3   OH276674   0.445   2.717  17.170 -0.7058 -0.7196 -0.5551
18420TIP3    H176675   0.360   2.738  17.133 -0.9311 -0.8294 -0.1065
18420TIP3    H276676   0.460   2.785  17.236 -0.9571 -1.3370  0.1530
18421TIP3   OH276677   2.024   1.392   5.235  0.0699  0.1741 -0.0510
18421TIP3    H176678   2.024   1.412   5.142 -1.6511 -0.2281 -0.1685
18421TIP3    H276679   2.051   1.301   5.240 -0.3165  0.0520 -0.1953
18422TIP3   OH276680   1.152   6.165  11.059  0.0803 -0.1985  0.6633
18422TIP3    H176681   1.200   6.182  10.978 -1.2688  1.6188  0.1750
18422TIP3    H276682   1.128   6.252  11.091 -0.5111 -0.9424  2.3518
18423TIP3   OH276683   4.211   1.466   5.416  0.5869  0.1098 -0.5427
18423TIP3    H176684   4.148   1.506   5.475 -0.3725  1.3604 -2.3234
18423TIP3    H276685   4.197   1.372   5.425 -1.0305  0.3505 -0.3596
18424TIP3   OH276686   2.299   1.201   5.876  0.4925 -0.1942  0.4328
18424TIP3    H176687   2.325   1.276   5.930  2.0658 -1.1909  1.1085
18424TIP3    H276688   2.296   1.236   5.787  1.0807  0.7031  0.7500
18425TIP3   OH276689   6.553   0.060  14.280 -0.4722 -0.5436 -1.2992
18425TIP3    H176690   6.559   0.130  14.215 -1.0956 -1.1303 -2.0078
18425TIP3    H276691   6.577   0.102  14.363 -0.5898  0.4453 -1.7484
18426TIP3   OH276692   2.880   0.457  12.453  0.1376 -0.1258 -0.3606
18426TIP3    H176693   2.925   0.375  12.435  1.2512  0.8311 -2.2649
18426TIP3    H276694   2.824   0.471  12.376  0.9761  1.5167 -0.7090
18427TIP3   OH276695   6.414   5.053  13.804 -0.0908  0.1304 -0.5131
18427TIP3    H176696   6.508   5.037  13.800 -0.3477 -1.4745 -0.9791
18427TIP3    H276697   6.400   5.096  13.888  1.1382  1.1374 -0.7919
18428TIP3   OH276698   3.584   5.546  12.256 -0.2066 -0.5262  0.1251
18428TIP3    H176699   3.645   5.620  12.252 -2.3444  1.4030  1.0953
18428TIP3    H276700   3.565   5.526  12.164  4.2911 -3.5079 -0.4748
18429TIP3   OH276701   1.808   2.970   5.220 -0.0902 -0.3839 -1.2094
18429TIP3    H176702   1.820   2.877   5.243  0.4565 -0.3421 -1.3086
18429TIP3    H276703   1.858   3.017   5.287 -3.1233  0.0533  0.9679
18430TIP3   OH276704   3.973   6.625   2.586 -0.1860 -0.0019  0.5902
18430TIP3    H176705   3.946   6.557   2.649  0.1429 -0.0777  0.6549
18430TIP3    H276706   4.049   6.587   2.542 -1.3825 -0.6166 -1.0140
18431TIP3   OH276707   0.045   0.372   0.088  0.1906 -1.1163  0.1169
18431TIP3    H176708   0.066   0.373   0.181  1.2519 -0.3581 -0.1189
18431TIP3    H276709   0.024   0.280   0.069 -1.4010 -1.0559  1.3696
18432TIP3   OH276710   4.893   5.387  11.187 -0.1396  0.0329  0.2396
18432TIP3    H176711   4.889   5.393  11.091  0.8915  0.1463  0.1915
18432TIP3    H276712   4.937   5.468  11.214 -2.5992  1.2290  1.0318
18433TIP3   OH276713   4.708   0.754  14.921  0.4326 -0.1398  0.8420
18433TIP3    H176714   4.782   0.746  14.861  0.3209  0.4994  0.6217
18433TIP3    H276715   4.630   0.750  14.865  0.2527 -1.5566  1.1368
18434TIP3   OH276716   6.225   4.309   6.398  0.4410  0.4955 -0.0354
18434TIP3    H176717   6.170   4.302   6.320  0.1911 -2.0178  0.2656
18434TIP3    H276718   6.314   4.294   6.366  0.3337 -0.5800  0.1061
18435TIP3   OH276719   2.144   5.219  16.901 -0.4661  0.0374  0.3238
18435TIP3    H176720   2.126   5.224  16.995 -1.6426  1.8893  0.0480
18435TIP3    H276721   2.153   5.310  16.873 -3.0992 -0.2618 -1.8754
18436TIP3   OH276722   5.901   3.727   5.151 -0.0301 -0.5910 -0.5368
18436TIP3    H176723   5.958   3.750   5.078  0.3891  0.7193  0.1673
18436TIP3    H276724   5.816   3.765   5.128  0.0408 -0.3773 -0.4429
18437TIP3   OH276725   2.170   2.871  11.672  0.1367  0.0144  0.3986
18437TIP3    H176726   2.140   2.931  11.604 -0.5371  0.6590  1.2434
18437TIP3    H276727   2.092   2.857  11.726  1.2238  1.4001  2.4242
18438TIP3   OH276728   5.491   5.815   3.910  0.4925 -0.3728  0.1683
18438TIP3    H176729   5.433   5.780   3.978  1.4358 -1.6653  0.3369
18438TIP3    H276730   5.441   5.805   3.828 -0.9279  1.8113  0.6651
18439TIP3   OH276731   2.081   1.775   1.815  0.1796 -0.0734 -0.3920
18439TIP3    H176732   1.987   1.781   1.799 -0.6066 -3.4030  1.9557
18439TIP3    H276733   2.098   1.841   1.882 -0.4067  0.6125 -0.8914
18440TIP3   OH276734   6.313   5.985   4.268 -0.1846  0.3581  0.0062
18440TIP3    H176735   6.286   6.059   4.213  0.1725 -0.2844 -1.0662
18440TIP3    H276736   6.403   5.967   4.242 -0.2970 -0.5204  0.1820
18441TIP3   OH276737   1.209   4.311  12.566  0.0481  0.4930  0.1999
18441TIP3    H176738   1.227   4.348  12.480 -0.2635  1.9887  0.7278
18441TIP3    H276739   1.271   4.239  12.575 -0.2529 -0.0117 -1.4512
18442TIP3   OH276740   3.730   0.738   4.282 -0.5026 -0.1172  1.0426
18442TIP3    H176741   3.652   0.724   4.227  0.0783  0.3079  0.0874
18442TIP3    H276742   3.725   0.829   4.309  0.6449  0.4813 -0.6321
18443TIP3   OH276743   3.451   6.184  17.058  0.0280  0.2075 -0.0343
18443TIP3    H176744   3.456   6.089  17.065 -0.5666  0.2373  0.9026
18443TIP3    H276745   3.374   6.209  17.109  2.4913  1.5447  3.4201
18444TIP3   OH276746   4.284   1.246  17.064 -0.4503  0.0309 -0.1057
18444TIP3    H176747   4.244   1.185  17.002 -0.8178 -0.4375  0.5793
18444TIP3    H276748   4.210   1.280  17.115 -0.2446  1.0371 -0.4610
18445TIP3   OH276749   0.961   4.394  13.729 -0.6973 -0.2179 -0.3005
18445TIP3    H176750   0.888   4.452  13.750 -0.2607  0.2122  0.0466
18445TIP3    H276751   1.039   4.448  13.743 -0.3158 -0.6656 -0.6933
18446TIP3   OH276752   4.203   3.243  14.826 -0.4731 -0.2182  0.4794
18446TIP3    H176753   4.180   3.234  14.919 -2.2182  0.5480  0.1668
18446TIP3    H276754   4.253   3.164  14.806 -0.1791 -0.4587  2.0309
18447TIP3   OH276755   5.100   1.924   6.048  0.5604 -0.2600  0.2366
18447TIP3    H176756   5.103   1.995   6.112  0.6525 -0.6988  0.7284
18447TIP3    H276757   5.084   1.967   5.965 -1.5435  0.1768  0.8162
18448TIP3   OH276758   3.478   2.165  13.928 -0.0931  0.5234  0.4709
18448TIP3    H176759   3.564   2.165  13.886  0.8247 -1.1449  2.2027
18448TIP3    H276760   3.482   2.093  13.991 -2.0335  1.7075  2.0779
18449TIP3   OH276761   3.227   1.450  12.895 -0.1797 -0.1648  0.1900
18449TIP3    H176762   3.309   1.426  12.938  0.7078 -0.4335 -1.5351
18449TIP3    H276763   3.227   1.545  12.895 -0.3303 -0.1567  0.9944
18450TIP3   OH276764   2.148   5.219  16.423  0.3506  0.0678 -0.0595
18450TIP3    H176765   2.063   5.258  16.440  0.9843  1.4427  0.1255
18450TIP3    H276766   2.133   5.125  16.424 -1.2271  0.3018 -0.4167
18451TIP3   OH276767   4.472   1.469  15.587 -0.7247  0.2043 -0.3733
18451TIP3    H176768   4.511   1.383  15.604 -1.9368 -0.1579  0.6679
18451TIP3    H276769   4.533   1.531  15.627  0.0217 -0.1755 -0.8969
18452TIP3   OH276770   3.911   6.648  15.907  0.1247 -0.1790  0.3083
18452TIP3    H176771   3.832   6.698  15.926  0.4964  0.7097 -0.4176
18452TIP3    H276772   3.972   6.672  15.976  0.1818  0.1028  0.1611
18453TIP3   OH276773   5.856   2.105  16.431 -0.5720  0.0936  0.2916
18453TIP3    H176774   5.765   2.076  16.425  0.2523 -2.7517  0.3917
18453TIP3    H276775   5.887   2.073  16.515  0.7025  0.5469  0.0266
18454TIP3   OH276776   2.134   2.567  16.288 -0.2896  0.0707 -0.2890
18454TIP3    H176777   2.156   2.474  16.287 -2.6300 -0.5619 -0.1589
18454TIP3    H276778   2.166   2.598  16.373  1.0996 -0.4327 -0.6069
18455TIP3   OH276779   4.510   4.251  14.540  0.2970 -0.4836 -0.7619
18455TIP3    H176780   4.418   4.241  14.516  0.6303 -0.2231 -2.2429
18455TIP3    H276781   4.557   4.197  14.476  1.1606 -0.9890  0.2607
18456TIP3   OH276782   5.408   0.571  15.087  0.6829 -0.2897  0.2847
18456TIP3    H176783   5.327   0.520  15.088  0.7640 -0.5420 -1.8807
18456TIP3    H276784   5.394   0.641  15.152 -0.0615 -2.0452  2.1075
18457TIP3   OH276785   0.527   4.324  13.466 -0.0624  0.1188  0.2969
18457TIP3    H176786   0.529   4.333  13.561  1.8752 -0.0691  0.3157
18457TIP3    H276787   0.607   4.276  13.445  1.6614  3.4766 -1.6895
18458TIP3   OH276788   6.304   3.416   6.143 -0.1011  0.4943  0.1529
18458TIP3    H176789   6.324   3.436   6.235 -1.3518  0.4417  0.4587
18458TIP3    H276790   6.315   3.321   6.137 -1.6590  0.2376  0.7261
18459TIP3   OH276791   1.590   4.475  13.024  0.2294 -0.0258  0.5513
18459TIP3    H176792   1.517   4.470  13.085 -0.0704  0.1764  0.2141
18459TIP3    H276793   1.608   4.569  13.015  0.6155 -0.0802  0.7320
18460TIP3   OH276794   5.107   1.115  17.155  0.1261  0.1033  0.7697
18460TIP3    H176795   5.032   1.169  17.130 -0.0307 -0.4510 -0.0061
18460TIP3    H276796   5.116   1.052  17.084  0.7177 -0.4726  1.3360
18461TIP3   OH276797   5.576   0.915   3.585  0.1160 -0.1310  0.4344
18461TIP3    H176798   5.500   0.880   3.539 -0.2873 -1.3411  1.9090
18461TIP3    H276799   5.558   0.898   3.678  2.7795 -1.8438  0.7712
18462TIP3   OH276800   0.558   3.075   5.819 -0.3636 -0.1952  0.1009
18462TIP3    H176801   0.607   3.074   5.902  0.6416  0.4266 -0.4761
18462TIP3    H276802   0.610   3.129   5.760  0.1024 -2.4080 -1.6475
18463TIP3   OH276803   3.592   3.562   1.705  0.0303 -0.1559 -0.3235
18463TIP3    H176804   3.545   3.645   1.700  0.3169  0.0920  0.9927
18463TIP3    H276805   3.523   3.496   1.715 -0.1197  0.0780  0.2064
18464TIP3   OH276806   1.041   2.056   0.551 -0.0133  0.3193 -0.1741
18464TIP3    H176807   1.040   2.033   0.458  1.0407  0.9660 -0.3676
18464TIP3    H276808   0.952   2.038   0.581 -0.0497 -1.0879 -1.0098
18465TIP3   OH276809   5.427   5.018  13.410  0.5281  0.1263  0.0525
18465TIP3    H176810   5.343   4.984  13.440 -0.0732  0.4724 -1.1766
18465TIP3    H276811   5.435   5.104  13.451  1.3233 -0.7716  1.9043
18466TIP3   OH276812   5.269   2.834  15.193 -0.3877  0.4991 -0.4212
18466TIP3    H176813   5.347   2.808  15.243 -1.1661 -0.9917  0.0604
18466TIP3    H276814   5.255   2.764  15.130 -0.9365  1.1091 -1.0059
18467TIP3   OH276815   4.332   3.612   0.222 -0.7268 -0.1466  0.4080
18467TIP3    H176816   4.325   3.640   0.313  2.0623 -2.6017  1.5461
18467TIP3    H276817   4.269   3.540   0.215 -1.4943  0.5344  0.1142
18468TIP3   OH276818   3.256   6.016  12.595 -1.1856  0.7506 -0.1939
18468TIP3    H176819   3.210   5.977  12.521 -0.3082  2.1091 -1.5273
18468TIP3    H276820   3.187   6.056  12.648 -1.7945  0.1698 -0.5394
18469TIP3   OH276821   0.310   6.163   5.796 -0.0146  0.3030 -0.2781
18469TIP3    H176822   0.395   6.139   5.759 -0.2949  0.6388 -1.1763
18469TIP3    H276823   0.280   6.084   5.841  1.1344  0.4305  0.7803
18470TIP3   OH276824   4.945   0.869   4.536 -0.0534 -0.7721 -0.4123
18470TIP3    H176825   4.878   0.835   4.596  0.2782 -1.5183 -0.4525
18470TIP3    H276826   5.017   0.806   4.543  1.0129  0.4718  0.2888
18471TIP3   OH276827   5.865   5.495  16.783 -0.1417 -0.2578  0.5738
18471TIP3    H176828   5.878   5.474  16.691 -0.3553 -1.5987  0.8335
18471TIP3    H276829   5.954   5.509  16.817  0.3877 -4.0261  1.1088
18472TIP3   OH276830   1.161   0.452   6.031 -0.1921 -0.0537 -0.8017
18472TIP3    H176831   1.244   0.497   6.048  0.6372 -1.8629  0.3265
18472TIP3    H276832   1.171   0.366   6.074 -2.5293 -0.4544 -0.9018
18473TIP3   OH276833   5.292   0.772  14.096 -0.6445  0.0079 -0.0724
18473TIP3    H176834   5.282   0.702  14.160 -2.2425 -0.1562 -0.4599
18473TIP3    H276835   5.263   0.851  14.142 -1.1991 -0.0071 -0.3873
18474TIP3   OH276836   1.247   4.026   6.494  0.0910 -0.2260 -0.0869
18474TIP3    H176837   1.195   3.981   6.428 -0.3075  0.0427  0.0401
18474TIP3    H276838   1.202   4.007   6.577 -0.0044  0.2935 -0.0167
18475TIP3   OH276839   6.386   0.832   3.725  0.0290 -0.1222 -0.2799
18475TIP3    H176840   6.455   0.879   3.773  0.9234 -0.7447 -0.9211
18475TIP3    H276841   6.323   0.900   3.701  0.3989  0.4571  0.3514
18476TIP3   OH276842   3.630   3.793  13.405 -0.3720 -0.1802 -0.2438
18476TIP3    H176843   3.558   3.811  13.466 -0.4127  1.2370 -0.6741
18476TIP3    H276844   3.709   3.815  13.454 -0.2151 -1.4559  0.1259
18477TIP3   OH276845   4.815   3.553  11.914  0.2779  0.2424  0.1383
18477TIP3    H176846   4.819   3.555  12.010  1.4116  1.2895  0.1027
18477TIP3    H276847   4.815   3.460  11.892 -0.0082 -0.0133  1.1526
18478TIP3   OH276848   0.410   1.984   3.602 -0.0365 -0.2180 -0.5628
18478TIP3    H176849   0.369   1.926   3.667 -1.5319  0.2208 -1.0607
18478TIP3    H276850   0.423   1.928   3.525  0.3346 -0.3666 -0.3936
18479TIP3   OH276851   2.167   2.851   1.566 -0.0005  0.8999 -0.0738
18479TIP3    H176852   2.244   2.811   1.608 -0.4474 -0.1107 -0.1706
18479TIP3    H276853   2.185   2.842   1.472 -0.4096  0.2637 -0.1025
18480TIP3   OH276854   2.924   1.747  13.086 -0.1201 -0.3506  0.0973
18480TIP3    H176855   2.889   1.835  13.075  0.0052 -0.4101 -0.8186
18480TIP3    H276856   2.849   1.689  13.072  0.1195 -0.4407 -0.8505
18481TIP3   OH276857   4.397   3.627   4.197  0.3020 -0.5633 -0.0835
18481TIP3    H176858   4.338   3.634   4.122 -2.2607 -0.3503  1.8234
18481TIP3    H276859   4.450   3.707   4.193  0.7009 -0.8814 -2.0015
18482TIP3   OH276860   2.628   6.374  14.867  0.0640  0.3115 -0.0139
18482TIP3    H176861   2.665   6.378  14.955  1.5044  1.0045 -0.6164
18482TIP3    H276862   2.625   6.465  14.838  0.1692  0.0419 -0.9025
18483TIP3   OH276863   6.472   0.745  10.442 -0.1839 -0.0525 -0.4150
18483TIP3    H176864   6.567   0.753  10.441 -0.3241  2.2500 -1.4078
18483TIP3    H276865   6.447   0.772  10.531  0.1135 -1.8789  0.2654
18484TIP3   OH276866   4.804   6.357  11.823 -0.1157 -0.1126  0.1961
18484TIP3    H176867   4.829   6.411  11.748 -2.2877 -0.1754 -0.6740
18484TIP3    H276868   4.745   6.291  11.785  0.6549 -1.6731  1.6010
18485TIP3   OH276869   4.901   3.665  12.833 -0.3166  0.0346  0.5433
18485TIP3    H176870   4.823   3.611  12.828 -0.0307 -0.3201 -0.2783
18485TIP3    H276871   4.927   3.662  12.925 -1.3386  0.2661  0.8481
18486TIP3   OH276872   3.407   5.152  13.852 -0.2029 -0.6038  0.4718
18486TIP3    H176873   3.496   5.182  13.834 -0.2853  0.7453  2.1038
18486TIP3    H276874   3.380   5.106  13.772  1.2107  0.7195 -0.8114
18487TIP3   OH276875   0.591   5.006  15.997  0.0247 -0.9880 -0.2320
18487TIP3    H176876   0.575   5.004  15.903  0.5359 -0.5301 -0.3308
18487TIP3    H276877   0.644   4.928  16.014  0.1561 -0.9294 -0.3696
18488TIP3   OH276878   0.050   1.779   6.428  0.1640 -0.1171 -0.1747
18488TIP3    H176879   0.112   1.814   6.492 -0.4815  0.0475  0.3740
18488TIP3    H276880   0.105   1.741   6.360  0.8746 -0.5945  0.6417
18489TIP3   OH276881   0.487   4.475  11.882 -0.4479 -0.2559 -0.2799
18489TIP3    H176882   0.546   4.521  11.942  0.7467 -0.6098 -1.1588
18489TIP3    H276883   0.543   4.446  11.810 -1.8454  0.1988 -1.6093
18490TIP3   OH276884   4.644   6.588   3.851 -0.5788 -0.0985 -0.2294
18490TIP3    H176885   4.716   6.550   3.802  0.4178 -1.0821  1.8584
18490TIP3    H276886   4.685   6.648   3.913 -1.6287 -0.0353  0.4411
18491TIP3   OH276887   3.039   1.366   2.328 -0.7686 -0.4876 -0.2747
18491TIP3    H176888   3.063   1.351   2.419 -0.8232  1.0316  0.0202
18491TIP3    H276889   2.946   1.387   2.331 -0.6803 -0.0299 -0.6239
18492TIP3   OH276890   6.657   4.676  15.010 -0.1412  0.5678  0.0694
18492TIP3    H176891   6.626   4.761  14.978 -0.7627  0.2602 -0.1691
18492TIP3    H276892   6.627   4.613  14.944 -0.1422  0.1027  0.5070
18493TIP3   OH276893   5.651   1.412  13.062  0.2333  0.2698  0.4495
18493TIP3    H176894   5.561   1.444  13.054 -0.4966 -2.0137 -2.1120
18493TIP3    H276895   5.706   1.490  13.052 -1.4525  1.4553  0.1331
18494TIP3   OH276896   1.714   3.071  15.903 -0.4944  0.3751 -0.1776
18494TIP3    H176897   1.700   2.977  15.913 -1.8401  0.6675  1.0409
18494TIP3    H276898   1.801   3.079  15.864 -0.1228 -1.3394  0.2466
18495TIP3   OH276899   4.138   4.420   3.701 -0.4893  0.3162  0.4950
18495TIP3    H176900   4.176   4.365   3.769 -1.5794  0.0116  0.8698
18495TIP3    H276901   4.139   4.508   3.737  0.8633  0.5039  0.0620
18496TIP3   OH276902   6.224   3.660  14.115  0.1193  0.1391  0.1598
18496TIP3    H176903   6.307   3.612  14.112  1.0093  1.6250 -3.8359
18496TIP3    H276904   6.176   3.630  14.037 -1.5548  1.9330  0.4323
18497TIP3   OH276905   0.210   2.470   1.715 -0.8581 -0.2875  0.0212
18497TIP3    H176906   0.212   2.375   1.716 -0.9142 -0.2867  0.2487
18497TIP3    H276907   0.259   2.496   1.794 -0.5085 -0.1247 -0.2476
18498TIP3   OH276908   3.424   1.466   2.956 -0.0159 -0.2409  0.4152
18498TIP3    H176909   3.358   1.398   2.968  0.3988 -0.6610  0.3219
18498TIP3    H276910   3.438   1.502   3.043 -0.5916  0.0621  0.3880
18499TIP3   OH276911   3.686   0.696  16.238 -0.7168 -0.7918  0.3073
18499TIP3    H176912   3.697   0.611  16.280 -1.5843 -0.7708  0.5834
18499TIP3    H276913   3.717   0.759  16.304  0.2715 -0.8992 -0.0327
18500TIP3   OH276914   3.312   0.722  12.247 -0.0482  0.2713  0.0761
18500TIP3    H176915   3.292   0.796  12.189  2.2918 -0.4590 -1.8315
18500TIP3    H276916   3.226   0.689  12.274 -1.1958  1.9499 -1.2807
18501TIP3   OH276917   0.399   3.134  15.827 -0.0830  0.6285  0.1089
18501TIP3    H176918   0.394   3.227  15.807 -0.7313  0.2392 -1.6780
18501TIP3    H276919   0.430   3.094  15.746 -1.0276 -0.8469  0.4444
18502TIP3   OH276920   2.721   0.767  15.276  0.2050 -0.5490 -0.1721
18502TIP3    H176921   2.694   0.706  15.344 -0.1046 -0.1744  0.0388
18502TIP3    H276922   2.699   0.722  15.194 -2.9841  0.5551 -0.0407
18503TIP3   OH276923   6.547   3.356   0.632  0.8670  0.2498  0.5682
18503TIP3    H176924   6.500   3.353   0.715 -1.4732  0.1859 -0.6786
18503TIP3    H276925   6.507   3.428   0.583  0.5607 -1.1424 -1.3656
18504TIP3   OH276926   0.880   2.568   1.683 -0.9580 -0.1965 -0.1900
18504TIP3    H176927   0.921   2.611   1.759 -0.3608 -0.5076 -0.3253
18504TIP3    H276928   0.845   2.486   1.717 -0.4436 -0.4670 -0.2972
18505TIP3   OH276929   1.809   6.346  13.448  0.6363  0.0825 -0.1206
18505TIP3    H176930   1.833   6.438  13.457  0.8847 -0.0011  0.0985
18505TIP3    H276931   1.861   6.315  13.374  0.5778  0.1106 -0.1735
18506TIP3   OH276932   3.131   2.150  15.000 -0.8015 -0.8806 -0.5004
18506TIP3    H176933   3.195   2.086  14.969 -0.3453 -0.3483 -0.6793
18506TIP3    H276934   3.076   2.168  14.923  0.6209  0.7912 -1.1976
18507TIP3   OH276935   3.809   5.051   4.208  0.0990 -0.2101 -0.1077
18507TIP3    H176936   3.763   5.026   4.288 -1.2649  0.8890 -0.5185
18507TIP3    H276937   3.765   5.131   4.178  2.2641  0.9113 -0.5391
18508TIP3   OH276938   5.064   6.621   4.157 -0.2719 -0.2256 -0.1081
18508TIP3    H176939   5.058   6.570   4.238 -0.8024 -1.5201 -0.9315
18508TIP3    H276940   5.111   6.700   4.182  2.1095 -1.8266  0.9048
18509TIP3   OH276941   3.506   0.784  13.481  0.0807  0.2463  0.0768
18509TIP3    H176942   3.575   0.786  13.548  1.5219  0.8541 -1.3368
18509TIP3    H276943   3.500   0.875  13.451 -1.4727  0.2272  0.2686
18510TIP3   OH276944   3.746   1.693   3.172  0.3726 -0.0762  0.2438
18510TIP3    H176945   3.824   1.640   3.157  1.4129  2.1996 -3.5805
18510TIP3    H276946   3.773   1.783   3.153 -2.1957  1.4622  2.9545
18511TIP3   OH276947   6.069   0.154  13.644  0.2113  0.8768 -0.3656
18511TIP3    H176948   6.022   0.085  13.691  0.3543 -0.3313 -1.9208
18511TIP3    H276949   6.004   0.224  13.636  0.0123  0.9121  1.0990
18512TIP3   OH276950   5.036   6.115  12.469  0.6195 -0.2243 -0.4122
18512TIP3    H176951   5.043   6.020  12.482  1.2400  0.0335  1.3388
18512TIP3    H276952   4.953   6.139  12.510  1.3780  0.2475  0.8800
18513TIP3   OH276953   2.509   2.689  13.714 -0.1457 -0.2933  0.1415
18513TIP3    H176954   2.466   2.604  13.720 -1.1329  0.0755 -1.1332
18513TIP3    H276955   2.468   2.731  13.638 -0.4005  1.7175  1.3231
18514TIP3   OH276956   0.389   0.081  15.056  0.2758  0.2022  0.2878
18514TIP3    H176957   0.417   0.151  14.997  1.5294  1.0121  1.7526
18514TIP3    H276958   0.435   0.003  15.026  0.8414  0.5906  0.1394
18515TIP3   OH276959   3.024   6.635   2.039  0.1702  0.7501 -0.1881
18515TIP3    H176960   2.998   6.606   1.951  0.3839  2.1044 -0.7323
18515TIP3    H276961   3.119   6.637   2.036  0.2168 -0.1770  0.4249
18516TIP3   OH276962   2.618   4.315  12.257 -0.5789 -0.5037  0.0768
18516TIP3    H176963   2.701   4.340  12.216 -0.0940 -2.0863  0.0422
18516TIP3    H276964   2.642   4.290  12.346 -1.2504  0.3659  0.5241
18517TIP3   OH276965   3.894   5.285  16.937  0.4795  0.2217  0.0102
18517TIP3    H176966   3.903   5.283  16.841 -1.2632  0.3516 -0.1980
18517TIP3    H276967   3.947   5.360  16.964 -1.9688  2.6191 -1.3215
18518TIP3   OH276968   4.400   6.605  11.231  0.2718  0.1563 -0.4016
18518TIP3    H176969   4.379   6.538  11.295  2.1347 -0.1759 -0.0889
18518TIP3    H276970   4.450   6.559  11.163  1.7473  1.2116 -0.0892
18519TIP3   OH276971   3.702   4.818   1.663 -0.3926  0.1297 -0.2899
18519TIP3    H176972   3.757   4.756   1.711 -1.2812  0.5931  1.3836
18519TIP3    H276973   3.757   4.896   1.652  0.7157 -0.8602 -2.3652
18520TIP3   OH276974   0.598   3.820  11.794  0.0004  0.1195  0.0378
18520TIP3    H176975   0.546   3.770  11.857 -0.6125  1.1168  0.3465
18520TIP3    H276976   0.649   3.754  11.747  0.9814 -0.6015  2.0259
18521TIP3   OH276977   5.539   0.934  15.446 -0.4671  0.1135 -0.4071
18521TIP3    H176978   5.622   0.927  15.493 -0.1287  2.4233 -0.5167
18521TIP3    H276979   5.557   0.995  15.374 -1.9997 -0.1861 -1.0980
18522TIP3   OH276980   2.766   4.571   3.043 -0.1960 -0.1741  0.0165
18522TIP3    H176981   2.679   4.531   3.050 -0.8792  1.4880  1.9425
18522TIP3    H276982   2.750   4.664   3.055  1.7569  0.3033 -0.8099
18523TIP3   OH276983   0.412   4.894  12.822  0.1037 -0.5118 -0.6742
18523TIP3    H176984   0.489   4.951  12.825  1.2582 -1.9730 -1.1549
18523TIP3    H276985   0.407   4.864  12.731 -0.0396 -1.7156 -0.2909
18524TIP3   OH276986   0.209   4.119  12.361 -0.2087 -0.2056 -0.4533
18524TIP3    H176987   0.275   4.185  12.341  0.6614 -1.1800 -0.9017
18524TIP3    H276988   0.255   4.054  12.415 -0.8337 -0.8304 -0.6488
18525TIP3   OH276989   0.936   5.208   3.743  0.4387 -0.1454 -0.7298
18525TIP3    H176990   0.874   5.192   3.813  1.6912 -2.1888 -0.0117
18525TIP3    H276991   1.015   5.160   3.768  1.2471 -0.2193 -3.0919
18526TIP3   OH276992   5.632   2.014  13.879  0.3441  0.4336  0.3910
18526TIP3    H176993   5.696   1.944  13.890  0.3087 -0.0432 -2.0286
18526TIP3    H276994   5.684   2.089  13.850  0.0233  0.5637  0.1556
18527TIP3   OH276995   1.203   2.857   4.268  0.3947  0.6293 -0.3913
18527TIP3    H176996   1.223   2.922   4.200  0.3083  0.2422 -0.7938
18527TIP3    H276997   1.124   2.890   4.311  0.9676  1.3475  0.1401
18528TIP3   OH276998   6.003   6.514  16.676 -0.1965 -0.0926 -0.0767
18528TIP3    H176999   5.936   6.581  16.661  0.2890  0.6514  0.9826
18528TIP3    H277000   6.009   6.506  16.771  1.1606 -0.1974 -0.1573
18529TIP3   OH277001   0.315   1.751  12.425  0.3463  0.5425 -0.0820
18529TIP3    H177002   0.228   1.791  12.429  0.8761  1.8046 -0.8088
18529TIP3    H277003   0.297   1.657  12.420 -0.9254  0.6113  1.7855
18530TIP3   OH277004   3.599   4.637  15.790  0.3547 -0.5942 -0.3794
18530TIP3    H177005   3.650   4.676  15.861 -0.6637 -0.6876  0.4351
18530TIP3    H277006   3.624   4.545  15.790  0.9326 -0.4369 -0.6542
18531TIP3   OH277007   0.257   1.110   4.565  0.0035 -0.2320 -0.1911
18531TIP3    H177008   0.290   1.198   4.551 -0.7800  0.6745  3.0068
18531TIP3    H277009   0.197   1.095   4.491  0.2004  1.8794 -0.8290
18532TIP3   OH277010   3.612   0.276   2.580  0.2770 -0.1827  0.3513
18532TIP3    H177011   3.668   0.203   2.608 -2.9438 -3.2164 -0.3649
18532TIP3    H277012   3.575   0.310   2.661  0.6560 -0.3480  0.5976
18533TIP3   OH277013   5.205   5.898  16.384  0.2288 -0.2836 -0.1764
18533TIP3    H177014   5.219   5.804  16.379  0.3187 -0.2872  0.1730
18533TIP3    H277015   5.279   5.932  16.434  1.4001  0.2511 -2.1575
18534TIP3   OH277016   3.494   6.139   1.545 -0.0719 -0.2023  0.1067
18534TIP3    H177017   3.470   6.050   1.572  0.9217 -1.1108 -1.8625
18534TIP3    H277018   3.484   6.139   1.450  3.9639  0.4441 -0.5039
18535TIP3   OH277019   4.367   6.226  12.231  0.1562  0.4594 -0.5994
18535TIP3    H177020   4.450   6.272  12.219  0.1763  0.3208 -0.9677
18535TIP3    H277021   4.304   6.278  12.181  0.1540  0.1560 -0.9085
18536TIP3   OH277022   2.442   2.348  11.605  0.4804  0.2429 -0.4091
18536TIP3    H177023   2.351   2.364  11.631  0.8912  0.7340  0.7827
18536TIP3    H277024   2.451   2.392  11.521 -0.6372 -0.6044 -1.0080
18537TIP3   OH277025   3.131   1.411   6.039 -0.0664 -0.0317  0.0768
18537TIP3    H177026   3.086   1.492   6.013  0.2269  0.4763  1.0968
18537TIP3    H277027   3.210   1.409   5.985  0.5478  1.0263  0.8756
18538TIP3   OH277028   1.508   2.753   3.626  0.2337 -0.2403  0.1449
18538TIP3    H177029   1.578   2.818   3.617 -0.4802  0.5363  0.0760
18538TIP3    H277030   1.553   2.668   3.621  1.1016  0.2383 -0.4002
18539TIP3   OH277031   5.529   0.658  11.992  0.6288  0.3234  0.5326
18539TIP3    H177032   5.484   0.649  11.908  1.5811 -1.1613  0.1455
18539TIP3    H277033   5.535   0.753  12.005 -0.5077  0.5769 -0.5190
18540TIP3   OH277034   3.625   5.468  17.303 -0.0844 -0.6218  0.1158
18540TIP3    H177035   3.674   5.535  17.255 -1.1068  0.3857  0.4369
18540TIP3    H277036   3.653   5.386  17.263  0.1781  0.0830 -1.2377
18541TIP3   OH277037   4.199   4.867  15.724 -0.0903  0.1367 -0.2416
18541TIP3    H177038   4.223   4.848  15.815 -1.4221  1.1879  0.3793
18541TIP3    H277039   4.132   4.801  15.703  0.1133 -0.0168 -0.4064
18542TIP3   OH277040   6.188   0.848   1.507  0.3497 -0.0409 -0.2850
18542TIP3    H177041   6.169   0.755   1.494  0.9051  0.0242 -1.7429
18542TIP3    H277042   6.136   0.873   1.584 -3.0938 -0.5854 -2.2432
18543TIP3   OH277043   1.689   3.506   3.909 -0.5322 -0.0609 -0.2644
18543TIP3    H177044   1.648   3.521   3.823  2.9946  0.9679 -1.9759
18543TIP3    H277045   1.747   3.431   3.895  2.9974  2.4261 -0.0738
18544TIP3   OH277046   2.495   4.262   5.617  0.3483  0.4888 -0.9970
18544TIP3    H177047   2.428   4.331   5.618 -0.2941 -0.1318 -0.3104
18544TIP3    H277048   2.502   4.234   5.708  0.4827 -0.4810 -1.2992
18545TIP3   OH277049   6.138   5.402   2.641  0.0265 -0.3677  0.0153
18545TIP3    H177050   6.044   5.395   2.624  0.0026 -1.1324  0.3850
18545TIP3    H277051   6.150   5.490   2.676 -1.0979 -1.3031  3.1397
18546TIP3   OH277052   0.413   2.567   3.057 -0.2308  0.1492 -0.7310
18546TIP3    H177053   0.350   2.523   3.000 -1.0065 -0.9981  0.9235
18546TIP3    H277054   0.360   2.629   3.108 -0.0241 -0.6870  0.5454
18547TIP3   OH277055   5.308   5.409  13.126 -0.1362 -0.1285 -0.0719
18547TIP3    H177056   5.299   5.318  13.157  0.0117 -0.7236 -1.6973
18547TIP3    H277057   5.390   5.439  13.165  0.3391 -1.0438 -0.3405
18548TIP3   OH277058   2.883   6.167   2.303 -0.2999 -0.0237 -0.3493
18548TIP3    H177059   2.859   6.259   2.309 -1.1995 -0.2253 -0.6610
18548TIP3    H277060   2.946   6.154   2.374 -1.3488  0.4739  0.7060
18549TIP3   OH277061   5.499   3.763  14.031 -0.0197  0.0920  0.0385
18549TIP3    H177062   5.477   3.723  14.115 -3.2748  0.8128 -0.3513
18549TIP3    H277063   5.507   3.856  14.049 -0.7599  0.2543 -0.4532
18550TIP3   OH277064   6.635   0.886   5.594 -0.0948 -0.3385  0.1761
18550TIP3    H177065   6.596   0.874   5.508  0.5167  0.4245 -0.2148
18550TIP3    H277066   6.691   0.809   5.606 -1.5334 -1.3466  0.6645
18551TIP3   OH277067   2.971   5.857   3.892  0.3588  0.4906  0.2329
18551TIP3    H177068   3.018   5.825   3.970 -0.7256 -0.6513  0.4478
18551TIP3    H277069   2.982   5.787   3.828 -2.9212 -0.9613  1.0447
18552TIP3   OH277070   0.485   5.666  15.971 -0.3039  0.8457 -0.4822
18552TIP3    H177071   0.521   5.680  15.884 -1.6390 -0.2880 -1.2604
18552TIP3    H277072   0.506   5.575  15.992  0.0252  1.1098  0.4071
18553TIP3   OH277073   4.282   6.326   5.310 -0.2387 -0.5395  0.0597
18553TIP3    H177074   4.275   6.422   5.303  3.0743 -0.2085 -0.3542
18553TIP3    H277075   4.202   6.300   5.354 -2.3279  2.1487 -1.7449
18554TIP3   OH277076   0.316   3.088  11.068  0.3424  0.1704  0.3415
18554TIP3    H177077   0.332   3.047  10.983  0.3296  0.4241  0.2171
18554TIP3    H277078   0.229   3.126  11.060  0.3755  0.2651  0.4424
18555TIP3   OH277079   6.255   1.300   6.294  0.4631 -0.1408  0.3984
18555TIP3    H177080   6.270   1.216   6.338 -2.4250 -1.4112 -0.7604
18555TIP3    H277081   6.215   1.276   6.210  0.4270  2.3882 -0.3981
18556TIP3   OH277082   2.026   1.552  14.594  0.4392 -0.6537  0.4571
18556TIP3    H177083   2.083   1.510  14.658  2.5703  1.6955  0.2515
18556TIP3    H277084   2.030   1.495  14.517  1.4602 -1.2134  0.9124
18557TIP3   OH277085   2.261   5.416   2.583  0.3255  0.1610  0.4239
18557TIP3    H177086   2.183   5.361   2.576  0.6959 -0.3555  0.3612
18557TIP3    H277087   2.231   5.493   2.631  0.1901 -0.8624  2.0603
18558TIP3   OH277088   2.910   5.672  11.735  0.3683 -0.2330 -0.6450
18558TIP3    H177089   2.879   5.642  11.820  1.8952 -0.9353 -0.2967
18558TIP3    H277090   2.836   5.658  11.676  0.2245 -2.5648 -0.0188
18559TIP3   OH277091   6.456   5.433   3.379 -0.0636  0.1135  0.3508
18559TIP3    H177092   6.372   5.391   3.391 -0.4220 -0.7687 -3.7798
18559TIP3    H277093   6.519   5.375   3.422 -0.9390 -3.0742 -2.2312
18560TIP3   OH277094   5.165   3.384  16.521 -0.2752 -0.0872 -0.2648
18560TIP3    H177095   5.162   3.345  16.608  0.2117  0.8643  0.1792
18560TIP3    H277096   5.091   3.445  16.519  0.7526  1.2144  0.1310
18561TIP3   OH277097   0.313   2.256   3.300 -0.5898  0.6014  0.3734
18561TIP3    H177098   0.308   2.221   3.210 -0.3773  1.7745 -0.1050
18561TIP3    H277099   0.232   2.226   3.341 -0.9201  0.4553 -0.3599
18562TIP3   OH277100   5.735   5.431  15.194 -0.0718 -0.1763 -0.0858
18562TIP3    H177101   5.675   5.359  15.173 -0.4944 -0.1029  0.8398
18562TIP3    H277102   5.782   5.447  15.112 -0.6152 -0.8970 -0.5528
18563TIP3   OH277103   0.875   1.209  16.749  0.4300  0.0590  0.2029
18563TIP3    H177104   0.927   1.207  16.830  0.5660  0.4690  0.1305
18563TIP3    H277105   0.835   1.123  16.745  1.8014 -0.5935 -0.1953
18564TIP3   OH277106   0.283   0.913  15.683  0.2769  0.4269 -0.5114
18564TIP3    H177107   0.275   0.942  15.773  1.9098 -1.1828  0.2274
18564TIP3    H277108   0.298   0.818  15.690 -0.1624  0.1643 -2.5078
18565TIP3   OH277109   0.037   5.264   0.530  0.1133 -0.3169 -0.2981
18565TIP3    H177110   0.010   5.175   0.506 -2.4829  0.1334  0.5346
18565TIP3    H277111   0.104   5.251   0.597  2.5696 -1.5592 -2.7889
18566TIP3   OH277112   1.588   3.177   2.836 -0.6773  0.0252  0.4767
18566TIP3    H177113   1.540   3.164   2.754 -2.7070  0.2961  1.5805
18566TIP3    H277114   1.578   3.271   2.855  1.1228  0.3019  0.2745
18567TIP3   OH277115   0.780   2.597   4.309 -0.2656  0.3694 -0.1361
18567TIP3    H177116   0.693   2.564   4.333 -0.5007  0.2792 -1.0827
18567TIP3    H277117   0.819   2.527   4.256  0.5330  0.2584  0.5742
18568TIP3   OH277118   6.437   6.232  11.578  0.1866 -0.2910  0.7096
18568TIP3    H177119   6.383   6.276  11.644 -0.2509 -0.0957  0.2275
18568TIP3    H277120   6.517   6.284  11.574  0.1377 -0.1955  0.9513
18569TIP3   OH277121   0.824   1.781  14.539  1.3967  0.4660  0.1351
18569TIP3    H177122   0.791   1.703  14.494  0.8179  1.9085 -2.1065
18569TIP3    H277123   0.806   1.765  14.631 -2.1483 -0.4952 -0.5808
18570TIP3   OH277124   2.386   2.090   5.009  0.2948  0.4426  0.3089
18570TIP3    H177125   2.458   2.120   4.953  0.9764  1.7015  1.7741
18570TIP3    H277126   2.318   2.155   4.996 -0.7126 -0.8396 -1.2047
18571TIP3   OH277127   1.849   4.512   4.825  0.5468 -0.6463 -0.1598
18571TIP3    H177128   1.913   4.575   4.859 -0.7084 -0.1457  1.4120
18571TIP3    H277129   1.782   4.567   4.785 -0.1781 -1.0117  0.5372
18572TIP3   OH277130   6.120   2.510   3.965  0.2488  0.5738  0.7031
18572TIP3    H177131   6.207   2.472   3.975  1.2622  2.7879  0.7512
18572TIP3    H277132   6.061   2.434   3.964  2.1068 -0.9509  1.1162
18573TIP3   OH277133   0.192   5.480  11.208  0.0274 -0.6229  0.2740
18573TIP3    H177134   0.232   5.394  11.193 -1.1855 -0.6285 -4.3540
18573TIP3    H277135   0.099   5.466  11.193 -0.1008  1.5694 -1.5533
18574TIP3   OH277136   1.193   3.849   4.837  0.0455  0.0210  0.5627
18574TIP3    H177137   1.271   3.896   4.866 -0.5706  1.1073  0.4857
18574TIP3    H277138   1.121   3.892   4.882 -0.5819 -0.5643  0.1365
18575TIP3   OH277139   0.886   2.919   0.585  0.0345 -0.4557 -0.1228
18575TIP3    H177140   0.930   2.906   0.500 -1.9732  0.8837 -1.4507
18575TIP3    H277141   0.937   2.866   0.646  1.3965 -1.7239 -2.2137
18576TIP3   OH277142   0.846   4.280   5.729  0.0930 -0.0195  0.1898
18576TIP3    H177143   0.819   4.195   5.694 -0.4160 -0.2464  1.1029
18576TIP3    H277144   0.857   4.336   5.652  0.5498 -0.9461 -0.4243
18577TIP3   OH277145   3.095   4.001  15.332  0.2905  0.3067 -0.1811
18577TIP3    H177146   3.060   4.071  15.277  1.3480 -0.9457 -2.6176
18577TIP3    H277147   3.059   4.018  15.419 -4.2791  0.6076 -1.8280
18578TIP3   OH277148   1.876   1.080   2.140  0.3534 -0.1869 -0.3039
18578TIP3    H177149   1.852   1.164   2.180 -0.2040 -0.2594 -0.4738
18578TIP3    H277150   1.799   1.025   2.152  0.8696 -0.8207  0.1867
18579TIP3   OH277151   3.317   1.837  10.465 -0.1985  0.2100 -0.3903
18579TIP3    H177152   3.268   1.798  10.538  0.3360 -0.2611 -0.2772
18579TIP3    H277153   3.292   1.929  10.466 -0.6992  0.0731 -0.0217
18580TIP3   OH277154   4.766   2.462  14.012  0.3862 -0.8399 -0.0662
18580TIP3    H177155   4.822   2.489  14.084 -0.9707 -0.2462  0.8097
18580TIP3    H277156   4.685   2.513  14.024 -0.7534 -2.4242 -0.6685
18581TIP3   OH277157   6.741   3.385  14.034 -0.0548 -0.4865 -0.1988
18581TIP3    H177158   6.760   3.321  13.966  1.8717  0.4094 -0.5574
18581TIP3    H277159   6.747   3.470  13.990 -2.1120  0.0178  0.3723
18582TIP3   OH277160   2.785   1.504  13.009  0.3581  0.2532 -0.4639
18582TIP3    H177161   2.857   1.489  12.947  1.2732  0.1941  0.5978
18582TIP3    H277162   2.795   1.435  13.074 -2.7778 -2.0192 -2.1156
18583TIP3   OH277163   1.978   6.408   2.105  0.6643  0.5512 -0.2877
18583TIP3    H177164   2.061   6.412   2.152  0.4249  0.1507  0.1730
18583TIP3    H277165   1.988   6.471   2.034  1.4243  0.3906 -0.3335
18584TIP3   OH277166   0.277   5.525  13.767 -0.0817 -0.2596  0.2073
18584TIP3    H177167   0.286   5.615  13.798 -0.4700 -0.5914  1.3164
18584TIP3    H277168   0.205   5.529  13.704  1.8196  0.7450 -2.0747
18585TIP3   OH277169   1.398   0.216  11.601  0.5459  0.0238 -0.3798
18585TIP3    H177170   1.426   0.209  11.692  0.0411  3.4922  0.2134
18585TIP3    H277171   1.467   0.267  11.558 -0.2927  0.3834 -1.3486
18586TIP3   OH277172   3.980   0.423   0.804  0.1179  0.2276 -0.3116
18586TIP3    H177173   3.901   0.477   0.804  0.1713  0.3231 -1.5417
18586TIP3    H277174   4.024   0.446   0.886 -0.4563  1.1732 -0.2477
18587TIP3   OH277175   6.513   6.648  13.746  0.3443 -0.2136 -0.1148
18587TIP3    H177176   6.482   6.727  13.790 -1.2092  0.0932 -1.6603
18587TIP3    H277177   6.509   6.580  13.814 -0.5836  0.5463  0.6258
18588TIP3   OH277178   1.187   3.945   3.084  0.6930  0.3277 -0.1758
18588TIP3    H177179   1.120   3.903   3.138 -0.6248  1.2175 -1.0271
18588TIP3    H277180   1.210   3.879   3.019  1.2631 -0.2640  0.6065
18589TIP3   OH277181   1.574   2.003  10.947 -0.3936  0.3422  0.7255
18589TIP3    H177182   1.537   2.088  10.922  0.4899  0.5105 -0.0354
18589TIP3    H277183   1.626   2.021  11.025 -0.4786  0.4237  0.7645
18590TIP3   OH277184   1.786   1.462   4.327 -0.6413  0.5012  0.5331
18590TIP3    H177185   1.811   1.504   4.409  2.2953  0.9157 -0.4809
18590TIP3    H277186   1.824   1.374   4.332  1.8147  1.3541 -1.3256
18591TIP3   OH277187   2.200   0.881   0.105  0.1441  0.1910 -0.4099
18591TIP3    H177188   2.293   0.862   0.091  0.2233  0.1847  0.1019
18591TIP3    H277189   2.159   0.795   0.113  0.3901  0.1969  1.1936
18592TIP3   OH277190   5.328   5.424  14.746 -0.1715  0.0833  0.1519
18592TIP3    H177191   5.396   5.373  14.791  0.2292  1.6269  1.3497
18592TIP3    H277192   5.255   5.428  14.807 -0.2164  0.9021  0.0563
18593TIP3   OH277193   3.870   6.046  14.003 -0.2139  0.0902  0.3242
18593TIP3    H177194   3.808   6.047  14.076 -0.4625  0.4292  0.1100
18593TIP3    H277195   3.927   6.121  14.019 -0.3921  0.2826  0.0673
18594TIP3   OH277196   5.145   2.228   1.500  0.2310 -0.2799 -0.1163
18594TIP3    H177197   5.111   2.206   1.587  0.2133 -3.6618 -0.8356
18594TIP3    H277198   5.070   2.215   1.442  0.5444  0.8566 -0.8092
18595TIP3   OH277199   0.098   4.786   3.412 -0.0142  0.2683  0.0110
18595TIP3    H177200   0.056   4.869   3.434  1.0824  0.7084  0.5371
18595TIP3    H277201   0.189   4.810   3.395  0.8362 -1.0837  2.2333
18596TIP3   OH277202   6.086   0.277   1.588  0.3799 -0.8343  0.4079
18596TIP3    H177203   6.019   0.336   1.553  0.7637 -0.5039  0.2161
18596TIP3    H277204   6.063   0.267   1.680  0.9837  0.5950  0.7486
18597TIP3   OH277205   4.131   0.493   5.764 -0.0227  0.0142 -0.2095
18597TIP3    H177206   4.216   0.450   5.772 -0.5375 -0.8058  1.2716
18597TIP3    H277207   4.076   0.428   5.720  0.2892  0.8368 -1.8715
18598TIP3   OH277208   3.018   6.517   4.969  0.0010  0.3938 -0.2573
18598TIP3    H177209   2.924   6.517   4.984 -0.0162 -1.0490 -0.1741
18598TIP3    H277210   3.027   6.523   4.874 -0.0990  2.1728 -0.1897
18599TIP3   OH277211   4.482   3.911  10.673 -0.3302  0.0604  0.1412
18599TIP3    H177212   4.465   3.993  10.627 -0.7997 -0.1970 -0.1542
18599TIP3    H277213   4.397   3.867  10.675  0.1905 -1.0441 -0.9490
18600TIP3   OH277214   4.785   3.183  17.317 -0.8957 -0.0121 -0.2091
18600TIP3    H177215   4.702   3.230  17.314 -1.3618 -0.6537  1.6232
18600TIP3    H277216   4.813   3.189  17.408  0.6193 -0.5951 -0.6000
18601TIP3   OH277217   3.302   1.316   4.838 -0.5913  0.1314 -0.2253
18601TIP3    H177218   3.272   1.388   4.894 -0.6828 -0.3732  0.3764
18601TIP3    H277219   3.393   1.338   4.818  0.1324 -0.7337  1.8700
18602TIP3   OH277220   1.076   5.237  12.992  0.1611 -0.6682  0.1063
18602TIP3    H177221   1.158   5.198  12.961  0.5535  0.3704 -0.2184
18602TIP3    H277222   1.027   5.258  12.913  0.1481 -0.1193  0.2506
18603TIP3   OH277223   4.014   6.394  16.068  0.1191  0.1777 -0.2159
18603TIP3    H177224   3.919   6.399  16.058  0.0979 -1.1417 -0.9507
18603TIP3    H277225   4.046   6.359  15.985  1.6026  3.3054 -1.1357
18604TIP3   OH277226   1.904   0.758  11.972  0.2941 -0.1109 -0.1194
18604TIP3    H177227   1.967   0.704  11.924 -0.4369 -1.7045  0.6636
18604TIP3    H277228   1.825   0.754  11.919  0.4931  1.0378 -0.5550
18605TIP3   OH277229   4.267   1.765   0.124 -0.0593  0.7036 -0.3781
18605TIP3    H177230   4.186   1.797   0.085  0.2078  0.5943 -1.0518
18605TIP3    H277231   4.308   1.843   0.161  0.0196  0.9504 -0.9604
18606TIP3   OH277232   5.316   3.289  11.434 -0.2386 -1.0001  0.0129
18606TIP3    H177233   5.235   3.284  11.486 -1.0606  0.7633 -1.0006
18606TIP3    H277234   5.376   3.340  11.489 -1.1397  0.9443 -0.7104
18607TIP3   OH277235   1.212   2.155   4.675  0.1527 -0.0949 -0.4801
18607TIP3    H177236   1.181   2.170   4.586 -0.0401  1.4008 -0.1832
18607TIP3    H277237   1.185   2.233   4.724  1.7435 -0.1124  0.4968
18608TIP3   OH277238   6.637   4.572   5.093  0.2731  0.0144  0.5997
18608TIP3    H177239   6.600   4.484   5.107  2.2556 -1.0544 -0.3891
18608TIP3    H277240   6.665   4.601   5.179  0.2206 -0.6363  0.8417
18609TIP3   OH277241   3.909   0.390   1.220 -0.0661  0.5517 -0.0392
18609TIP3    H177242   3.968   0.450   1.173  0.3668  1.5659  1.6975
18609TIP3    H277243   3.838   0.447   1.250  0.1485  0.1555  1.2963
18610TIP3   OH277244   6.315   0.662  12.888 -0.1617 -0.6279 -0.4821
18610TIP3    H177245   6.342   0.586  12.836  0.2828  0.1163 -1.3812
18610TIP3    H277246   6.393   0.718  12.891 -0.4208 -0.2950  0.3301
18611TIP3   OH277247   5.478   6.366   4.709 -0.2489  0.1520  0.0133
18611TIP3    H177248   5.433   6.283   4.723 -0.3879  0.1147 -0.6151
18611TIP3    H277249   5.560   6.358   4.757  0.1434 -0.7025 -0.7640
18612TIP3   OH277250   2.032   4.801  15.799 -0.6175  0.2246  0.2016
18612TIP3    H177251   2.002   4.732  15.859 -0.5977 -0.1949 -0.2606
18612TIP3    H277252   1.952   4.840  15.764 -0.6378 -0.3520 -0.4172
18613TIP3   OH277253   2.637   5.229   2.452  0.4359 -0.4712  0.2181
18613TIP3    H177254   2.563   5.225   2.392 -0.2510 -1.1860  1.0903
18613TIP3    H277255   2.600   5.210   2.538  1.6178 -0.8008  0.6765
18614TIP3   OH277256   1.310   1.909   1.929  0.1267 -0.3357 -0.0784
18614TIP3    H177257   1.311   1.850   1.854 -0.0266 -1.4918  0.7933
18614TIP3    H277258   1.253   1.981   1.903 -0.6650 -1.1759 -0.7270
18615TIP3   OH277259   3.526   1.452   4.363 -0.0712  0.5372 -0.8257
18615TIP3    H177260   3.519   1.451   4.267 -1.3460 -0.2823 -0.7554
18615TIP3    H277261   3.454   1.508   4.392 -1.2005 -1.1167 -0.2934
18616TIP3   OH277262   5.926   4.278  13.499  0.3490 -0.5497 -0.6226
18616TIP3    H177263   5.881   4.307  13.420 -0.2101 -0.6629 -0.3515
18616TIP3    H277264   5.890   4.334  13.568 -0.4391 -1.6056 -0.1614
18617TIP3   OH277265   1.038   6.691   5.118  0.0032  0.7409  0.2119
18617TIP3    H177266   1.017   6.610   5.071 -3.5372  2.1235 -0.9850
18617TIP3    H277267   1.032   6.668   5.210 -1.6074 -0.3138 -0.1032
18618TIP3   OH277268   3.298   1.996  15.388 -0.4840  0.0870  0.4590
18618TIP3    H177269   3.223   1.944  15.358  0.7499 -1.2384 -0.4688
18618TIP3    H277270   3.371   1.934  15.389  0.6225  1.3419  1.3248
18619TIP3   OH277271   1.517   5.449  13.573 -0.4747 -0.4761 -0.2207
18619TIP3    H177272   1.432   5.449  13.528 -0.6549 -1.5276  0.0877
18619TIP3    H277273   1.494   5.438  13.666 -0.0084 -0.7598 -0.1353
18620TIP3   OH277274   5.082   3.679   3.624  0.7662  0.8305 -0.5132
18620TIP3    H177275   5.174   3.697   3.603  0.6586  1.5475 -0.4000
18620TIP3    H277276   5.047   3.640   3.544  1.4876 -0.6828 -0.1264
18621TIP3   OH277277   5.005   1.644  12.553 -0.6342  0.5013 -0.0778
18621TIP3    H177278   4.962   1.626  12.636 -1.3642  1.9572 -0.1218
18621TIP3    H277279   5.084   1.693  12.576 -0.0949 -0.3106 -0.1566
18622TIP3   OH277280   2.478   2.059   4.150  0.3554 -0.8685 -0.2970
18622TIP3    H177281   2.536   2.134   4.141 -0.8977  0.3359  1.1360
18622TIP3    H277282   2.498   2.023   4.236  0.0169 -1.3582 -0.4152
18623TIP3   OH277283   4.268   2.546  17.132  0.3567  0.0719 -0.4069
18623TIP3    H177284   4.258   2.636  17.163  0.0292 -0.2335  0.4302
18623TIP3    H277285   4.181   2.507  17.144  0.8196 -0.7244  0.5218
18624TIP3   OH277286   4.744   0.971   1.404 -0.1552  0.3295 -0.4432
18624TIP3    H177287   4.805   0.931   1.342 -0.2049  0.5517 -0.6370
18624TIP3    H277288   4.658   0.937   1.380 -0.0970 -0.0586 -0.1091
18625TIP3   OH277289   4.760   0.898   1.723 -0.5312  0.2178 -0.0769
18625TIP3    H177290   4.743   0.934   1.636 -0.4745  0.5791  0.0584
18625TIP3    H277291   4.745   0.804   1.713  0.1083  0.1661 -0.6327
18626TIP3   OH277292   4.908   2.922  14.956  0.0521  0.0044  0.6183
18626TIP3    H177293   4.909   2.846  14.898  0.9364 -2.3531  3.4509
18626TIP3    H277294   4.815   2.941  14.970 -0.1854 -0.6056 -0.0726
18627TIP3   OH277295   4.728   0.547  11.015  0.3151  0.0061 -0.4498
18627TIP3    H177296   4.728   0.641  11.030 -1.2252 -0.4592  3.8800
18627TIP3    H277297   4.812   0.529  10.974  1.4132  3.0468  0.2043
18628TIP3   OH277298   2.758   1.214   2.676  0.4529  0.5394  0.2676
18628TIP3    H177299   2.836   1.169   2.642 -1.1223 -2.4211  0.2146
18628TIP3    H277300   2.689   1.147   2.673 -2.0374  2.9372  0.5938
18629TIP3   OH277301   3.459   0.513   3.818  0.1847 -0.0289  0.0295
18629TIP3    H177302   3.429   0.593   3.861  0.8619  1.0641 -1.4565
18629TIP3    H277303   3.388   0.450   3.834 -0.5720  0.9761  0.8488
18630TIP3   OH277304   1.197   6.274  15.586 -0.1234  0.2582  0.6813
18630TIP3    H177305   1.243   6.330  15.649 -1.1392  1.1319  0.6768
18630TIP3    H277306   1.181   6.331  15.511 -1.0548 -0.0783  0.6151
18631TIP3   OH277307   2.990   5.109   1.759 -0.7092  0.5788  0.3558
18631TIP3    H177308   3.030   5.145   1.680  0.3013 -0.7808  0.2001
18631TIP3    H277309   2.940   5.181   1.796 -1.6570  1.1090 -1.8083
18632TIP3   OH277310   3.824   6.484  16.834  0.9430 -0.0002  0.1467
18632TIP3    H177311   3.758   6.528  16.780  0.6767  0.9312  1.1847
18632TIP3    H277312   3.787   6.485  16.922  1.4463 -1.3253  0.3910
18633TIP3   OH277313   6.016   5.906   1.480 -0.1225 -0.1601 -0.4211
18633TIP3    H177314   6.007   5.902   1.385 -0.8616 -0.5607 -0.3387
18633TIP3    H277315   6.030   5.815   1.507  0.9294  0.0435 -0.2147
18634TIP3   OH277316   1.564   3.706  12.397  0.7307 -0.3608 -0.1864
18634TIP3    H177317   1.596   3.731  12.310 -0.9823 -1.8672 -1.3306
18634TIP3    H277318   1.598   3.617  12.410  1.0965 -0.0876  0.7670
18635TIP3   OH277319   4.522   6.467   2.825  0.0641 -0.5839  0.5363
18635TIP3    H177320   4.574   6.491   2.748 -1.0067  0.5146  0.1266
18635TIP3    H277321   4.437   6.441   2.790 -0.9694  1.4355  1.3855
18636TIP3   OH277322   2.629   0.395  15.727 -0.4669 -0.2979 -0.7859
18636TIP3    H177323   2.638   0.484  15.761  2.4901  0.6147 -3.4731
18636TIP3    H277324   2.688   0.343  15.781  1.6803  0.4832 -2.2527
18637TIP3   OH277325   1.378   0.354   0.080 -0.3662 -0.1955 -0.1428
18637TIP3    H177326   1.361   0.313   0.164  0.7239  0.6627  0.5239
18637TIP3    H277327   1.373   0.282   0.017  0.3422 -1.1505  0.8508
18638TIP3   OH277328   2.875   4.467  16.192 -0.1665  0.1974 -0.2551
18638TIP3    H177329   2.917   4.551  16.211  1.0724 -0.2041 -1.0743
18638TIP3    H277330   2.940   4.401  16.220 -1.0319 -0.4869  0.1807
18639TIP3   OH277331   4.711   5.519   3.588  0.7542  0.5070 -0.5241
18639TIP3    H177332   4.710   5.612   3.564  0.5830  0.7917  0.5477
18639TIP3    H277333   4.779   5.481   3.533 -1.3770  0.5665 -3.4319
18640TIP3   OH277334   4.877   2.679   3.780 -0.1058  0.0470 -0.2024
18640TIP3    H177335   4.856   2.675   3.873  0.5662  2.0707  0.0903
18640TIP3    H277336   4.797   2.713   3.739 -1.1867 -2.8821 -0.7522
18641TIP3   OH277337   0.528   0.236   1.197  0.4968  0.3228 -0.4834
18641TIP3    H177338   0.468   0.238   1.271  0.4622  1.0664 -0.5190
18641TIP3    H277339   0.580   0.316   1.206 -0.5375  1.2476 -2.0897
18642TIP3   OH277340   0.972   5.800   5.508 -0.0081 -0.8362 -0.3029
18642TIP3    H177341   0.943   5.817   5.598 -1.8646  0.1689 -1.0492
18642TIP3    H277342   0.977   5.705   5.502 -0.6308 -0.9409  0.6229
18643TIP3   OH277343   1.220   0.599  16.734  0.1503  0.5858  0.2064
18643TIP3    H177344   1.282   0.582  16.805 -0.3296  0.4721  0.6063
18643TIP3    H277345   1.136   0.610  16.778 -0.3493 -0.5585 -0.4250
18644TIP3   OH277346   2.912   1.605   3.440 -0.2763 -0.7430  0.1066
18644TIP3    H177347   2.939   1.562   3.359  0.8035 -1.8715  1.0270
18644TIP3    H277348   2.984   1.666   3.460 -1.2597  0.6905 -0.5754
18645TIP3   OH277349   5.643   2.765   0.605  0.5757  0.1993  0.3975
18645TIP3    H177350   5.579   2.712   0.653  0.9508 -0.6385 -0.0091
18645TIP3    H277351   5.644   2.728   0.516  1.7941  0.0349  0.4586
18646TIP3   OH277352   3.691   2.120  15.390 -0.0915  0.6728 -0.1381
18646TIP3    H177353   3.777   2.159  15.374  1.0035 -1.9777 -1.2448
18646TIP3    H277354   3.688   2.106  15.485  0.9128  0.3535 -0.1400
18647TIP3   OH277355   4.301   3.263  14.549 -0.0070 -0.2109 -0.0451
18647TIP3    H177356   4.377   3.225  14.505  0.5407 -1.3155  1.7445
18647TIP3    H277357   4.299   3.220  14.634 -1.8122  0.8560  0.5025
18648TIP3   OH277358   1.915   2.733  12.080  0.5953  0.2788  0.2108
18648TIP3    H177359   1.942   2.659  12.135  1.7287  2.2003  2.4015
18648TIP3    H277360   1.821   2.721  12.068  0.0210  0.4259  3.7453
18649TIP3   OH277361   5.706   4.267  12.446  0.8490  0.1220 -0.0762
18649TIP3    H177362   5.612   4.252  12.452  0.5694  1.0050 -1.7979
18649TIP3    H277363   5.741   4.189  12.402  0.8828 -0.0207  0.1965
18650TIP3   OH277364   0.707   2.282   4.668  0.2415 -0.5035  0.2923
18650TIP3    H177365   0.692   2.248   4.756  0.0479 -1.3805 -0.0751
18650TIP3    H277366   0.779   2.229   4.634  2.1490  1.5318  0.8604
18651TIP3   OH277367   3.529   3.866  14.866 -0.2403  0.2100 -0.5397
18651TIP3    H177368   3.481   3.886  14.785  1.6818  0.6297 -1.6413
18651TIP3    H277369   3.583   3.791  14.843 -0.3945 -0.3041  0.6967
18652TIP3   OH277370   0.571   4.307   5.858 -0.1130 -0.0456  0.1152
18652TIP3    H177371   0.560   4.242   5.788 -0.1380 -2.0115  1.8680
18652TIP3    H277372   0.665   4.325   5.859  0.0890 -1.0630  0.4530
18653TIP3   OH277373   6.090   4.994   3.583  0.3869 -0.3816  0.1650
18653TIP3    H177374   6.006   5.025   3.548  0.7936  2.1881  1.2688
18653TIP3    H277375   6.077   4.991   3.678  0.6855 -2.8839  0.1873
18654TIP3   OH277376   2.905   2.559   2.659 -0.0942 -0.0784 -0.7002
18654TIP3    H177377   2.864   2.477   2.686 -1.1880  0.7801  0.4075
18654TIP3    H277378   2.902   2.559   2.564  0.3258 -1.4993 -0.7263
18655TIP3   OH277379   3.395   0.716   4.818 -0.7377  0.0937 -0.7971
18655TIP3    H177380   3.401   0.801   4.862  0.9688  0.4261 -1.5916
18655TIP3    H277381   3.443   0.728   4.736 -1.2301 -1.3879 -1.3352
18656TIP3   OH277382   4.701   5.537  15.931 -0.3367 -0.0136 -0.1898
18656TIP3    H177383   4.614   5.538  15.969 -1.0205  2.3832 -1.5694
18656TIP3    H277384   4.747   5.610  15.973  0.1651  0.2461 -1.1480
18657TIP3   OH277385   4.677   4.395   1.966  0.1303  0.6683  0.0338
18657TIP3    H177386   4.695   4.330   2.034 -1.0399 -0.7874 -0.9802
18657TIP3    H277387   4.629   4.465   2.012 -1.3061 -0.6377  0.6112
18658TIP3   OH277388   1.257   3.948  11.684  0.0039 -0.1335  0.0369
18658TIP3    H177389   1.229   3.892  11.612  0.8853  0.2640 -0.6368
18658TIP3    H277390   1.186   3.944  11.747 -0.7205 -0.6113 -0.7945
18659TIP3   OH277391   5.219   3.752  15.390  0.1865  0.3062 -0.1197
18659TIP3    H177392   5.202   3.727  15.481  0.5162 -0.6058 -0.2994
18659TIP3    H277393   5.139   3.799  15.363 -0.8887 -1.4200 -0.0720
18660TIP3   OH277394   3.142   2.945   0.017 -0.1803  0.1748 -0.5229
18660TIP3    H177395   3.215   2.997   0.048 -0.0654  0.0844 -0.6427
18660TIP3    H277396   3.165   2.921  -0.073 -1.2160  1.7704 -1.2666
18661TIP3   OH277397   5.053   3.707   4.825  0.3839 -0.0377 -0.1729
18661TIP3    H177398   5.033   3.794   4.860 -2.0063 -0.6047  0.0150
18661TIP3    H277399   5.087   3.659   4.900 -2.8755 -0.6504  1.0667
18662TIP3   OH277400   4.171   5.695   5.180  0.3674  0.2339  0.0406
18662TIP3    H177401   4.261   5.719   5.160 -0.2029  1.6504 -1.0244
18662TIP3    H277402   4.140   5.652   5.100  0.2558 -0.7683  0.6090
18663TIP3   OH277403   6.403   1.825  16.284  0.1836  0.0180  0.5078
18663TIP3    H177404   6.421   1.765  16.357 -1.6749 -0.7090  0.4054
18663TIP3    H277405   6.366   1.769  16.216 -1.3276  1.2093  0.2965
18664TIP3   OH277406   0.752   3.863  13.863  0.9430 -0.2345 -0.7862
18664TIP3    H177407   0.709   3.779  13.877 -1.0282  0.5442 -1.8059
18664TIP3    H277408   0.727   3.889  13.775  1.7635  1.2886 -0.6076
18665TIP3   OH277409   4.689   6.370  13.746  0.1081 -0.1065 -0.6429
18665TIP3    H177410   4.736   6.287  13.743 -1.7544 -1.2906  0.6080
18665TIP3    H277411   4.609   6.351  13.794  0.3993  2.8395  1.2772
18666TIP3   OH277412   3.774   5.266  15.208  0.3748 -0.2381 -0.5403
18666TIP3    H177413   3.727   5.212  15.144 -0.4586 -0.2699  0.0800
18666TIP3    H277414   3.822   5.202  15.261  0.0215 -0.3062 -0.3051
18667TIP3   OH277415   6.498   1.161   4.341 -0.4671  0.0135 -0.1194
18667TIP3    H177416   6.554   1.117   4.405 -1.1549  0.9132  1.1746
18667TIP3    H277417   6.419   1.107   4.337  0.2846 -1.0506 -1.6608
18668TIP3   OH277418   4.215   0.255   4.638  0.0832 -0.3139 -0.1232
18668TIP3    H177419   4.201   0.250   4.543 -1.2415  1.5716 -0.0869
18668TIP3    H277420   4.265   0.335   4.650 -2.8893  1.5571  0.9557
18669TIP3   OH277421   5.218   1.726  14.928  0.3225 -0.3540  0.4993
18669TIP3    H177422   5.193   1.663  14.861  1.4033  0.2944 -0.5506
18669TIP3    H277423   5.311   1.743  14.911  0.7636 -0.5301  2.4601
18670TIP3   OH277424   1.905   3.838  12.883 -0.2202  0.4289  0.4591
18670TIP3    H177425   1.825   3.842  12.935 -1.4609  0.8663 -1.3823
18670TIP3    H277426   1.967   3.789  12.938 -2.6548 -2.5933  0.8109
18671TIP3   OH277427   4.144   4.842  15.449  0.0956 -0.1154  0.4833
18671TIP3    H177428   4.216   4.862  15.388  1.4492 -0.6271  1.8646
18671TIP3    H277429   4.174   4.874  15.533 -0.7870 -1.3885  1.3234
18672TIP3   OH277430   2.128   0.876   3.043  0.0873  0.3146  0.2011
18672TIP3    H177431   2.194   0.926   2.996 -0.4784 -1.0632 -2.2281
18672TIP3    H277432   2.064   0.942   3.072 -0.1541  1.1694 -2.0746
18673TIP3   OH277433   4.490   1.210   4.739 -0.3156  0.0070 -0.0756
18673TIP3    H177434   4.539   1.291   4.727  0.3609 -0.4745 -0.6945
18673TIP3    H277435   4.477   1.204   4.834 -2.5075  2.0292 -0.1558
18674TIP3   OH277436   1.086   6.694   4.307  0.3844  0.1787  0.3598
18674TIP3    H177437   1.105   6.772   4.255 -0.6779 -1.0002 -1.9526
18674TIP3    H277438   1.171   6.665   4.340  1.9114 -1.2099 -4.0855
18675TIP3   OH277439   3.459   5.746  11.505  0.3998  0.2824  0.3884
18675TIP3    H177440   3.533   5.749  11.445  0.5526 -1.4175  0.4317
18675TIP3    H277441   3.387   5.785  11.456  0.9000  0.3296 -0.3240
18676TIP3   OH277442   3.730   4.364   2.747 -0.4684  0.1551 -0.2485
18676TIP3    H177443   3.726   4.270   2.732  1.7242 -0.2857  1.4327
18676TIP3    H277444   3.806   4.393   2.695 -1.8627  1.2861 -1.7752
18677TIP3   OH277445   4.907   5.824  16.458 -0.4464  0.2481  0.7621
18677TIP3    H177446   4.996   5.860  16.457 -0.3749  0.1309  1.8231
18677TIP3    H277447   4.919   5.732  16.482 -0.8380  0.1790  0.6900
18678TIP3   OH277448   2.758   2.410   1.312  0.1694  0.6263 -0.1705
18678TIP3    H177449   2.840   2.436   1.270 -0.0917 -0.0430 -1.1206
18678TIP3    H277450   2.716   2.493   1.334  0.5244  0.9916 -0.8308
18679TIP3   OH277451   3.728   1.441   0.059 -0.1981 -0.1559  0.5493
18679TIP3    H177452   3.816   1.433   0.097 -0.4501 -1.2324  0.9232
18679TIP3    H277453   3.669   1.440   0.134 -0.5527  0.3179  0.2835
18680TIP3   OH277454   0.552   1.808   1.439  0.1544 -0.2581  0.2014
18680TIP3    H177455   0.643   1.805   1.410 -0.1992 -1.3572 -0.8810
18680TIP3    H277456   0.533   1.901   1.447  0.9878  0.0203 -0.8424
18681TIP3   OH277457   2.341   6.591   4.127  0.5275 -0.3622 -0.8486
18681TIP3    H177458   2.361   6.501   4.103 -0.8600 -0.8917 -0.1144
18681TIP3    H277459   2.345   6.593   4.223  0.1301  0.2371 -0.8338
18682TIP3   OH277460   5.320   1.063   1.346 -0.1078 -0.2104 -0.4231
18682TIP3    H177461   5.382   1.001   1.384 -1.6154 -2.5577 -1.5756
18682TIP3    H277462   5.236   1.039   1.384 -0.4329  3.0783  1.3055
18683TIP3   OH277463   2.100   5.563   3.358 -0.5421  0.0704  0.1439
18683TIP3    H177464   2.062   5.596   3.439  0.4414  0.7816  0.3330
18683TIP3    H277465   2.076   5.470   3.356 -1.5904  0.3217  0.6333
18684TIP3   OH277466   5.044   5.467   4.703 -0.1808 -0.4884 -0.2336
18684TIP3    H177467   5.038   5.380   4.742 -1.2672 -0.2565  0.1448
18684TIP3    H277468   4.997   5.524   4.763 -1.4343 -0.0286 -1.5849
18685TIP3   OH277469   4.996   2.765   4.730  0.1048 -0.0052  0.1028
18685TIP3    H177470   5.019   2.804   4.645 -1.5056  0.6969 -0.0442
18685TIP3    H277471   5.050   2.814   4.793  0.8814 -0.1369 -0.4393
18686TIP3   OH277472   0.130   6.421   0.173 -0.1988 -0.3542  0.1934
18686TIP3    H177473   0.170   6.337   0.197  0.5403 -0.1775 -0.3769
18686TIP3    H277474   0.193   6.461   0.113  0.2386  1.3426  1.7114
18687TIP3   OH277475   6.021   0.171  13.262 -0.1655  0.1844  0.5514
18687TIP3    H177476   5.944   0.205  13.217 -1.2145 -1.7886  0.7481
18687TIP3    H277477   6.047   0.242  13.321  0.5046  2.3583 -2.1563
18688TIP3   OH277478   6.663   6.146   0.000  0.7537  0.4329  0.1303
18688TIP3    H177479   6.735   6.124  -0.058 -2.1039 -1.1131 -3.2001
18688TIP3    H277480   6.646   6.065   0.049  0.2430  0.2197 -0.3833
18689TIP3   OH277481   4.173   6.610   6.131  0.0265  0.1942  0.0282
18689TIP3    H177482   4.098   6.631   6.075 -2.2017  0.1183  2.7395
18689TIP3    H277483   4.159   6.662   6.210  2.6257 -0.2035  0.8556
18690TIP3   OH277484   1.162   1.156  11.585 -0.3008 -0.7245 -0.5734
18690TIP3    H177485   1.169   1.137  11.679  0.8356  0.3042 -0.4213
18690TIP3    H277486   1.131   1.074  11.547  0.9379 -1.7453  0.4926
18691TIP3   OH277487   1.049   2.979  11.223 -0.4574 -0.6975 -0.7110
18691TIP3    H177488   1.048   3.074  11.232 -1.3796 -0.8372  1.2801
18691TIP3    H277489   1.140   2.958  11.203 -0.3329  0.6228 -1.6271
18692TIP3   OH277490   0.757   0.785   5.353  0.1861  0.0409 -0.1695
18692TIP3    H177491   0.793   0.873   5.341  0.7956 -0.0954  0.5916
18692TIP3    H277492   0.820   0.728   5.309 -0.4544  0.0108 -1.0783
18693TIP3   OH277493   4.581   3.523  15.344 -0.7084 -0.1249  0.2186
18693TIP3    H177494   4.550   3.511  15.434  1.4475  1.2288  1.2478
18693TIP3    H277495   4.658   3.466  15.338  0.1729  1.0501 -0.1463
18694TIP3   OH277496   3.981   4.817  10.874 -0.0662  0.0114  0.0258
18694TIP3    H177497   3.900   4.853  10.838  0.3269  0.3182 -0.5836
18694TIP3    H277498   4.048   4.882  10.851  0.5368 -0.7511 -0.4589
18695TIP3   OH277499   4.545   4.643   5.927  0.7466  0.2949  0.3430
18695TIP3    H177500   4.631   4.686   5.923  0.8354  0.0267 -1.0283
18695TIP3    H277501   4.493   4.700   5.984  0.9818  2.0667 -1.0943
18696TIP3   OH277502   2.023   1.141  13.867  0.3772 -0.3422 -0.8179
18696TIP3    H177503   2.072   1.168  13.944 -1.2291 -0.3738  0.2626
18696TIP3    H277504   2.034   1.046  13.863  2.4009 -0.1129 -2.0558
18697TIP3   OH277505   3.070   5.569   5.442  0.1626 -0.1311 -0.0649
18697TIP3    H177506   3.152   5.562   5.393 -0.3016  0.3050 -0.9318
18697TIP3    H277507   3.076   5.500   5.509  1.3646  0.1090  0.0941
18698TIP3   OH277508   6.098   4.534  13.846  0.3207  0.1238 -0.1579
18698TIP3    H177509   6.087   4.626  13.869  2.5744  1.0852 -2.3781
18698TIP3    H277510   6.164   4.535  13.777  1.8134 -3.3169  0.9830
18699TIP3   OH277511   2.005   6.399  14.684 -0.1080 -0.3636  0.1960
18699TIP3    H177512   2.078   6.438  14.732  1.1085 -1.1338 -0.9469
18699TIP3    H277513   1.930   6.454  14.705  0.7473  0.3352  1.5805
18700TIP3   OH277514   4.098   5.222   5.754 -0.8160  0.2539  0.1805
18700TIP3    H177515   4.118   5.134   5.721 -0.2831  1.0251 -1.7571
18700TIP3    H277516   4.012   5.242   5.718  0.6167  1.8914 -2.6981
18701TIP3   OH277517   1.535   5.834   2.615  1.0189  0.4620 -0.1819
18701TIP3    H177518   1.601   5.899   2.642 -0.4492  0.6971  3.4205
18701TIP3    H277519   1.573   5.750   2.641  0.0009  0.6117  2.0713
18702TIP3   OH277520   1.060   6.070   5.069  0.4008  0.6109 -0.0668
18702TIP3    H177521   1.110   6.077   5.151  2.2131 -0.3907 -1.0247
18702TIP3    H277522   1.100   6.135   5.011  2.2651 -1.6996 -1.5930
18703TIP3   OH277523   6.623   4.730  17.314  0.3901  0.2111 -0.1715
18703TIP3    H177524   6.616   4.659  17.250 -0.4281  0.9368 -0.8962
18703TIP3    H277525   6.538   4.773  17.312  0.5064  0.5334  1.0790
18704TIP3   OH277526   1.873   4.245  10.808 -0.2744 -0.2999 -0.0607
18704TIP3    H177527   1.927   4.235  10.886 -1.7103 -0.3946  0.9474
18704TIP3    H277528   1.791   4.201  10.829 -2.0011  2.5034 -0.2861
18705TIP3   OH277529   5.172   0.766   1.740  0.0646 -0.0743 -0.0754
18705TIP3    H177530   5.091   0.775   1.690 -0.6533 -2.1238  0.6087
18705TIP3    H277531   5.160   0.823   1.816 -1.1732 -1.0360  0.4890
18706TIP3   OH277532   6.152   4.600   5.044 -0.1394 -0.0633 -0.5327
18706TIP3    H177533   6.220   4.664   5.067 -0.0500 -1.1610  2.8202
18706TIP3    H277534   6.071   4.651   5.043  0.2883  0.6341 -1.1431
18707TIP3   OH277535   2.013   2.015  15.610 -0.1038  0.5309 -0.0409
18707TIP3    H177536   1.935   2.048  15.656  0.3570 -0.3372  1.4119
18707TIP3    H277537   1.995   1.923  15.595  0.7843  0.2335  0.6450
18708TIP3   OH277538   3.058   1.210  11.902  1.0156 -0.0696 -0.5585
18708TIP3    H177539   3.037   1.300  11.878  1.8282  0.3294  0.1518
18708TIP3    H277540   3.041   1.159  11.822 -1.8506  0.2762 -0.2748
18709TIP3   OH277541   5.354   1.764   3.114 -0.0900  0.0158 -0.2286
18709TIP3    H177542   5.431   1.802   3.156  0.1210 -0.1726 -0.4413
18709TIP3    H277543   5.366   1.782   3.021  0.4066 -1.2505 -0.4217
18710TIP3   OH277544   5.294   5.340   5.091  0.0386  0.3255  0.2499
18710TIP3    H177545   5.362   5.380   5.037  0.7411 -0.5748  0.4334
18710TIP3    H277546   5.314   5.369   5.180  0.9208 -0.8638  0.4721
18711TIP3   OH277547   0.590   1.800  12.481  0.2076 -0.1935 -0.9291
18711TIP3    H177548   0.589   1.778  12.575  0.7433  1.7834 -0.3939
18711TIP3    H277549   0.504   1.775  12.449  0.7223 -2.8349 -0.4306
18712TIP3   OH277550   0.291   3.285  16.971  0.0410 -0.2382 -0.3525
18712TIP3    H177551   0.240   3.209  16.998 -0.1599 -0.3320 -0.9876
18712TIP3    H277552   0.357   3.249  16.912  0.2856  0.0091 -0.2331
18713TIP3   OH277553   4.419   0.739   3.165  0.3683 -0.3124 -0.5539
18713TIP3    H177554   4.353   0.689   3.213  1.3267 -0.4363  0.7059
18713TIP3    H277555   4.372   0.816   3.133 -0.1025  0.3881  1.6300
18714TIP3   OH277556   5.792   6.626   0.362 -0.2735  0.4999 -0.3741
18714TIP3    H177557   5.846   6.702   0.380  0.4852 -0.2316  0.5433
18714TIP3    H277558   5.760   6.640   0.273 -0.4534  2.0549 -0.0852
18715TIP3   OH277559   3.827   6.003  15.898  0.0012  0.3856  0.3068
18715TIP3    H177560   3.762   6.037  15.836  1.4713  3.1087  0.1103
18715TIP3    H277561   3.775   5.960  15.965 -2.0569  2.3571  0.1106
18716TIP3   OH277562   5.932   6.263  11.143 -0.1621  0.2895  0.1097
18716TIP3    H177563   5.905   6.193  11.082 -0.2128  0.2696  0.1544
18716TIP3    H277564   5.854   6.280  11.195  0.4960 -1.2580  1.6883
18717TIP3   OH277565   2.515   2.381  16.929  0.0460  0.6695  0.0813
18717TIP3    H177566   2.523   2.411  17.020 -1.6573 -0.2567  0.5878
18717TIP3    H277567   2.599   2.338  16.911  1.6940  3.6620  0.0516
18718TIP3   OH277568   5.060   6.055  11.520  0.1500  0.8440  0.4417
18718TIP3    H177569   5.128   6.103  11.474  0.4904  0.3690  0.4427
18718TIP3    H277570   5.082   5.963  11.507  0.6187  0.6935  2.0785
18719TIP3   OH277571   0.622   6.481  14.485  0.4481  0.5053  0.2738
18719TIP3    H177572   0.610   6.442  14.399  0.0354 -2.4574  1.5622
18719TIP3    H277573   0.707   6.448  14.515 -0.1139  0.1991  1.6029
18720TIP3   OH277574   3.323   4.141  13.486 -0.7210  0.0956  0.5267
18720TIP3    H177575   3.284   4.058  13.459  0.0192  0.0437 -0.4512
18720TIP3    H277576   3.392   4.116  13.548  0.0590 -0.1175 -0.3939
18721TIP3   OH277577   5.990   0.452  12.586  0.1206  0.1734 -0.1679
18721TIP3    H177578   5.935   0.377  12.565 -0.2448 -0.0861  1.5349
18721TIP3    H277579   5.980   0.511  12.512  0.7056 -1.5767 -1.7414
18722TIP3   OH277580   4.129   0.362   3.487  0.2766  0.4680  0.3531
18722TIP3    H177581   4.153   0.288   3.432  1.5778 -0.7316  2.4266
18722TIP3    H277582   4.033   0.368   3.478  0.3493 -0.2840 -1.2297
18723TIP3   OH277583   5.717   1.355   2.612  0.6486  0.2102 -0.1688
18723TIP3    H177584   5.685   1.300   2.540  1.0436 -0.3744  0.0964
18723TIP3    H277585   5.688   1.309   2.691  0.7420  0.5311  0.0527
18724TIP3   OH277586   4.986   6.167   4.388  0.0750 -0.1178  0.3679
18724TIP3    H177587   4.986   6.138   4.297 -2.2218  2.5249 -0.6359
18724TIP3    H277588   4.927   6.106   4.432 -0.0480 -0.4857 -0.2812
18725TIP3   OH277589   1.667   0.218   3.546  0.1570 -0.0653 -0.1774
18725TIP3    H177590   1.667   0.312   3.529  0.8411 -0.2589 -1.3514
18725TIP3    H277591   1.690   0.210   3.638  0.8994  0.8868 -0.2682
18726TIP3   OH277592   5.736   2.618   4.597  0.0884  0.0704 -0.0576
18726TIP3    H177593   5.759   2.561   4.670 -1.6887 -1.3029 -0.4968
18726TIP3    H277594   5.640   2.620   4.597  0.0725  1.6125 -1.1838
18727TIP3   OH277595   3.639   4.440   1.952  0.0019  0.4993  0.0040
18727TIP3    H177596   3.655   4.408   2.040 -3.4987 -0.0726  0.5341
18727TIP3    H277597   3.662   4.367   1.895  0.7010  0.2952  0.5372
18728TIP3   OH277598   6.035   5.010  12.016 -0.4559 -0.2484 -0.1892
18728TIP3    H177599   6.098   5.050  12.076 -1.8384  0.1856  1.0366
18728TIP3    H277600   6.046   4.915  12.029  0.6437 -0.2158 -0.7718
18729TIP3   OH277601   0.135   1.195   3.660  0.0317 -0.5213 -0.1208
18729TIP3    H177602   0.146   1.290   3.657 -0.7498 -0.4357 -1.4359
18729TIP3    H277603   0.187   1.162   3.586 -1.3718 -0.8871 -0.9939
18730TIP3   OH277604   2.371   1.371   4.945  0.1314  0.4762 -0.6828
18730TIP3    H177605   2.401   1.297   4.999  0.4154  0.6292 -0.6252
18730TIP3    H277606   2.316   1.331   4.878 -2.4042  0.5313  1.2263
18731TIP3   OH277607   4.221   2.578  16.144  0.7769 -0.2918 -0.0416
18731TIP3    H177608   4.239   2.655  16.199  0.8850 -1.1665  1.1867
18731TIP3    H277609   4.268   2.596  16.063 -0.1782  1.4879 -0.2620
18732TIP3   OH277610   4.018   3.289  15.804  0.7683  0.0751  0.2688
18732TIP3    H177611   4.090   3.256  15.857  2.3794  2.1879 -0.4667
18732TIP3    H277612   4.047   3.376  15.775 -1.4137  0.3461 -1.3759
18733TIP3   OH277613   5.172   1.951   1.975  0.7994  0.7898  0.3437
18733TIP3    H177614   5.266   1.959   1.994  0.8367  1.8061 -0.2287
18733TIP3    H277615   5.161   1.996   1.891  0.2940 -1.8371 -1.1180
18734TIP3   OH277616   2.503   2.659  13.340  0.3950 -0.5727 -0.3567
18734TIP3    H177617   2.410   2.646  13.360 -0.1540  1.1864 -1.5456
18734TIP3    H277618   2.515   2.620  13.254  0.6972 -0.5048 -0.3467
18735TIP3   OH277619   2.508   6.443  13.140  0.3979  0.6345 -0.1335
18735TIP3    H177620   2.530   6.536  13.148 -0.9369  1.1976 -2.0937
18735TIP3    H277621   2.418   6.437  13.172  0.6363 -0.0874  0.4239
18736TIP3   OH277622   1.574   4.715  17.153  0.1751  0.8619  0.1899
18736TIP3    H177623   1.514   4.648  17.120 -1.4747  2.0050  0.7069
18736TIP3    H277624   1.658   4.671  17.161 -0.1927 -0.4063 -2.0743
18737TIP3   OH277625   0.498   2.956   1.741 -0.4237  0.3801 -0.3448
18737TIP3    H177626   0.577   2.937   1.792 -1.2983  0.7322  1.2012
18737TIP3    H277627   0.499   3.051   1.730 -0.5226  0.3609 -0.5128
18738TIP3   OH277628   3.667   2.166   1.816 -0.6697 -0.2778  0.3240
18738TIP3    H177629   3.625   2.243   1.778 -0.1384 -0.1530 -0.0155
18738TIP3    H277630   3.751   2.197   1.850 -0.4947 -0.6847  0.2792
18739TIP3   OH277631   5.971   1.888   5.504  0.1014 -0.2646  0.0493
18739TIP3    H177632   6.017   1.946   5.565 -0.7816  0.2428  0.2392
18739TIP3    H277633   5.951   1.811   5.556 -1.4249  0.5245  0.6724
18740TIP3   OH277634   4.588   5.064   2.279 -0.4877 -0.1246 -0.8709
18740TIP3    H177635   4.567   5.060   2.372  0.5577 -0.2751 -0.6309
18740TIP3    H277636   4.601   5.157   2.262 -2.2262  0.0945 -1.2503
18741TIP3   OH277637   1.270   4.278  17.321 -0.0004  0.7681  0.2216
18741TIP3    H177638   1.326   4.277  17.398 -0.0254 -0.6401  0.2408
18741TIP3    H277639   1.248   4.186  17.305 -2.5500  1.2537  0.4020
18742TIP3   OH277640   4.073   4.563  16.433 -0.2197  0.4486  0.1738
18742TIP3    H177641   4.065   4.564  16.529 -0.6954  0.4231  0.1374
18742TIP3    H277642   4.000   4.509  16.404  1.0796 -1.2521 -0.1074
18743TIP3   OH277643   3.274   2.276   2.499 -0.0146 -0.6363  0.2848
18743TIP3    H177644   3.338   2.302   2.565  0.7269  0.3957 -0.8007
18743TIP3    H277645   3.325   2.263   2.419 -1.1210  0.0552 -0.5686
18744TIP3   OH277646   3.653   3.087  13.126  0.1780  0.9731  0.4774
18744TIP3    H177647   3.566   3.091  13.086  0.6809  0.0543 -0.7973
18744TIP3    H277648   3.685   3.177  13.124 -0.5693  1.2480  0.5738
18745TIP3   OH277649   5.994   6.227   1.233  0.0184 -0.3794  0.4344
18745TIP3    H177650   5.948   6.309   1.253  0.7159  0.2970 -0.6742
18745TIP3    H277651   6.086   6.252   1.226  0.7038 -1.8192  3.1629
18746TIP3   OH277652   4.020   0.076  14.655 -0.5348 -0.7169  0.3740
18746TIP3    H177653   4.025   0.092  14.750 -0.0732  0.6768  0.1379
18746TIP3    H277654   3.956   0.139  14.624 -2.3151 -2.5873  0.0066
18747TIP3   OH277655   0.245   1.354  14.495 -0.2191 -0.0017  0.4185
18747TIP3    H177656   0.226   1.375  14.403 -1.1941  0.5091  0.7178
18747TIP3    H277657   0.159   1.338  14.534  0.2431 -1.0033  1.0645
18748TIP3   OH277658   3.755   2.540  15.232 -0.2994 -0.3188 -0.1949
18748TIP3    H177659   3.677   2.501  15.192  1.0357 -0.0721 -3.3355
18748TIP3    H277660   3.807   2.465  15.261 -0.5389 -0.6332 -0.5604
18749TIP3   OH277661   4.143   4.858  16.899  0.2687 -0.3782  0.1439
18749TIP3    H177662   4.107   4.778  16.936 -0.8010 -0.3006 -0.6676
18749TIP3    H277663   4.202   4.892  16.967  0.5291 -1.6929  0.6002
18750TIP3   OH277664   2.571   5.633   2.255 -0.2897  0.3249  0.3648
18750TIP3    H177665   2.624   5.647   2.177 -2.3108 -2.9528 -1.8446
18750TIP3    H277666   2.493   5.688   2.242 -0.7431 -0.4119 -0.1161
18751TIP3   OH277667   1.714   5.448   1.152 -0.5371  0.1694 -0.0468
18751TIP3    H177668   1.689   5.417   1.239 -0.2874  0.2437  0.0522
18751TIP3    H277669   1.810   5.451   1.154 -0.5084 -0.2871 -0.4786
18752TIP3   OH277670   0.605   4.418  15.768 -0.7125  0.6552  0.5174
18752TIP3    H177671   0.579   4.335  15.729 -0.3837  1.4270 -1.5028
18752TIP3    H277672   0.637   4.470  15.694 -1.2048  2.6931  1.6453
18753TIP3   OH277673   1.752   4.410  16.029 -0.3137  0.4089  0.2197
18753TIP3    H177674   1.736   4.333  15.974  3.0009  0.5465 -1.1747
18753TIP3    H277675   1.804   4.377  16.102  3.5405  1.4596 -1.7639
18754TIP3   OH277676   3.248   4.863  12.104 -0.1366  0.2903  0.4327
18754TIP3    H177677   3.327   4.902  12.069  0.5603 -0.2651  1.3405
18754TIP3    H277678   3.219   4.922  12.173  0.0924 -0.0378  0.8159
18755TIP3   OH277679   0.941   6.738  17.202  0.5986  0.7452  0.2368
18755TIP3    H177680   0.945   6.803  17.273  2.7293  0.0228  0.8621
18755TIP3    H277681   0.979   6.659  17.240  0.3672 -0.1419 -1.2801
18756TIP3   OH277682   5.685   5.088   2.425 -0.0694 -0.2317 -0.2004
18756TIP3    H177683   5.721   5.000   2.417  1.6512  0.2347  1.6111
18756TIP3    H277684   5.743   5.132   2.488 -2.2341  1.4611  0.7466
18757TIP3   OH277685   4.278   4.038  10.931 -0.2073  0.0583 -0.1749
18757TIP3    H177686   4.298   4.083  10.849  0.4695 -1.1619 -0.6993
18757TIP3    H277687   4.363   4.018  10.970 -0.4691 -0.9211 -0.0617
18758TIP3   OH277688   2.594   3.793   5.593 -0.1080  0.1492  0.4487
18758TIP3    H177689   2.547   3.798   5.510  1.2810  0.0340 -0.3840
18758TIP3    H277690   2.676   3.839   5.577 -0.3146  1.1956  2.1515
18759TIP3   OH277691   3.879   4.034  14.951  0.3383 -0.6090 -0.1019
18759TIP3    H177692   3.956   4.018  14.897  0.5583 -1.2296  0.3842
18759TIP3    H277693   3.825   4.093  14.899 -0.7969 -3.3710 -2.3051
18760TIP3   OH277694   5.061   1.507  14.252  0.4576  1.3069  0.0389
18760TIP3    H177695   4.981   1.476  14.293  0.4185  1.0276 -0.2436
18760TIP3    H277696   5.131   1.474  14.307  0.4926 -0.5381 -1.0220
18761TIP3   OH277697   5.997   0.722  13.613 -0.3747 -0.5911  0.9836
18761TIP3    H177698   5.951   0.744  13.694 -1.5595 -0.5143  0.3126
18761TIP3    H277699   5.928   0.691  13.554  0.5097 -0.9297  0.0997
18762TIP3   OH277700   5.387   1.488  15.048 -0.1285  0.2440 -0.5951
18762TIP3    H177701   5.318   1.424  15.064  0.5594 -0.7539 -1.4666
18762TIP3    H277702   5.427   1.461  14.965  0.2616  1.7446 -0.9337
18763TIP3   OH277703   6.034   3.392  10.811  0.0257 -0.0450 -0.1253
18763TIP3    H177704   5.992   3.380  10.896  1.6017 -1.8891  0.4673
18763TIP3    H277705   5.962   3.388  10.748 -1.2783  2.1871  1.1112
18764TIP3   OH277706   4.883   6.374   3.026  0.5060 -0.3542 -0.1237
18764TIP3    H177707   4.846   6.323   3.099 -1.3543  2.8497  1.3810
18764TIP3    H277708   4.964   6.410   3.062 -0.8516  1.9516  0.8388
18765TIP3   OH277709   0.392   3.848   0.181  1.1370  0.3110  0.2283
18765TIP3    H177710   0.367   3.906   0.253  1.7770 -0.5099  1.1377
18765TIP3    H277711   0.450   3.784   0.221  0.5090 -0.9258 -0.7682
18766TIP3   OH277712   0.044   3.494   6.672  0.0038 -0.1368 -0.4056
18766TIP3    H177713  -0.002   3.492   6.588 -2.0099 -0.7534  0.6454
18766TIP3    H277714  -0.025   3.479   6.737  1.8546 -2.1736  1.2281
18767TIP3   OH277715   1.458   2.148  12.936 -0.1882 -0.4550  0.1004
18767TIP3    H177716   1.470   2.060  12.971 -1.5557 -0.7683 -0.1594
18767TIP3    H277717   1.366   2.151  12.909 -0.6803  1.6383  1.7315
18768TIP3   OH277718   4.840   1.397  14.363 -0.1070 -0.6237 -0.3795
18768TIP3    H177719   4.802   1.309  14.371  0.2557 -0.6061  2.0617
18768TIP3    H277720   4.890   1.410  14.444  1.3907  1.1338 -1.4916
18769TIP3   OH277721   3.866   3.134   4.064 -0.1358 -0.6259 -0.5532
18769TIP3    H177722   3.858   3.229   4.076 -1.3931 -0.8960  1.0091
18769TIP3    H277723   3.934   3.125   3.996 -0.3084  1.3836 -1.0785
18770TIP3   OH277724   1.095   1.963   4.945  0.3595  0.2813 -0.6234
18770TIP3    H177725   1.106   2.054   4.919  1.5749  0.1594 -0.6088
18770TIP3    H277726   1.147   1.914   4.881  0.1361 -0.3533 -0.3242
18771TIP3   OH277727   6.055   4.452   4.520  0.9246 -0.3597 -0.2586
18771TIP3    H177728   6.044   4.541   4.553 -0.9353 -1.5742  2.8924
18771TIP3    H277729   6.119   4.412   4.580  0.1427 -1.6914 -0.2587
18772TIP3   OH277730   2.555   2.338   5.291  0.6887 -0.2826 -0.5817
18772TIP3    H177731   2.516   2.408   5.343  1.7803  0.7964 -1.1794
18772TIP3    H277732   2.556   2.372   5.201 -1.8467 -2.3911 -1.5304
18773TIP3   OH277733   6.245   3.978   5.776  0.2346 -0.2394  0.2234
18773TIP3    H177734   6.197   4.041   5.722 -0.0169  2.0231  2.8854
18773TIP3    H277735   6.179   3.917   5.808  0.3629 -1.5152 -1.7072
18774TIP3   OH277736   1.995   1.842   0.789  0.0933  0.0916  0.3505
18774TIP3    H177737   2.088   1.845   0.767 -0.0788 -1.3657 -0.7460
18774TIP3    H277738   1.958   1.918   0.746  0.6540  0.2541  0.1432
18775TIP3   OH277739   6.445   6.653   0.240  0.0031 -0.2202  0.4657
18775TIP3    H177740   6.502   6.704   0.298  0.5894  0.3858 -0.6230
18775TIP3    H277741   6.502   6.625   0.168 -0.5217 -1.6519  0.5605
18776TIP3   OH277742   2.650   2.511  16.437 -0.2951  0.0132 -0.3738
18776TIP3    H177743   2.617   2.571  16.504 -0.5311 -0.7844  0.2550
18776TIP3    H277744   2.744   2.508  16.452 -0.3480 -0.1760 -0.0395
18777TIP3   OH277745   3.678   3.483   2.423 -0.0044  0.1794 -0.2281
18777TIP3    H177746   3.722   3.463   2.505  1.5849  3.3037 -0.1783
18777TIP3    H277747   3.603   3.423   2.421 -0.6074  0.5315  3.9066
18778TIP3   OH277748   1.527   1.162  12.500  0.2618 -0.3796  0.0635
18778TIP3    H177749   1.585   1.203  12.437  0.6297 -2.0177 -0.7060
18778TIP3    H277750   1.460   1.118  12.447  0.0339 -0.9851  0.8291
18779TIP3   OH277751   5.927   3.335  11.082 -0.2410  0.0085  0.0701
18779TIP3    H177752   5.875   3.255  11.092 -0.8971  0.2652 -1.1695
18779TIP3    H277753   5.863   3.405  11.071  0.3410  0.4470 -0.6704
18780TIP3   OH277754   5.327   4.054   1.676 -1.0663  0.7785 -0.4342
18780TIP3    H177755   5.265   4.016   1.614 -1.5563  0.4401  0.2516
18780TIP3    H277756   5.318   4.001   1.755 -1.2012  1.8293  0.2840
18781TIP3   OH277757   5.161   1.745   5.403  0.1127 -0.0694 -0.2071
18781TIP3    H177758   5.154   1.652   5.425 -1.9282  0.1277  0.1470
18781TIP3    H277759   5.128   1.791   5.481 -2.8655  0.7853 -1.7948
18782TIP3   OH277760   3.742   2.495  14.289 -0.3208 -0.2612  1.1294
18782TIP3    H177761   3.761   2.418  14.235 -0.3162 -0.5030  1.4715
18782TIP3    H277762   3.824   2.513  14.335 -0.0419  0.5189  0.3525
18783TIP3   OH277763   4.306   0.257  12.096  0.1868  0.2818 -0.2033
18783TIP3    H177764   4.362   0.205  12.155 -0.9258  0.2345  0.8600
18783TIP3    H277765   4.217   0.228  12.116 -0.3979  1.9358 -0.2429
18784TIP3   OH277766   3.235   3.493  12.303  0.1817  0.1985  0.3724
18784TIP3    H177767   3.165   3.500  12.239 -1.1540  0.7367  1.8362
18784TIP3    H277768   3.300   3.436  12.262 -2.0063 -1.9977 -0.2587
18785TIP3   OH277769   2.530   3.001   5.077  0.2979 -0.1354 -0.4035
18785TIP3    H177770   2.481   2.969   5.153  0.8555 -1.3931 -0.5462
18785TIP3    H277771   2.494   2.950   5.003  2.6019 -1.9932 -0.3389
18786TIP3   OH277772   0.195   2.734   0.050 -0.4815  0.0173 -0.2758
18786TIP3    H177773   0.177   2.779   0.132 -1.5240  0.7432 -0.8897
18786TIP3    H277774   0.109   2.709   0.016 -0.0048 -1.1484 -0.6715
18787TIP3   OH277775   4.417   1.169  10.726  0.1068 -0.4190 -0.0519
18787TIP3    H177776   4.333   1.214  10.722 -0.4587 -1.3791  0.6387
18787TIP3    H277777   4.465   1.200  10.649 -0.3875  1.0747  0.2203
18788TIP3   OH277778   5.984   5.165  14.514  0.1881  0.0986 -0.3973
18788TIP3    H177779   6.022   5.201  14.434 -0.9855  0.7681 -0.6813
18788TIP3    H277780   5.910   5.111  14.483 -0.6215  0.8141  0.2389
18789TIP3   OH277781   6.289   4.217  15.929 -0.0318  0.2041 -0.0851
18789TIP3    H177782   6.330   4.154  15.987  1.1755  2.1060  1.2182
18789TIP3    H277783   6.361   4.272  15.898 -0.9860  0.7206 -1.4890
18790TIP3   OH277784   2.707   3.742  13.667 -0.3402  0.4753  0.2985
18790TIP3    H177785   2.678   3.744  13.575  0.5933 -0.6296 -0.0376
18790TIP3    H277786   2.764   3.666  13.673 -0.0016  0.8088  1.6992
18791TIP3   OH277787   3.955   4.639   0.491  0.2338  0.0624  0.0699
18791TIP3    H177788   4.003   4.559   0.472 -1.0187 -0.6612 -0.1244
18791TIP3    H277789   3.970   4.653   0.585  3.7286  1.8572 -0.5743
18792TIP3   OH277790   3.621   4.316  16.092  0.0054 -0.4939 -0.6387
18792TIP3    H177791   3.705   4.323  16.048  0.5264  0.2632  0.4374
18792TIP3    H277792   3.572   4.252  16.040 -0.1604  1.7353 -3.4315
18793TIP3   OH277793   1.466   2.748  16.129 -0.4663 -0.0337 -0.2387
18793TIP3    H177794   1.530   2.689  16.169  0.3654  1.5300  0.8184
18793TIP3    H277795   1.442   2.705  16.046  2.9624 -0.0480 -1.3688
18794TIP3   OH277796   3.185   1.333   2.955 -0.0884  0.2994 -0.8314
18794TIP3    H177797   3.103   1.357   2.911 -1.9268 -0.8619  1.6468
18794TIP3    H277798   3.177   1.239   2.969  2.0095  0.0486 -1.0531
18795TIP3   OH277799   4.947   6.699   0.219  0.4044  0.5051 -0.2516
18795TIP3    H177800   4.873   6.707   0.158 -0.5332  2.0518  1.0144
18795TIP3    H277801   4.974   6.790   0.235  2.7529 -0.0309 -0.8507
18796TIP3   OH277802   6.249   1.966  15.220 -0.0109 -0.1307 -0.5877
18796TIP3    H177803   6.220   1.875  15.214  0.5488 -0.3878  0.3062
18796TIP3    H277804   6.170   2.016  15.238 -0.0410 -0.7269  1.0782
18797TIP3   OH277805   3.800   2.154  11.526 -0.5664  0.1338  0.8332
18797TIP3    H177806   3.786   2.206  11.447  0.0829 -1.7267 -0.5939
18797TIP3    H277807   3.875   2.196  11.569 -0.6511  0.9307  0.2243
18798TIP3   OH277808   6.010   4.742   4.577 -0.4654 -0.0595 -0.3849
18798TIP3    H177809   6.067   4.814   4.549 -0.5250 -0.3825 -1.3783
18798TIP3    H277810   5.989   4.762   4.668 -0.3010  1.0697 -0.5775
18799TIP3   OH277811   1.851   2.740  13.314  0.1785  0.8041  0.3841
18799TIP3    H177812   1.791   2.706  13.248  1.1109  1.8374 -1.0556
18799TIP3    H277813   1.938   2.735  13.273  0.7379  1.8039  1.3777
18800TIP3   OH277814   1.916   2.676   0.699 -0.0031 -0.4680  0.5432
18800TIP3    H177815   1.859   2.695   0.624 -0.1949  0.7537  0.9674
18800TIP3    H277816   1.863   2.701   0.775 -0.1929 -2.6237  1.1803
18801TIP3   OH277817   1.648   3.675  16.933 -0.3970  0.0809 -0.3284
18801TIP3    H177818   1.666   3.673  16.839  2.9785 -0.4263  0.2024
18801TIP3    H277819   1.667   3.766  16.958 -0.6676  0.0563 -0.0384
18802TIP3   OH277820   1.856   0.855  14.274  0.6688 -0.2478  1.1907
18802TIP3    H177821   1.823   0.925  14.218  0.7121 -0.6562  0.6554
18802TIP3    H277822   1.806   0.777  14.248  2.2997 -0.9817  0.0771
18803TIP3   OH277823   5.009   5.234  12.943  0.7906 -0.1444  0.0599
18803TIP3    H177824   5.080   5.194  12.893  0.1446 -1.0360 -0.1681
18803TIP3    H277825   4.969   5.161  12.991  0.7236  0.5242  1.0472
18804TIP3   OH277826   5.826   5.680   1.260 -0.3842 -0.7669  0.1740
18804TIP3    H177827   5.892   5.746   1.238  1.9636 -3.2319 -0.6665
18804TIP3    H277828   5.747   5.709   1.213  0.2607  1.8641  0.5706
18805TIP3   OH277829   4.016   0.638   4.617  0.4429  0.1515  0.3464
18805TIP3    H177830   4.099   0.591   4.623 -0.5872 -1.8920 -0.5489
18805TIP3    H277831   3.978   0.610   4.534 -1.7439 -0.0038  1.3295
18806TIP3   OH277832   4.921   0.656   0.466 -0.0604  0.2555 -0.1026
18806TIP3    H177833   4.926   0.725   0.399  0.2098  1.8583  1.4886
18806TIP3    H277834   5.003   0.608   0.456  0.1298  0.6876 -0.7158
18807TIP3   OH277835   1.970   6.370  12.311 -0.5187  0.1480 -0.7481
18807TIP3    H177836   2.032   6.420  12.364 -2.4786  0.1578  1.7184
18807TIP3    H277837   1.938   6.302  12.369 -1.4701 -1.0218 -2.5455
18808TIP3   OH277838   2.093   2.678   3.824  0.1428 -0.3069  0.1770
18808TIP3    H177839   2.125   2.706   3.910  3.9506 -2.9077 -0.1011
18808TIP3    H277840   2.127   2.743   3.763  1.2513 -0.7296  0.3184
18809TIP3   OH277841   5.175   1.036  10.870 -0.5222  0.0983 -0.0289
18809TIP3    H177842   5.252   1.035  10.813 -0.0553 -0.2270  0.6037
18809TIP3    H277843   5.146   0.945  10.874 -0.5419  0.1162  0.2667
18810TIP3   OH277844   1.649   2.954   4.450 -0.8167  0.5102 -0.8153
18810TIP3    H177845   1.707   2.988   4.381 -1.4438  0.7493 -1.2355
18810TIP3    H277846   1.592   2.892   4.405 -0.0722 -0.6833 -0.1637
18811TIP3   OH277847   1.066   3.917   2.625 -0.2413  0.0432 -0.5971
18811TIP3    H177848   1.004   3.902   2.696 -0.4129  0.5857 -0.6228
18811TIP3    H277849   1.135   3.972   2.664  0.3766 -0.7844 -0.4918
18812TIP3   OH277850   5.711   5.363   4.061 -0.7099 -0.4399 -0.3585
18812TIP3    H177851   5.682   5.296   4.124 -0.9860 -0.6179 -0.6707
18812TIP3    H277852   5.760   5.426   4.114  0.3941 -1.3937 -0.2249
18813TIP3   OH277853   1.873   3.271   1.475 -0.1436  0.2991  0.1443
18813TIP3    H177854   1.957   3.226   1.480  0.3477  1.1254 -0.4513
18813TIP3    H277855   1.849   3.267   1.383 -0.6235  0.3051  0.2677
18814TIP3   OH277856   4.597   6.399   0.128  0.8158 -0.1730 -0.1333
18814TIP3    H177857   4.621   6.416   0.219  1.2202 -0.2950 -0.2158
18814TIP3    H277858   4.521   6.455   0.113  0.3398 -0.6485  0.4740
18815TIP3   OH277859   0.331   6.303  15.549 -0.0789  0.5153  0.1432
18815TIP3    H177860   0.382   6.258  15.482 -0.2613  0.1049  0.2802
18815TIP3    H277861   0.240   6.289  15.523 -0.1758 -0.3769  0.9493
18816TIP3   OH277862   5.023   0.834  17.002 -0.5421 -0.0089 -0.0345
18816TIP3    H177863   5.043   0.822  17.094 -0.7350  0.2107  0.0389
18816TIP3    H277864   5.032   0.747  16.963  1.6841  0.2635 -0.2440
18817TIP3   OH277865   4.833   2.215   5.974  0.1802  0.3701 -0.1664
18817TIP3    H177866   4.909   2.263   6.006 -0.3566 -0.2600  2.2219
18817TIP3    H277867   4.757   2.260   6.012 -0.6241  0.4061 -1.7097
18818TIP3   OH277868   2.772   2.488  15.766  0.1450  1.0091  0.4507
18818TIP3    H177869   2.709   2.471  15.836 -1.5289 -2.2686 -1.5966
18818TIP3    H277870   2.719   2.502  15.688  1.8372 -1.5534 -1.3203
18819TIP3   OH277871   4.052   2.155   3.122 -0.2039 -0.2440  0.4138
18819TIP3    H177872   4.082   2.239   3.156 -0.4722 -0.2908  0.7632
18819TIP3    H277873   3.958   2.167   3.105 -0.0914 -0.2396 -0.2462
18820TIP3   OH277874   4.408   2.696  11.736 -0.0215 -0.2326 -0.5638
18820TIP3    H177875   4.450   2.616  11.703 -0.5416 -0.0065 -1.8128
18820TIP3    H277876   4.446   2.766  11.684 -1.8062 -0.0029 -1.6415
18821TIP3   OH277877   4.973   0.062  13.678 -0.1508  0.5239  0.1247
18821TIP3    H177878   4.956  -0.024  13.716  0.4628  0.8462  1.1831
18821TIP3    H277879   5.046   0.048  13.617  0.8352  0.4910  1.2588
18822TIP3   OH277880   0.455   0.541  16.275 -0.5580 -0.1494  0.1194
18822TIP3    H177881   0.457   0.552  16.370 -0.4190 -0.0497  0.1054
18822TIP3    H277882   0.439   0.629  16.241 -0.5247 -0.1712  0.0470
18823TIP3   OH277883   4.620   3.741  11.267 -0.0980 -0.1561 -0.0549
18823TIP3    H177884   4.665   3.766  11.186 -0.1354  0.4976  0.1222
18823TIP3    H277885   4.567   3.665  11.242 -1.4652  1.0730 -1.0827
18824TIP3   OH277886   3.984   3.395  16.765  0.6066 -0.3106 -0.1240
18824TIP3    H177887   4.067   3.358  16.735  1.1772  1.3771 -0.7432
18824TIP3    H277888   3.992   3.397  16.861  1.0060 -0.7856 -0.1431
18825TIP3   OH277889   4.050   5.041  14.541  0.6368  0.0697 -0.1261
18825TIP3    H177890   3.961   5.032  14.506  0.9134 -1.7516 -0.4780
18825TIP3    H277891   4.107   5.026  14.465  1.2573  0.7667  0.1909
18826TIP3   OH277892   5.321   5.630  11.039 -0.0477 -0.2245 -0.1056
18826TIP3    H177893   5.375   5.605  10.965  0.9104  0.0241  0.4976
18826TIP3    H277894   5.367   5.597  11.116 -2.2416 -2.6741  0.2864
18827TIP3   OH277895   4.634   3.074   1.483  0.4384  0.0552  0.1377
18827TIP3    H177896   4.544   3.067   1.516  0.2092 -1.3698 -0.7127
18827TIP3    H277897   4.673   3.145   1.533 -0.6229 -0.4798  1.7783
18828TIP3   OH277898   5.919   3.902  16.360  0.1130 -0.6034  0.0196
18828TIP3    H177899   5.912   3.908  16.455  0.1180 -2.2542  0.1394
18828TIP3    H277900   6.008   3.931  16.341  0.2020 -0.5327  0.5312
18829TIP3   OH277901   0.070   6.529   6.161  0.4032  0.3357  0.2362
18829TIP3    H177902   0.148   6.481   6.134 -0.6940 -0.0032 -2.7427
18829TIP3    H277903   0.021   6.468   6.216  0.2018 -1.1683 -1.4962
18830TIP3   OH277904   3.893   1.879   3.517 -0.3022  0.5829  0.2725
18830TIP3    H177905   3.941   1.805   3.554 -0.5223 -1.0780 -2.5121
18830TIP3    H277906   3.957   1.923   3.461 -1.4455 -0.5579 -2.0290
18831TIP3   OH277907   0.159   4.567   5.312 -0.6579  0.0643  0.6125
18831TIP3    H177908   0.076   4.609   5.290  0.3130  1.1924 -1.1897
18831TIP3    H277909   0.179   4.598   5.400 -1.4483  0.9838  0.4867
18832TIP3   OH277910   0.259   3.783   1.521 -0.3210  0.3896  0.0266
18832TIP3    H177911   0.266   3.867   1.477  0.7311  0.0735 -0.4199
18832TIP3    H277912   0.317   3.725   1.473 -0.3884 -0.3805  0.8446
18833TIP3   OH277913   5.258   2.126   1.131 -0.4260 -0.1224  0.4407
18833TIP3    H177914   5.321   2.128   1.060  1.7365  0.3371  2.2522
18833TIP3    H277915   5.227   2.035   1.134 -0.4414 -0.1759 -0.9546
18834TIP3   OH277916   4.970   1.493   3.564 -0.2055  0.5852  0.9870
18834TIP3    H177917   4.914   1.419   3.591 -2.3742  1.4954 -0.7319
18834TIP3    H277918   4.909   1.564   3.547  1.7212  2.3664  1.1588
18835TIP3   OH277919   2.722   4.026  15.021  0.3170 -0.6087 -0.2415
18835TIP3    H177920   2.628   4.040  15.032  0.5813  0.9601  0.2631
18835TIP3    H277921   2.759   4.047  15.106  1.2385 -0.0698 -0.7631
18836TIP3   OH277922   1.066   5.599  12.508 -0.1832  0.3160 -0.0902
18836TIP3    H177923   1.052   5.554  12.425 -0.5930 -0.9135  0.6037
18836TIP3    H277924   1.048   5.691  12.490  1.9492  0.4817 -1.9025
18837TIP3   OH277925   0.927   3.178   4.119  0.1330 -0.0149  0.1184
18837TIP3    H177926   1.000   3.239   4.104 -0.0975  0.2659  0.1406
18837TIP3    H277927   0.970   3.096   4.143  0.4488  0.1058 -0.0238
18838TIP3   OH277928   5.234   3.979   2.286  0.2180  0.2326 -0.2150
18838TIP3    H177929   5.291   3.906   2.260  0.7704 -0.2420  2.0299
18838TIP3    H277930   5.288   4.057   2.275  0.5577  0.0059 -0.1727
18839TIP3   OH277931   6.189   2.951   2.108  0.2749 -0.4410  0.5369
18839TIP3    H177932   6.103   2.992   2.114  0.8577  0.7484  0.8881
18839TIP3    H277933   6.245   3.017   2.068  1.4458 -0.5269  1.9513
18840TIP3   OH277934   0.109   5.287   4.168  0.4685 -0.6241 -0.3764
18840TIP3    H177935   0.125   5.294   4.262 -0.5999  0.8132 -0.2673
18840TIP3    H277936   0.196   5.280   4.128  0.9302 -1.1949  0.6974
18841TIP3   OH277937   0.691   4.202   1.207  0.1941 -0.0379 -0.6626
18841TIP3    H177938   0.597   4.202   1.225  0.1036 -3.0743 -0.5850
18841TIP3    H277939   0.731   4.185   1.292  0.6395 -1.0053 -1.0514
18842TIP3   OH277940   6.771   5.942   4.319 -0.3665  0.2472  0.1949
18842TIP3    H177941   6.724   6.005   4.373 -0.8894  0.7173 -0.8006
18842TIP3    H277942   6.857   5.982   4.304 -1.9923  2.8687 -3.9243
18843TIP3   OH277943   4.010   3.713  15.368  0.3494 -0.0225  0.1071
18843TIP3    H177944   4.081   3.664  15.326 -0.1415  0.8706 -1.8763
18843TIP3    H277945   3.965   3.648  15.422  0.3854 -1.5347 -1.5875
18844TIP3   OH277946   4.982   3.824  16.353  0.4103  0.4695 -0.6678
18844TIP3    H177947   5.016   3.888  16.416 -0.2274  0.2496 -0.0872
18844TIP3    H277948   4.887   3.828  16.364  0.3389 -0.2129 -0.9925
18845TIP3   OH277949   3.318   0.157  15.207 -0.0106 -0.3777 -0.0621
18845TIP3    H177950   3.289   0.193  15.123  0.3908 -2.5397 -1.1962
18845TIP3    H277951   3.290   0.222  15.271 -4.4846 -0.6865 -1.3415
18846TIP3   OH277952   2.892   1.460   1.705  0.0746  0.1718 -0.4831
18846TIP3    H177953   2.849   1.374   1.705  1.1947 -0.5816  3.1929
18846TIP3    H277954   2.984   1.440   1.685  0.3556  0.4837  0.4738
18847TIP3   OH277955   3.988   1.145  15.421 -0.1511 -0.2004  0.7903
18847TIP3    H177956   4.054   1.200  15.463 -0.9786  0.2870  1.4778
18847TIP3    H277957   3.929   1.120  15.491 -1.8084  0.9751 -0.1036
18848TIP3   OH277958   1.533   1.212  11.895 -0.0323  0.3896  0.0261
18848TIP3    H177959   1.566   1.203  11.806 -0.4060  0.2019 -0.0971
18848TIP3    H277960   1.583   1.148  11.945 -0.6320 -0.3433 -0.2822
18849TIP3   OH277961   4.547   2.257  16.374  0.3495 -0.2635  0.1956
18849TIP3    H177962   4.622   2.270  16.432  0.0196 -0.1220  0.5948
18849TIP3    H277963   4.553   2.166  16.346 -0.3467 -0.7964  1.6789
18850TIP3   OH277964   1.865   3.602  14.153  0.5406 -0.3044  0.1055
18850TIP3    H177965   1.795   3.663  14.175  1.1777  0.4203  0.1573
18850TIP3    H277966   1.917   3.595  14.233  1.7534  0.8362 -0.5591
18851TIP3   OH277967   6.245   3.483  14.373 -0.1466  0.2780 -0.1826
18851TIP3    H177968   6.215   3.425  14.304  0.3139 -0.5566  0.3146
18851TIP3    H277969   6.298   3.549  14.328  1.5599 -1.2163 -0.4416
18852TIP3   OH277970   0.364   1.177   3.804  0.1242 -0.3668 -0.5010
18852TIP3    H177971   0.348   1.268   3.831 -0.6401 -0.6011 -0.1438
18852TIP3    H277972   0.286   1.153   3.755  0.5093 -0.7006 -0.9542
18853TIP3   OH277973   2.704   5.371  12.413  0.4828 -0.4542  0.1116
18853TIP3    H177974   2.742   5.366  12.325  0.4894 -0.4772  0.1160
18853TIP3    H277975   2.777   5.352  12.472  0.2773 -1.3244  0.0906
18854TIP3   OH277976   2.507   0.416   1.542 -0.4315  0.1254  0.0127
18854TIP3    H177977   2.513   0.486   1.607  1.3500  0.1039 -0.0637
18854TIP3    H277978   2.416   0.416   1.514 -0.7213  1.6436  0.8685
18855TIP3   OH277979   4.145   2.745  12.852  0.1564 -0.4213  0.3295
18855TIP3    H177980   4.059   2.755  12.809  0.6314 -0.8151 -0.7361
18855TIP3    H277981   4.197   2.816  12.816  0.2336 -0.0504  1.1437
18856TIP3   OH277982   6.628   1.184  15.299  0.2887  1.1473 -0.2144
18856TIP3    H177983   6.603   1.132  15.222  0.7490 -0.0246  0.3886
18856TIP3    H277984   6.572   1.151  15.369  3.5343 -1.8694  1.2876
18857TIP3   OH277985   1.383   3.205  12.976  0.4765 -0.3802 -0.2241
18857TIP3    H177986   1.290   3.196  12.997 -0.0136  0.6962 -1.7244
18857TIP3    H277987   1.394   3.299  12.960  1.6982 -0.5767 -0.6109
18858TIP3   OH277988   2.865   3.323  12.577  0.7487  0.4794  0.1549
18858TIP3    H177989   2.924   3.324  12.652  0.8597 -1.1529  0.1276
18858TIP3    H277990   2.777   3.320  12.614  0.8191 -1.0334  0.2717
18859TIP3   OH277991   2.982   2.397  16.745  0.3212 -0.0244  0.2320
18859TIP3    H177992   2.920   2.326  16.765  0.6847 -0.9178 -1.6296
18859TIP3    H277993   3.064   2.351  16.724  0.2142  0.8278 -2.3027
18860TIP3   OH277994   2.147   2.722   6.528 -0.8086 -0.2700 -0.2067
18860TIP3    H177995   2.233   2.755   6.554 -0.9931  1.3883 -1.5520
18860TIP3    H277996   2.162   2.629   6.510  1.4308  0.4877 -3.1012
18861TIP3   OH277997   4.194   1.103  14.856  0.5354 -0.1328 -0.3092
18861TIP3    H177998   4.217   1.055  14.936  2.1521  0.7450 -0.2097
18861TIP3    H277999   4.113   1.149  14.878 -0.5149 -1.9683 -0.0874
18862TIP3   OH278000   4.774   6.214   5.427  0.3197 -0.0294  0.1785
18862TIP3    H178001   4.684   6.182   5.425  0.0683  0.5576 -2.9262
18862TIP3    H278002   4.772   6.295   5.376  2.9828 -1.2595 -2.1334
18863TIP3   OH278003   3.651   2.714   4.552  0.7256  0.6886  0.4400
18863TIP3    H178004   3.666   2.807   4.539  1.3279  0.4505 -0.7784
18863TIP3    H278005   3.738   2.675   4.542  0.1800 -0.2037 -1.2849
18864TIP3   OH278006   6.405   2.143  11.465 -0.8685 -0.2292 -0.3400
18864TIP3    H178007   6.439   2.100  11.386  0.8860 -1.2905  0.9391
18864TIP3    H278008   6.433   2.234  11.457 -0.9412 -0.2633 -1.0585
18865TIP3   OH278009   0.628   4.900  13.694 -0.2374  0.5614 -0.0228
18865TIP3    H178010   0.612   4.928  13.785 -1.4994  2.2179 -0.6855
18865TIP3    H278011   0.557   4.942  13.645 -0.2764 -1.2750 -1.6267
18866TIP3   OH278012   3.510   4.838  11.853 -0.0946  0.3991  0.3761
18866TIP3    H178013   3.549   4.818  11.768  0.7392 -0.3555  0.9188
18866TIP3    H278014   3.434   4.781  11.860  0.0775  0.1630  0.3113
18867TIP3   OH278015   6.592   1.374   4.885 -0.4290  0.3632  0.4534
18867TIP3    H178016   6.505   1.412   4.881 -0.0476  1.4725  1.8230
18867TIP3    H278017   6.651   1.448   4.868  0.2671 -0.2426  0.1540
18868TIP3   OH278018   0.229   5.513  16.101 -0.2146  0.0795 -0.2118
18868TIP3    H178019   0.196   5.602  16.094  1.6444  0.8389  0.1322
18868TIP3    H278020   0.325   5.522  16.100  0.0218 -1.9563 -0.7521
18869TIP3   OH278021   6.178   4.630  16.216 -0.0957 -0.1705 -0.2066
18869TIP3    H178022   6.166   4.644  16.310 -1.6224  0.3404 -0.4514
18869TIP3    H278023   6.170   4.718  16.177 -0.7495 -0.5328 -0.9238
18870TIP3   OH278024   0.252   0.663  15.811  0.2578  0.2448 -0.1199
18870TIP3    H178025   0.275   0.657  15.904  2.0736  0.8930 -0.4762
18870TIP3    H278026   0.280   0.580  15.774 -1.1155 -0.2954  0.0159
18871TIP3   OH278027   2.835   0.697  13.516 -0.1478 -0.4435  0.2039
18871TIP3    H178028   2.821   0.695  13.422 -1.6071 -0.7789  0.3955
18871TIP3    H278029   2.929   0.683  13.528  0.4364  1.8125 -1.2702
18872TIP3   OH278030   0.624   0.204  13.852 -0.6645 -0.3321  0.1454
18872TIP3    H178031   0.628   0.244  13.766 -0.1426  1.6333  1.0261
18872TIP3    H278032   0.531   0.192  13.869 -0.8148  0.2667 -0.2492
18873TIP3   OH278033   1.933   3.204   6.482  0.1548  0.0787 -0.4043
18873TIP3    H178034   1.975   3.119   6.499  1.4294  0.6329 -0.6525
18873TIP3    H278035   1.941   3.251   6.565 -0.4641  0.0059 -0.2965
18874TIP3   OH278036   5.871   6.080   2.038 -0.1584  0.1271  0.1545
18874TIP3    H178037   5.871   6.093   1.943  1.2715  0.2126  0.1482
18874TIP3    H278038   5.874   6.169   2.074  0.7986  0.0703  0.2429
18875TIP3   OH278039   5.917   1.397   3.282 -0.8374 -0.1964  0.5850
18875TIP3    H178040   5.843   1.337   3.276 -0.7257 -0.3076  0.3312
18875TIP3    H278041   5.984   1.348   3.331 -1.1294  0.1014  1.2906
18876TIP3   OH278042   3.621   6.487  16.635 -0.5903 -0.1574  0.0702
18876TIP3    H178043   3.622   6.582  16.630  0.6453 -0.1960 -0.7934
18876TIP3    H278044   3.596   6.458  16.548  1.1229 -0.6337 -0.2931
18877TIP3   OH278045   6.657   4.288   3.244 -0.3942  0.2450 -0.4090
18877TIP3    H178046   6.580   4.326   3.203  0.4463  1.7004 -0.7142
18877TIP3    H278047   6.717   4.271   3.172  0.2675  0.8243 -0.0083
18878TIP3   OH278048   6.228   6.526  12.908  0.0579 -0.0925  0.2604
18878TIP3    H178049   6.201   6.615  12.929  2.6305  0.2376  2.8286
18878TIP3    H278050   6.231   6.480  12.992  0.5793 -2.0701 -0.7603
18879TIP3   OH278051   1.034   1.129  11.173 -0.7674 -0.2947  0.0116
18879TIP3    H178052   1.018   1.223  11.163 -0.3530 -0.2636 -0.3883
18879TIP3    H278053   0.973   1.102  11.241 -0.4009  0.4052  0.6470
18880TIP3   OH278054   3.029   1.382  17.106 -0.4316 -0.0305 -0.0508
18880TIP3    H178055   3.030   1.478  17.097  0.2443  0.1311  1.3832
18880TIP3    H278056   3.052   1.349  17.020  3.1221  1.2107  0.2624
18881TIP3   OH278057   2.278   5.952  11.814 -0.4778 -0.0215 -0.5022
18881TIP3    H178058   2.285   6.026  11.754  1.6754  0.4287  0.2018
18881TIP3    H278059   2.196   5.966  11.861 -1.5564  0.2960 -2.3911
18882TIP3   OH278060   1.775   4.941  15.660  0.0760  0.3405  0.2428
18882TIP3    H178061   1.805   5.031  15.649  0.6644  0.2554  1.0000
18882TIP3    H278062   1.685   4.949  15.691  0.3925  0.7119  1.1295
18883TIP3   OH278063   0.122   6.597   0.774  0.1961  0.2286  0.0502
18883TIP3    H178064   0.084   6.513   0.799 -0.2212  0.4064  0.0316
18883TIP3    H278065   0.145   6.587   0.682  1.4189 -0.3151  0.4009
18884TIP3   OH278066   2.701   1.330   0.463  0.0041 -0.0160 -0.2153
18884TIP3    H178067   2.749   1.277   0.527 -0.5086 -0.4609 -0.1969
18884TIP3    H278068   2.643   1.268   0.419 -0.2198  0.4367 -0.5591
18885TIP3   OH278069   3.414   6.136  15.482  0.1218  0.2201 -0.9082
18885TIP3    H178070   3.438   6.044  15.493 -2.1039 -0.2677  0.3669
18885TIP3    H278071   3.379   6.141  15.393 -1.7608 -0.7264 -0.2851
18886TIP3   OH278072   0.040   3.568   0.193 -0.2714  0.2128 -0.4040
18886TIP3    H178073   0.074   3.555   0.281 -2.1097  0.5292  0.4095
18886TIP3    H278074   0.069   3.656   0.168 -0.3292  0.3967  0.1782
18887TIP3   OH278075   5.929   1.260   2.876  0.0329 -0.3536 -0.1345
18887TIP3    H178076   5.838   1.248   2.847 -0.1413 -0.4777  0.4405
18887TIP3    H278077   5.958   1.173   2.901  0.7015 -0.5149 -1.3714
18888TIP3   OH278078   5.336   2.622   5.189  0.1219  0.4762  0.2570
18888TIP3    H178079   5.330   2.715   5.212  1.2266  0.4068  0.9137
18888TIP3    H278080   5.322   2.576   5.271 -0.9096  0.0314 -0.1565
18889TIP3   OH278081   1.762   0.071  16.373 -0.0221  0.0248 -0.4379
18889TIP3    H178082   1.679   0.030  16.350  0.4418 -1.3298  0.2367
18889TIP3    H278083   1.763   0.073  16.468  0.5405  0.4263 -0.4454
18890TIP3   OH278084   6.282   5.471   5.509  0.3744 -0.1657 -0.3724
18890TIP3    H178085   6.255   5.556   5.475 -0.1802 -0.2448 -0.1416
18890TIP3    H278086   6.301   5.487   5.602 -0.4057 -0.4251 -0.1577
18891TIP3   OH278087   2.017   3.861   6.762  0.4134 -0.5224 -0.1433
18891TIP3    H178088   2.012   3.912   6.843 -0.2348 -0.4681 -0.2081
18891TIP3    H278089   1.942   3.892   6.711  0.2236 -1.2967 -0.3340
18892TIP3   OH278090   1.320   0.640  17.231 -0.3830 -0.0869 -0.0983
18892TIP3    H178091   1.309   0.655  17.325 -0.6485 -3.1868  0.4493
18892TIP3    H278092   1.252   0.694  17.191 -0.6953  0.8086  1.5167
18893TIP3   OH278093   5.400   2.817  11.543  0.2884 -0.3624 -0.1380
18893TIP3    H178094   5.458   2.806  11.467  0.8961 -0.9541  0.3991
18893TIP3    H278095   5.457   2.852  11.611  0.3901 -2.2549  0.8342
18894TIP3   OH278096   3.390   2.066   1.845 -0.0560  0.2459  0.0290
18894TIP3    H178097   3.483   2.092   1.846  0.3982 -0.3419 -4.5467
18894TIP3    H278098   3.392   1.973   1.824 -1.7417 -0.0726  1.1600
18895TIP3   OH278099   4.659   5.060  14.653  0.2204  0.1049  0.4586
18895TIP3    H178100   4.576   5.045  14.697  0.1513  0.2104  0.3636
18895TIP3    H278101   4.717   5.093  14.722  0.3932 -0.6510  0.6832
18896TIP3   OH278102   0.253   3.831  12.592  0.0885  0.1066  0.1315
18896TIP3    H178103   0.253   3.795  12.681  0.1539 -2.8608 -0.9575
18896TIP3    H278104   0.163   3.822  12.561  0.5181 -1.0878 -0.8620
18897TIP3   OH278105   6.377   3.786  12.616  0.2322  0.3266 -0.3303
18897TIP3    H178106   6.374   3.730  12.694  3.4075  0.1272 -0.2223
18897TIP3    H278107   6.290   3.775  12.576 -0.6005 -1.6140  1.7508
18898TIP3   OH278108   4.875   3.340  16.000  0.2350  0.0894  0.3635
18898TIP3    H178109   4.826   3.294  16.069  1.4893 -1.6910  0.1309
18898TIP3    H278110   4.928   3.404  16.047 -0.7957  0.6558  0.7910
18899TIP3   OH278111   5.593   6.348  13.955 -0.5347  0.4668  0.7094
18899TIP3    H178112   5.552   6.435  13.951  0.3695  0.9014  0.6405
18899TIP3    H278113   5.684   6.365  13.978 -0.3414 -0.4686  0.6874
18900TIP3   OH278114   4.020   3.958  17.078 -0.0688 -0.0209 -0.0903
18900TIP3    H178115   3.984   3.892  17.019  0.2259  0.2255 -0.5527
18900TIP3    H278116   4.115   3.953  17.064  0.1119 -0.8115  1.2711
18901TIP3   OH278117   6.704   0.210  10.908 -0.4164 -0.1271  0.3825
18901TIP3    H178118   6.675   0.289  10.860 -0.8016  1.3058  2.8148
18901TIP3    H278119   6.774   0.174  10.853 -2.5113 -0.1313 -2.5538
18902TIP3   OH278120   4.889   5.283   4.903  0.2401 -0.1855  0.7475
18902TIP3    H178121   4.898   5.291   4.998 -1.9352  0.6596  0.9391
18902TIP3    H278122   4.798   5.308   4.886  0.1747 -1.6736 -1.4139
18903TIP3   OH278123   4.745   6.389   2.196  0.0624  0.0877  0.0223
18903TIP3    H178124   4.732   6.481   2.219  0.8735  0.4909 -1.0485
18903TIP3    H278125   4.832   6.368   2.228 -0.2598 -0.4297  0.5875
18904TIP3   OH278126   0.699   1.996   4.425  0.0716 -0.0382 -0.2254
18904TIP3    H178127   0.732   2.049   4.498  0.0413 -1.2982  0.7383
18904TIP3    H278128   0.609   1.976   4.449 -1.1568  2.4515 -2.3230
18905TIP3   OH278129   4.835   0.588   3.561 -0.0466  0.1500  0.0878
18905TIP3    H178130   4.861   0.620   3.475 -0.6586 -0.7884 -0.4678
18905TIP3    H278131   4.854   0.494   3.558  2.4381  0.5102  1.9534
18906TIP3   OH278132   0.236   2.044  16.474 -0.3876  0.0826 -0.4506
18906TIP3    H178133   0.319   2.029  16.429 -0.2090  1.5827 -0.6741
18906TIP3    H278134   0.230   2.139  16.483 -1.1537 -0.0919  1.3314
18907TIP3   OH278135   2.835   6.342   5.994 -0.0101  0.6374  0.2507
18907TIP3    H178136   2.912   6.397   6.014 -0.0869  0.4579  1.0812
18907TIP3    H278137   2.821   6.292   6.074  0.4784 -1.1178 -0.7133
18908TIP3   OH278138   2.820   4.789   4.821  0.0136 -0.4859 -0.2644
18908TIP3    H178139   2.751   4.774   4.757 -0.6733  0.5243  0.2173
18908TIP3    H278140   2.899   4.755   4.779 -0.5008 -0.2817 -1.4474
18909TIP3   OH278141   3.893   2.324   3.493 -0.4311 -0.7547 -0.0311
18909TIP3    H178142   3.807   2.283   3.504  0.0430 -2.0954 -1.0611
18909TIP3    H278143   3.886   2.371   3.410 -0.8826  1.1461  1.0070
18910TIP3   OH278144   4.448   5.737   5.151  0.5032 -0.8204  0.3028
18910TIP3    H178145   4.441   5.791   5.073  0.9761  1.1032  1.5249
18910TIP3    H278146   4.508   5.667   5.126  1.3164  0.2326 -0.8083
18911TIP3   OH278147   5.072   6.540  16.645  0.2984  0.0747  0.4385
18911TIP3    H178148   5.104   6.483  16.576 -0.0721  1.5409 -1.0070
18911TIP3    H278149   5.122   6.621  16.634 -2.0765  1.5383 -0.3188
18912TIP3   OH278150   2.115   4.856   5.546  0.3629 -0.2889  0.5885
18912TIP3    H178151   2.163   4.791   5.495  0.1203 -0.7008  0.8761
18912TIP3    H278152   2.063   4.805   5.608  0.0578  0.1743  0.7254
18913TIP3   OH278153   1.847   3.794   1.203 -0.1559 -0.3012 -0.4731
18913TIP3    H178154   1.818   3.720   1.149  0.0139 -0.6095 -0.1487
18913TIP3    H278155   1.942   3.782   1.211 -0.3906 -1.3933  1.5111
18914TIP3   OH278156   5.936   3.988  13.372 -0.0983  0.7384 -0.7165
18914TIP3    H178157   5.931   3.892  13.380 -1.9082  0.8872  0.2594
18914TIP3    H278158   6.016   4.011  13.419 -0.5174 -0.1705  0.5032
18915TIP3   OH278159   4.630   2.863  12.944 -0.1449  0.3367 -0.2393
18915TIP3    H178160   4.622   2.820  12.858  0.8058 -0.5287  0.0808
18915TIP3    H278161   4.542   2.895  12.963  0.1372  3.2172 -2.8716
18916TIP3   OH278162   1.696   6.332   2.399 -0.1809  0.5548 -0.3767
18916TIP3    H178163   1.785   6.336   2.434  0.1667 -1.2305 -0.9452
18916TIP3    H278164   1.642   6.302   2.472  0.3617 -2.0673 -0.9309
18917TIP3   OH278165   1.304   6.308   5.123  0.3628 -0.0592  0.4483
18917TIP3    H178166   1.321   6.370   5.053  0.0952 -0.2051  0.2563
18917TIP3    H278167   1.369   6.238   5.110  2.3120  1.3038  2.0639
18918TIP3   OH278168   0.310   4.437   0.487  0.1655 -0.2290  0.1911
18918TIP3    H178169   0.404   4.446   0.469  0.3550 -2.4671 -0.2486
18918TIP3    H278170   0.297   4.343   0.500 -1.9438  0.0908  0.7348
18919TIP3   OH278171   3.914   4.645  15.489 -0.0088 -0.2546  0.3020
18919TIP3    H178172   3.977   4.621  15.557  0.8628 -1.2422 -0.8050
18919TIP3    H278173   3.940   4.734  15.463  1.1158 -0.7368 -0.3062
18920TIP3   OH278174   6.769   0.675  12.104  0.0014 -0.3179 -0.1533
18920TIP3    H178175   6.710   0.601  12.120 -0.0743 -1.4264 -4.2323
18920TIP3    H278176   6.727   0.722  12.031  2.6392  0.5903 -1.1956
18921TIP3   OH278177   4.279   3.490   3.292 -0.8104 -0.0727 -0.2329
18921TIP3    H178178   4.195   3.511   3.333  0.0326  0.4106  1.3055
18921TIP3    H278179   4.338   3.561   3.319  0.4849 -1.1715 -0.0691
18922TIP3   OH278180   5.910   5.711   4.257  0.0857 -0.1220  0.2732
18922TIP3    H178181   5.941   5.650   4.189 -0.8941 -1.0782  0.6555
18922TIP3    H278182   5.845   5.765   4.212 -0.9156 -1.0737  0.5409
18923TIP3   OH278183   4.031   5.718  16.193 -0.2582  0.1930  0.6122
18923TIP3    H178184   3.992   5.665  16.123  0.3867 -1.7964  1.6650
18923TIP3    H278185   4.085   5.782  16.148 -0.7947 -0.2586 -0.7311
18924TIP3   OH278186   4.859   6.695   5.294  0.0283 -0.1486  0.7785
18924TIP3    H178187   4.816   6.677   5.378 -0.4032 -1.0496  0.3793
18924TIP3    H278188   4.952   6.685   5.312 -0.1238 -1.6462  0.8703
18925TIP3   OH278189   4.640   0.772   2.126 -0.0168  0.6465  0.2267
18925TIP3    H178190   4.613   0.698   2.071  2.5888 -1.6331  1.7240
18925TIP3    H278191   4.618   0.849   2.075 -1.1478 -1.2077 -2.3305
18926TIP3   OH278192   5.234   3.490   0.819 -0.1787 -0.3960 -0.1138
18926TIP3    H178193   5.307   3.427   0.815  1.5031  1.4435 -0.1214
18926TIP3    H278194   5.199   3.491   0.730 -0.5801 -1.6666  0.0059
18927TIP3   OH278195   6.515   1.037  11.471 -0.2660  0.5794 -0.9629
18927TIP3    H178196   6.462   1.065  11.396 -2.0344 -0.6754 -0.2618
18927TIP3    H278197   6.499   0.943  11.478  0.5121  0.5302  0.5036
18928TIP3   OH278198   0.608   1.297   2.909  0.5274  0.2192 -0.1716
18928TIP3    H178199   0.609   1.356   2.985 -2.0249 -0.5305  0.5269
18928TIP3    H278200   0.523   1.255   2.912  1.3859 -1.8291 -1.9841
18929TIP3   OH278201   5.409   2.212  16.139 -0.0002 -0.5243 -0.2630
18929TIP3    H178202   5.325   2.234  16.181  0.3976  2.3974 -0.7730
18929TIP3    H278203   5.384   2.167  16.058 -1.0901  0.0601 -0.2711
18930TIP3   OH278204   2.077   5.571   1.020 -0.4185 -1.0396  0.2789
18930TIP3    H178205   2.055   5.507   1.087  1.2143 -0.6403  1.2648
18930TIP3    H278206   2.086   5.520   0.940 -2.8125 -1.4606  0.2164
18931TIP3   OH278207   1.165   4.221  11.765 -0.5565  0.1495  0.1356
18931TIP3    H178208   1.069   4.221  11.764 -0.5572  0.1594  0.2323
18931TIP3    H278209   1.189   4.132  11.741 -0.6151 -0.7182  2.9366
18932TIP3   OH278210   6.767   1.473  13.926 -0.5458  0.3417 -0.1802
18932TIP3    H178211   6.844   1.425  13.895 -2.0931 -1.4158 -1.5433
18932TIP3    H278212   6.793   1.505  14.012  1.4253 -0.8835 -0.2334
18933TIP3   OH278213   1.450   3.000  11.586  0.2164  0.2161  0.2872
18933TIP3    H178214   1.423   2.910  11.572  0.9950 -0.0441  0.4388
18933TIP3    H278215   1.473   3.033  11.499 -0.5203  0.4321  0.1601
18934TIP3   OH278216   4.946   1.920  13.384 -0.7699 -0.0909  0.2172
18934TIP3    H178217   4.954   1.836  13.429 -1.6451 -0.7992 -0.8642
18934TIP3    H278218   4.886   1.971  13.438  0.4566  0.1949  1.3446
18935TIP3   OH278219   3.176   0.525  10.720 -0.2887  0.4366 -0.2327
18935TIP3    H178220   3.135   0.444  10.751  1.5198 -0.8794 -1.0943
18935TIP3    H278221   3.109   0.566  10.665 -1.3952 -0.2262  0.5848
18936TIP3   OH278222   0.095   1.549   4.124  0.0474  0.0421  0.0928
18936TIP3    H178223   0.001   1.566   4.128 -0.2832 -0.1612 -3.4267
18936TIP3    H278224   0.103   1.454   4.125  0.1049  0.0341 -0.5711
18937TIP3   OH278225   0.980   4.924  12.818  0.1520  0.3088  0.0986
18937TIP3    H178226   1.063   4.918  12.772  0.6774  0.9724  0.9403
18937TIP3    H278227   0.914   4.906  12.750  0.9029  1.1381 -0.8754
18938TIP3   OH278228   0.542   3.092   2.315  0.4885 -0.7145 -0.4214
18938TIP3    H178229   0.519   3.183   2.334  1.8575 -0.5860  0.7914
18938TIP3    H278230   0.533   3.046   2.398  1.7355 -1.2537 -0.5570
18939TIP3   OH278231   3.357   6.214   2.432  0.9275 -0.4029 -0.2163
18939TIP3    H178232   3.421   6.272   2.391 -0.6764  1.5890 -0.0597
18939TIP3    H278233   3.371   6.226   2.526 -0.3758  1.0068 -0.1467
18940TIP3   OH278234   0.180   6.138  11.538 -0.2518  0.6540 -0.0809
18940TIP3    H178235   0.173   6.129  11.443  1.7337 -0.4440 -0.1758
18940TIP3    H278236   0.241   6.070  11.564  0.0224  1.5824  1.8778
18941TIP3   OH278237   4.743   6.004  13.929 -0.6023 -0.5868 -0.3179
18941TIP3    H178238   4.693   6.002  14.010  2.1810 -0.5322  1.5529
18941TIP3    H278239   4.835   6.009  13.958  0.4323  2.0455 -3.4641
18942TIP3   OH278240   2.474   0.292  16.351  0.1550  0.4040 -0.2861
18942TIP3    H178241   2.508   0.378  16.323 -1.0173  0.3841 -1.9301
18942TIP3    H278242   2.552   0.243  16.377  1.2540  0.8921 -2.4105
18943TIP3   OH278243   6.199   1.876   5.962 -0.3539 -0.1400 -0.0702
18943TIP3    H178244   6.234   1.963   5.978 -0.3276 -0.0285 -0.7299
18943TIP3    H278245   6.205   1.832   6.047  0.2490  0.2782  0.1098
18944TIP3   OH278246   3.477   3.110   5.805  0.1948 -0.1183 -0.6976
18944TIP3    H178247   3.482   3.071   5.892  0.9515 -0.2432 -0.7829
18944TIP3    H278248   3.386   3.100   5.779  0.0341 -0.3888 -0.0630
18945TIP3   OH278249   3.484   1.068  12.195 -0.1562  0.4814 -0.4610
18945TIP3    H178250   3.399   1.053  12.152 -0.7672  1.1499  0.4675
18945TIP3    H278251   3.536   1.114  12.128 -0.3021 -0.4791 -1.2504
18946TIP3   OH278252   4.191   0.003   1.197  0.0859 -0.1174  0.2557
18946TIP3    H178253   4.161   0.066   1.262 -2.1080  1.2999 -1.9543
18946TIP3    H278254   4.124  -0.065   1.197 -0.1786  0.1256 -0.7724
18947TIP3   OH278255   4.138   2.011   4.966  0.1191  0.1846 -0.5596
18947TIP3    H178256   4.202   1.940   4.971 -0.3335 -0.3169 -1.6550
18947TIP3    H278257   4.116   2.017   4.873 -2.6709 -0.7996 -0.0749
18948TIP3   OH278258   2.349   1.235  13.452  0.9608  0.7377 -0.6485
18948TIP3    H178259   2.309   1.219  13.537  1.4078  0.0915 -0.5508
18948TIP3    H278260   2.276   1.230  13.390  0.4248  2.4003 -0.2079
18949TIP3   OH278261   3.989   5.150  15.542 -0.0618 -0.2947  0.3324
18949TIP3    H178262   4.079   5.167  15.570 -0.6340  0.4726  1.8262
18949TIP3    H278263   3.935   5.184  15.613 -1.6091  0.7629 -1.2670
18950TIP3   OH278264   5.511   0.452   3.053 -0.0109 -0.0554 -0.4028
18950TIP3    H178265   5.438   0.428   3.111  1.0782  2.4704  2.3102
18950TIP3    H278266   5.496   0.544   3.032  2.2288  0.4881  0.0840
18951TIP3   OH278267   5.703   6.057   1.366  0.6801 -0.2183  0.1816
18951TIP3    H178268   5.626   6.093   1.323 -0.1912 -1.8969  0.2701
18951TIP3    H278269   5.736   6.129   1.420 -0.4107  0.7332 -0.3863
18952TIP3   OH278270   1.910   2.391  14.699  0.2226 -0.0574  0.4087
18952TIP3    H178271   1.920   2.353  14.786  1.0005 -0.1956  0.2631
18952TIP3    H278272   1.954   2.476  14.704  1.0693 -0.4505 -0.0961
18953TIP3   OH278273   2.051   1.492  10.951 -0.0786 -0.1176  0.1641
18953TIP3    H178274   2.091   1.563  11.000 -0.4674 -0.1780  0.5806
18953TIP3    H278275   2.035   1.424  11.017  0.4323 -0.6510 -0.2549
18954TIP3   OH278276   4.573   1.289  17.005 -0.0801 -0.3163 -0.2139
18954TIP3    H178277   4.563   1.373  16.959  0.4967  0.5827  1.2375
18954TIP3    H278278   4.485   1.252  17.006 -0.5461  0.7402 -0.0352
18955TIP3   OH278279   4.800   6.589  13.057  0.0846 -0.0048  0.6218
18955TIP3    H178280   4.710   6.622  13.059 -0.8182 -2.2642  0.4725
18955TIP3    H278281   4.842   6.638  12.986 -0.9395  1.2250  0.8225
18956TIP3   OH278282   5.393   2.375  13.102 -0.3423  0.0654  0.7422
18956TIP3    H178283   5.393   2.313  13.175 -1.0448  0.6254  1.2310
18956TIP3    H278284   5.327   2.440  13.126 -0.7795  0.1168 -0.5132
18957TIP3   OH278285   5.673   2.810  14.622 -0.3146  0.6164  0.6016
18957TIP3    H178286   5.715   2.778  14.702  0.8052  0.3227 -0.0924
18957TIP3    H278287   5.593   2.853  14.653  1.1868  2.5319  2.1234
18958TIP3   OH278288   1.878   0.693   4.402 -0.2296  0.1115 -0.3109
18958TIP3    H178289   1.853   0.611   4.358 -1.9342  0.5328 -0.2036
18958TIP3    H278290   1.924   0.665   4.481  1.7744 -0.6758 -1.6827
18959TIP3   OH278291   4.727   3.343   4.558 -0.0728  0.6815 -0.0925
18959TIP3    H178292   4.809   3.370   4.517 -0.4098  1.4339 -0.2908
18959TIP3    H278293   4.660   3.360   4.492 -0.5099  1.0007  0.4251
18960TIP3   OH278294   6.597   1.503   1.785  0.4683  0.2054  0.4842
18960TIP3    H178295   6.611   1.499   1.691  0.0321 -0.4092  0.4374
18960TIP3    H278296   6.596   1.412   1.813 -0.9619  0.2950  0.8339
18961TIP3   OH278297   3.899   6.281  12.107 -0.2036 -0.1511  0.0849
18961TIP3    H178298   3.807   6.285  12.133 -0.3420  1.9705 -0.5221
18961TIP3    H278299   3.933   6.369  12.126  1.6091 -0.7680 -0.0792
18962TIP3   OH278300   5.919   1.100  16.551 -0.7570 -0.1890  0.3231
18962TIP3    H178301   6.011   1.100  16.577 -0.8111 -0.0717  0.5237
18962TIP3    H278302   5.895   1.192  16.547 -0.1654 -0.0937 -2.3363
18963TIP3   OH278303   5.088   5.133   6.543 -0.1090  0.3773  0.8587
18963TIP3    H178304   5.029   5.113   6.471 -0.1384  1.1274  0.6743
18963TIP3    H278305   5.134   5.212   6.516  2.6754 -1.4138 -0.0323
18964TIP3   OH278306   0.075   4.512   5.667 -0.1049 -0.5470 -0.4060
18964TIP3    H178307  -0.003   4.456   5.662 -1.9627  1.8736 -0.2728
18964TIP3    H278308   0.081   4.537   5.759 -0.1283  0.5390 -0.6911
18965TIP3   OH278309   6.649   3.952  14.557  0.4519 -0.2183 -0.3101
18965TIP3    H178310   6.584   3.892  14.521 -0.4721  0.9887 -0.7037
18965TIP3    H278311   6.703   3.897  14.614 -3.4330 -0.6330  3.4928
18966TIP3   OH278312   6.224   3.926  14.150 -0.1530  0.4825  0.1986
18966TIP3    H178313   6.232   3.925  14.246 -1.2228 -1.3142  0.3142
18966TIP3    H278314   6.270   3.846  14.122  1.4311  1.7226 -0.9545
18967TIP3   OH278315   2.398   1.143  12.271  0.4540 -0.2099 -0.4690
18967TIP3    H178316   2.416   1.056  12.236  0.6620 -0.3094 -0.1194
18967TIP3    H278317   2.406   1.133  12.366  0.3058  0.1509 -0.4165
18968TIP3   OH278318   6.071   1.552  14.336  0.4312  0.8920 -0.0715
18968TIP3    H178319   6.014   1.629  14.335  0.6577  1.1019  1.2440
18968TIP3    H278320   6.023   1.487  14.387 -0.5895 -0.5614 -2.6726
18969TIP3   OH278321   3.068   1.603  16.355  0.2003  0.4026  0.3671
18969TIP3    H178322   3.015   1.551  16.294 -1.8712  1.3011  1.3255
18969TIP3    H278323   3.152   1.614  16.310 -0.1304 -1.7071 -0.8805
18970TIP3   OH278324   1.284   5.012   4.665 -0.8016 -0.1728  0.3607
18970TIP3    H178325   1.212   5.060   4.707 -2.0992  0.1566 -2.0309
18970TIP3    H278326   1.360   5.028   4.721 -2.3321  0.3640  2.4175
18971TIP3   OH278327   5.641   0.548  15.260 -0.7378 -0.1961 -0.0480
18971TIP3    H178328   5.571   0.561  15.196 -1.0917  1.2796  0.5865
18971TIP3    H278329   5.702   0.621  15.244  0.7658 -1.5339 -0.6913
18972TIP3   OH278330   6.053   0.323  11.411 -0.2100 -0.2341 -0.3241
18972TIP3    H178331   6.053   0.231  11.383 -1.1584 -0.7433  1.2319
18972TIP3    H278332   5.966   0.355  11.386 -0.1990 -0.0141 -0.0758
18973TIP3   OH278333   3.743   5.282   4.571  0.1922  0.3206 -0.6238
18973TIP3    H178334   3.669   5.285   4.510  0.5064  0.0607 -1.0224
18973TIP3    H278335   3.762   5.189   4.580  1.1684  0.4347 -1.3819
18974TIP3   OH278336   3.274   5.214   2.142 -0.1313  0.1221  0.5541
18974TIP3    H178337   3.358   5.170   2.156 -0.2459 -1.1352 -2.0192
18974TIP3    H278338   3.250   5.250   2.227  2.3159 -0.7221  1.6728
18975TIP3   OH278339   2.614   5.644   4.689 -0.1037  0.2851  0.4175
18975TIP3    H178340   2.558   5.652   4.766  0.8126 -2.2843  1.4414
18975TIP3    H278341   2.565   5.588   4.629  0.5836 -0.5101  0.5809
18976TIP3   OH278342   4.186   4.210  13.853 -0.5044  0.0692  0.5535
18976TIP3    H178343   4.273   4.212  13.813  0.0381  0.6250  1.6998
18976TIP3    H278344   4.197   4.156  13.932 -1.4699 -0.7488  0.1519
18977TIP3   OH278345   5.890   2.713  14.124  0.1693 -0.1650  0.1479
18977TIP3    H178346   5.897   2.759  14.207 -0.0761 -0.9389  0.6050
18977TIP3    H278347   5.916   2.623  14.143 -1.0579 -0.6498 -0.3269
18978TIP3   OH278348   4.394   4.951   5.984  0.3418 -0.3133  0.6873
18978TIP3    H178349   4.309   4.911   5.967  1.5847 -2.2121 -1.8399
18978TIP3    H278350   4.433   4.896   6.053  0.7579 -1.5495 -0.4850
18979TIP3   OH278351   1.624   3.770   4.597 -0.3890  0.0376 -0.2933
18979TIP3    H178352   1.608   3.724   4.680  0.8169 -2.2641 -1.2369
18979TIP3    H278353   1.561   3.731   4.536 -1.2302  1.6729 -0.5254
18980TIP3   OH278354   3.205   5.801  13.844  0.4987 -0.3563  0.1659
18980TIP3    H178355   3.190   5.854  13.766  0.3438 -0.3943  0.1694
18980TIP3    H278356   3.222   5.713  13.810  0.1543 -0.4317  0.1869
18981TIP3   OH278357   1.956   5.444  16.813 -0.3772  0.2285 -0.0040
18981TIP3    H178358   1.950   5.369  16.754 -1.2702  0.5884 -0.3823
18981TIP3    H278359   1.890   5.426  16.880  0.9334 -0.4043  1.1810
18982TIP3   OH278360   2.443   0.308   0.383 -0.1296 -0.0639 -0.6695
18982TIP3    H178361   2.504   0.363   0.431 -0.2153 -0.2303 -0.3652
18982TIP3    H278362   2.437   0.348   0.297 -2.5441  2.2474  0.4120
18983TIP3   OH278363   0.480   6.010   2.799 -0.0421 -0.0526  0.0400
18983TIP3    H178364   0.540   6.028   2.727 -0.8266 -0.2340 -0.6753
18983TIP3    H278365   0.534   5.963   2.863  0.0785 -2.3646 -1.5995
18984TIP3   OH278366   1.434   0.514  13.872 -0.2169 -0.0135 -0.1492
18984TIP3    H178367   1.492   0.441  13.891 -1.2040 -1.3352 -1.9428
18984TIP3    H278368   1.489   0.592  13.882  1.3707 -1.1033 -0.0569
18985TIP3   OH278369   3.503   4.415  10.548  0.3982  0.0280 -0.2556
18985TIP3    H178370   3.538   4.374  10.627  1.0157 -1.1342 -1.1121
18985TIP3    H278371   3.562   4.488  10.531  1.9828 -1.4059 -1.2034
18986TIP3   OH278372   3.371   0.149   5.539 -0.5260 -0.2094  0.3307
18986TIP3    H178373   3.358   0.148   5.444  1.1436  0.6231  0.0491
18986TIP3    H278374   3.322   0.225   5.570 -0.8727 -0.3369  0.0908
18987TIP3   OH278375   4.604   6.064  11.207 -0.2599  0.1690  0.4013
18987TIP3    H178376   4.562   6.132  11.260  1.7231  0.8053  1.2821
18987TIP3    H278377   4.646   6.113  11.136 -1.0666 -0.4536 -0.5230
18988TIP3   OH278378   0.929   3.429   6.068  0.1876  0.0369 -0.1784
18988TIP3    H178379   0.995   3.490   6.102  1.3372 -1.3129  0.1266
18988TIP3    H278380   0.845   3.468   6.092  0.8935  1.2666  0.3932
18989TIP3   OH278381   2.145   5.615   2.728 -0.0146  0.0724  0.3025
18989TIP3    H178382   2.172   5.705   2.746  0.4105 -0.1013  0.5589
18989TIP3    H278383   2.183   5.564   2.800  2.7466 -0.8451 -1.6198
18990TIP3   OH278384   0.259   4.045  11.071  0.0637 -0.1073  0.1124
18990TIP3    H178385   0.312   4.042  11.151  0.9584  1.4316 -0.3858
18990TIP3    H278386   0.323   4.052  11.000 -0.7071 -1.7704 -0.8026
18991TIP3   OH278387   5.548   2.664   0.106 -0.1768 -0.1970 -0.6478
18991TIP3    H178388   5.521   2.586   0.058 -1.9228  1.3805 -2.4111
18991TIP3    H278389   5.618   2.702   0.054  0.1600 -0.1820 -0.1915
18992TIP3   OH278390   5.244   3.570  14.728 -0.0938  0.3175  0.1970
18992TIP3    H178391   5.148   3.570  14.727 -0.1577  0.8481  1.8970
18992TIP3    H278392   5.267   3.478  14.743 -0.3290  0.1720 -0.3131
18993TIP3   OH278393   3.382   1.551   2.715  0.1931  0.4283  0.2089
18993TIP3    H178394   3.374   1.523   2.806  1.9084 -0.3965  0.1413
18993TIP3    H278395   3.383   1.469   2.665  0.0222  0.8416 -0.4895
18994TIP3   OH278396   4.681   5.760  15.239 -0.2329 -0.1278 -0.2199
18994TIP3    H178397   4.765   5.772  15.283 -0.7726  0.3336  0.7190
18994TIP3    H278398   4.682   5.669  15.210  0.2307 -0.3901  0.5844
18995TIP3   OH278399   2.904   0.972  14.156 -0.3382 -0.0611 -0.5145
18995TIP3    H178400   2.961   1.045  14.133 -1.0086  0.9964  1.0421
18995TIP3    H278401   2.955   0.894  14.134  0.5285  0.8398 -1.8689
18996TIP3   OH278402   5.054   0.698  14.886 -0.3231  0.8272 -0.2050
18996TIP3    H178403   5.058   0.713  14.980  0.2776  0.8082 -0.2239
18996TIP3    H278404   5.140   0.725  14.854  0.8254 -2.5050 -0.2682
18997TIP3   OH278405   4.947   6.103   3.437 -0.0314  0.1115 -0.2784
18997TIP3    H178406   5.019   6.055   3.479  0.4404 -0.4268 -1.6132
18997TIP3    H278407   4.873   6.092   3.496 -0.2479 -3.1826 -0.9309
18998TIP3   OH278408   2.882   0.449   3.559  0.5833 -0.0267 -0.2038
18998TIP3    H178409   2.861   0.543   3.553  3.7043  0.7271 -0.9480
18998TIP3    H278410   2.845   0.411   3.480 -0.9421  0.4693  0.2283
18999TIP3   OH278411   1.811   3.568   0.760 -0.4970  0.1828  0.0031
18999TIP3    H178412   1.813   3.479   0.725  0.3466  0.3725 -0.4573
18999TIP3    H278413   1.815   3.624   0.683 -2.1493  0.6458  0.2174
19000TIP3   OH278414   2.030   4.076   1.598  0.0098 -0.1446 -0.1673
19000TIP3    H178415   2.034   3.997   1.653 -0.9344 -0.9624 -1.2146
19000TIP3    H278416   1.939   4.103   1.601  0.5592  1.7723  1.2774
19001TIP3   OH278417   1.989   1.288  14.858 -0.0384 -0.2424 -0.5316
19001TIP3    H178418   2.084   1.291  14.848  0.0396  1.2064  0.2608
19001TIP3    H278419   1.955   1.279  14.769  0.8302 -0.2667 -0.8650
19002TIP3   OH278420   4.221   2.316  14.791  0.3439 -0.3138 -0.1748
19002TIP3    H178421   4.173   2.265  14.726  0.2608 -1.2500  0.5868
19002TIP3    H278422   4.225   2.404  14.755  0.6367 -0.8912 -1.6202
19003TIP3   OH278423   6.101   2.345   5.081 -0.4207  0.4192  0.6458
19003TIP3    H178424   6.065   2.416   5.028 -2.0418  0.3671  1.6270
19003TIP3    H278425   6.196   2.359   5.079 -0.5842  1.5285 -0.6639
19004TIP3   OH278426   5.802   5.600   6.044 -0.2481 -0.4441 -0.1586
19004TIP3    H178427   5.731   5.560   6.093 -0.2585 -1.1088 -0.7072
19004TIP3    H278428   5.881   5.561   6.081 -0.2084 -0.2657 -0.0549
19005TIP3   OH278429   1.663   6.157  11.726  0.2685 -0.1810 -0.3344
19005TIP3    H178430   1.704   6.074  11.752  0.8908  0.1449 -0.2556
19005TIP3    H278431   1.654   6.150  11.631  0.4154 -0.2954 -0.3410
19006TIP3   OH278432   3.366   1.121  15.347  0.4133  0.3123  0.2406
19006TIP3    H178433   3.387   1.177  15.273  0.6334  0.2384  0.2459
19006TIP3    H278434   3.382   1.176  15.424 -0.0564  0.4694  0.2282
19007TIP3   OH278435   3.248   6.574  15.086  0.4610  0.3235 -0.0060
19007TIP3    H178436   3.261   6.521  15.165 -0.1454  0.1819  0.0012
19007TIP3    H278437   3.336   6.584  15.050  0.6239 -0.4549  0.1452
19008TIP3   OH278438   5.127   2.566  11.002 -0.0348 -0.0923 -0.0072
19008TIP3    H178439   5.146   2.480  10.966 -0.8847 -1.0907  1.7788
19008TIP3    H278440   5.147   2.627  10.931  0.6574 -1.7377 -1.2928
19009TIP3   OH278441   5.507   3.621  12.671  0.0139 -0.9485 -0.1717
19009TIP3    H178442   5.487   3.573  12.591 -0.4878 -0.1269 -0.5439
19009TIP3    H278443   5.422   3.636  12.713  0.1895 -0.6287  0.0797
19010TIP3   OH278444   4.621   0.523   3.274  0.4597  0.1236  0.0646
19010TIP3    H178445   4.614   0.613   3.308 -2.2502 -0.4418  1.2649
19010TIP3    H278446   4.598   0.531   3.182  0.8681  0.7329  0.0049
19011TIP3   OH278447   0.978   3.873  15.506  0.2515 -0.3778  0.1421
19011TIP3    H178448   1.061   3.892  15.550 -0.7699 -1.1833  2.5915
19011TIP3    H278449   0.970   3.778  15.511 -0.0757 -0.4626 -1.5796
19012TIP3   OH278450   0.834   4.649  11.370 -0.1032 -0.1692 -0.2532
19012TIP3    H178451   0.798   4.729  11.331  0.7190  0.6428  0.5820
19012TIP3    H278452   0.908   4.626  11.313  1.9796  1.8143  1.4701
19013TIP3   OH278453   0.882   5.807  16.403 -1.0890 -0.6145 -0.2405
19013TIP3    H178454   0.937   5.854  16.340 -0.2196  0.4592  1.2566
19013TIP3    H278455   0.881   5.716  16.371  0.2594 -0.3337 -1.1664
19014TIP3   OH278456   4.095   2.995  13.803  0.3851 -0.0400  0.2927
19014TIP3    H178457   4.046   2.950  13.872  1.0154 -0.1108  0.6949
19014TIP3    H278458   4.155   3.053  13.849  0.2900  0.4713 -0.2089
19015TIP3   OH278459   1.642   4.063  11.335 -0.2930 -0.4674  0.2500
19015TIP3    H178460   1.690   4.132  11.290 -1.0885 -1.4660 -2.3380
19015TIP3    H278461   1.704   4.027  11.399  0.6703  1.4734  0.4881
19016TIP3   OH278462   3.680   5.319   4.108  0.0417 -0.0314  0.1178
19016TIP3    H178463   3.667   5.404   4.149  0.6720  0.2321 -0.2165
19016TIP3    H278464   3.637   5.326   4.023 -0.1363 -0.1398  0.1975
19017TIP3   OH278465   3.660   0.474  11.106  0.0931 -0.1505  0.0763
19017TIP3    H178466   3.615   0.397  11.141 -0.2479 -0.0825 -0.2010
19017TIP3    H278467   3.599   0.510  11.041  0.9140 -0.5759 -0.9777
19018TIP3   OH278468   5.827   2.890   4.624  0.6090 -0.0947 -0.0402
19018TIP3    H178469   5.757   2.906   4.687  1.7735  1.1380  0.9873
19018TIP3    H278470   5.819   2.796   4.604 -1.2992  0.0017  0.0381
19019TIP3   OH278471   4.665   3.607  16.259 -0.3423  0.3737 -0.3436
19019TIP3    H178472   4.677   3.541  16.328 -2.3950 -1.7031 -1.8119
19019TIP3    H278473   4.748   3.607  16.212 -0.0225 -0.6249  0.1753
19020TIP3   OH278474   2.621   1.090   4.604 -0.0560 -0.0619  0.3411
19020TIP3    H178475   2.528   1.083   4.626 -0.2330  0.5941 -0.1778
19020TIP3    H278476   2.647   1.001   4.581 -0.1124 -0.5810  2.1900
19021TIP3   OH278477   0.065   6.287  16.708  0.0025  0.4805  0.4214
19021TIP3    H178478   0.111   6.225  16.764 -1.2389  0.0022  0.9543
19021TIP3    H278479   0.058   6.241  16.623 -0.1447  0.2483  0.5578
19022TIP3   OH278480   0.651   3.421  13.696  0.3333 -0.0338  0.0975
19022TIP3    H178481   0.611   3.477  13.630  2.5991  1.4252 -0.1720
19022TIP3    H278482   0.589   3.351  13.710 -2.1391  1.9166 -0.4399
19023TIP3   OH278483   5.795   0.987  11.182 -0.3728 -0.2267  0.0592
19023TIP3    H178484   5.721   1.043  11.157 -1.0566 -1.3468 -0.5276
19023TIP3    H278485   5.873   1.037  11.157 -0.9754  0.1974 -1.0494
19024TIP3   OH278486   2.986   0.450   4.454 -0.0778 -0.3672  0.1768
19024TIP3    H178487   2.913   0.418   4.505 -1.1758 -0.6329 -1.4841
19024TIP3    H278488   3.019   0.525   4.503 -1.9746  0.2524  0.5833
19025TIP3   OH278489   0.343   6.557   3.913 -0.6649 -0.2539  0.0087
19025TIP3    H178490   0.378   6.596   3.993 -1.9895 -0.3381  0.6539
19025TIP3    H278491   0.411   6.495   3.884  0.6226  1.0837  0.0335
19026TIP3   OH278492   4.610   1.495   5.019  0.0306  0.0510 -0.7083
19026TIP3    H178493   4.540   1.494   4.953  0.6097  0.6680 -1.3488
19026TIP3    H278494   4.616   1.404   5.048  1.6973 -0.9233 -3.6216
19027TIP3   OH278495   3.597   4.606   2.332  0.1653  0.6734 -0.7959
19027TIP3    H178496   3.616   4.532   2.273 -1.1510  0.1623 -0.6169
19027TIP3    H278497   3.564   4.674   2.274  0.3466  0.7359 -0.8275
19028TIP3   OH278498   0.563   6.548  16.609 -0.3838  0.3258  0.6502
19028TIP3    H178499   0.590   6.636  16.586  1.6334 -0.3287  0.3229
19028TIP3    H278500   0.570   6.498  16.527 -0.2403 -0.4210  1.1062
19029TIP3   OH278501   4.287   5.158   2.869  0.3300 -0.1364 -0.3065
19029TIP3    H178502   4.380   5.133   2.868  0.6316  0.5696  2.1462
19029TIP3    H278503   4.241   5.078   2.844  1.5667 -0.8920 -0.2942
19030TIP3   OH278504   2.836   3.555  15.900 -0.9262 -0.1299  0.5344
19030TIP3    H178505   2.808   3.576  15.811  0.1952  0.1712  0.2279
19030TIP3    H278506   2.778   3.605  15.957 -0.6606  0.9224 -0.0872
19031TIP3   OH278507   4.137   5.313  14.413 -0.0878  0.0638 -0.3801
19031TIP3    H178508   4.193   5.258  14.468 -1.9399 -0.5156  0.9941
19031TIP3    H278509   4.180   5.312  14.327  2.8955  0.9861  0.9691
19032TIP3   OH278510   6.502   3.574  12.225  0.0860  0.0026  0.5055
19032TIP3    H178511   6.480   3.528  12.305  1.6334  0.8651  1.4822
19032TIP3    H278512   6.570   3.636  12.251  0.8940  0.0620 -1.5421
19033TIP3   OH278513   5.654   3.404   2.010 -0.5999 -0.4092  0.8040
19033TIP3    H178514   5.635   3.491   2.043 -0.5221 -0.0857  0.0245
19033TIP3    H278515   5.603   3.398   1.929 -4.3721 -2.8008  3.0423
19034TIP3   OH278516   6.384   2.568  13.835  0.5714 -0.1723  0.6124
19034TIP3    H178517   6.474   2.600  13.834  0.7712 -0.7248  0.6265
19034TIP3    H278518   6.336   2.635  13.884  0.8755  0.3756  0.1801
19035TIP3   OH278519   3.591   1.745   1.272 -0.2743 -0.1685 -0.5706
19035TIP3    H178520   3.667   1.791   1.307 -0.0273  0.6844 -2.1209
19035TIP3    H278521   3.592   1.659   1.315  0.7051  0.3598  0.5056
19036TIP3   OH278522   2.228   0.475  15.809 -0.0100 -0.3140  0.1907
19036TIP3    H178523   2.260   0.547  15.864  1.9312 -1.6777  0.9565
19036TIP3    H278524   2.137   0.464  15.836  0.7421 -0.6319  2.9098
19037TIP3   OH278525   6.500   6.657  12.424 -0.0394  0.3411  0.3718
19037TIP3    H178526   6.409   6.652  12.452  0.3145  0.0679  1.5108
19037TIP3    H278527   6.551   6.658  12.505  0.9476  1.1961 -0.2318
19038TIP3   OH278528   1.960   0.458  16.692  0.1439  0.0039  0.7266
19038TIP3    H178529   2.002   0.373  16.678  0.1295 -0.4490  2.9960
19038TIP3    H278530   1.952   0.496  16.605  1.3678 -1.7424 -0.2001
19039TIP3   OH278531   0.479   4.751   5.325  0.0639 -0.1755  0.1114
19039TIP3    H178532   0.477   4.683   5.258 -1.2111  0.5895 -0.6533
19039TIP3    H278533   0.500   4.703   5.406  1.3206 -1.1515 -0.7410
19040TIP3   OH278534   3.920   6.601  12.660 -0.2916 -0.0093 -0.2537
19040TIP3    H178535   3.967   6.630  12.738  0.0074  0.3648 -0.5599
19040TIP3    H278536   3.858   6.536  12.691 -0.0860  0.0400  0.2740
19041TIP3   OH278537   2.027   2.639  15.444 -0.1532 -0.4748  0.0692
19041TIP3    H178538   2.001   2.686  15.365  0.8147 -0.3810 -0.2110
19041TIP3    H278539   2.012   2.547  15.424 -0.2569 -0.4224 -0.0906
19042TIP3   OH278540   1.643   4.162   3.542  0.3722  0.1533  0.6213
19042TIP3    H178541   1.668   4.160   3.634  0.1334 -0.5714  0.6801
19042TIP3    H278542   1.721   4.132   3.495  0.5464  0.6811  0.5763
19043TIP3   OH278543   2.673   6.301   4.963 -0.3324  0.1691  0.3128
19043TIP3    H178544   2.718   6.368   5.015  1.3872 -0.6449 -0.0481
19043TIP3    H278545   2.717   6.220   4.987 -1.5101 -0.6559 -0.2390
19044TIP3   OH278546   3.237   0.550   4.660 -0.2767 -0.1637  0.7387
19044TIP3    H178547   3.290   0.605   4.717  0.0176  0.1078  0.2021
19044TIP3    H278548   3.149   0.556   4.696 -0.0620 -0.1321  1.2663
19045TIP3   OH278549   1.052   0.516   3.990 -0.1102 -0.8642  0.3975
19045TIP3    H178550   1.033   0.429   3.956 -0.0965 -0.7200  0.0150
19045TIP3    H278551   0.997   0.575   3.938  2.0222 -0.3178 -1.4348
19046TIP3   OH278552   6.303   1.423  13.164 -0.4402  0.1202  0.1967
19046TIP3    H178553   6.371   1.401  13.101 -1.2260  0.8489 -0.9281
19046TIP3    H278554   6.246   1.346  13.167 -0.2919  0.0094  0.1745
19047TIP3   OH278555   6.384   5.325   1.277 -0.2149 -0.0175 -0.2762
19047TIP3    H178556   6.321   5.259   1.250  0.3313 -0.5291 -0.3106
19047TIP3    H278557   6.416   5.295   1.362 -0.7275  0.7451  0.2000
19048TIP3   OH278558   5.507   4.248   3.045 -0.3651  0.4106 -0.3170
19048TIP3    H178559   5.430   4.197   3.022  0.9192 -2.0091  0.4366
19048TIP3    H278560   5.492   4.277   3.135 -0.6353  0.4578 -0.3779
19049TIP3   OH278561   4.573   2.109   1.466  0.0209 -0.2195 -0.3164
19049TIP3    H178562   4.625   2.091   1.545 -0.3493  0.6962  0.1640
19049TIP3    H278563   4.562   2.024   1.424  0.1356 -0.7524  0.6887
19050TIP3   OH278564   6.317   4.182  16.731  0.0675 -0.1860  0.2050
19050TIP3    H178565   6.349   4.270  16.707 -0.3682  0.1177  0.7194
19050TIP3    H278566   6.222   4.191  16.732 -0.0718 -1.1626 -1.6003
19051TIP3   OH278567   4.051   5.629   5.894 -0.0623 -0.3940  0.3214
19051TIP3    H178568   4.104   5.606   5.817  1.7603 -2.1415  1.9993
19051TIP3    H278569   4.111   5.678   5.951 -0.3294 -1.9956  2.0677
19052TIP3   OH278570   5.951   0.391   3.293  0.3367  0.2039  0.5636
19052TIP3    H178571   6.002   0.313   3.273 -0.4494  0.1569 -1.4401
19052TIP3    H278572   5.967   0.450   3.220 -1.1425  0.8591  0.7265
19053TIP3   OH278573   5.951   2.593   2.574  0.1126  0.3514 -0.7615
19053TIP3    H178574   5.872   2.647   2.581  0.5021  0.7631  1.2282
19053TIP3    H278575   6.020   2.646   2.613  0.4033 -1.7132  1.8203
19054TIP3   OH278576   0.567   1.468   0.172 -0.1640 -0.6315  0.2797
19054TIP3    H178577   0.536   1.468   0.081 -1.2383  0.8989  0.6068
19054TIP3    H278578   0.661   1.454   0.165 -0.0351  0.6707 -1.1597
19055TIP3   OH278579   2.271   0.443   4.345 -0.1787  0.0840 -0.4433
19055TIP3    H178580   2.264   0.424   4.252 -0.1193 -0.2814 -0.3718
19055TIP3    H278581   2.251   0.361   4.389 -0.3501  0.2910 -0.1274
19056TIP3   OH278582   2.255   2.798  13.281 -0.6943 -0.2881 -0.8759
19056TIP3    H178583   2.204   2.843  13.348  0.9824 -0.0633  0.3109
19056TIP3    H278584   2.249   2.856  13.205 -1.0583  0.4236 -0.3282
19057TIP3   OH278585   6.715   5.283  10.754 -0.3324 -0.2009 -0.0374
19057TIP3    H178586   6.790   5.341  10.741 -0.0592 -0.2651  1.1746
19057TIP3    H278587   6.752   5.195  10.753 -0.4351 -0.2482  0.2702
19058TIP3   OH278588   6.731   1.951   0.572  0.1768 -0.0271 -0.1826
19058TIP3    H178589   6.668   2.019   0.550 -0.3681 -0.3551  0.3428
19058TIP3    H278590   6.696   1.872   0.531  0.9272  0.0368 -0.9850
19059TIP3   OH278591   4.099   0.418  11.100  0.3885  0.2648 -0.3748
19059TIP3    H178592   4.034   0.389  11.036 -1.0722  0.1352  1.1046
19059TIP3    H278593   4.151   0.339  11.118 -0.0970 -0.0650 -0.3803
19060TIP3   OH278594   0.133   3.992   6.324  0.6177  0.0506 -0.0339
19060TIP3    H178595   0.112   3.929   6.393 -0.6404 -1.1068 -1.4084
19060TIP3    H278596   0.076   4.067   6.342 -1.4731 -1.2081 -1.1144
19061TIP3   OH278597   2.989   3.545   5.077 -0.2731 -0.4098  0.7252
19061TIP3    H178598   2.946   3.559   4.992  1.9319 -0.8613 -0.5297
19061TIP3    H278599   2.920   3.509   5.132 -1.4418 -1.4830 -1.3005
19062TIP3   OH278600   1.859   6.187  16.357  0.0271 -0.0941 -0.3514
19062TIP3    H178601   1.793   6.249  16.327 -1.4422 -0.8201  1.2394
19062TIP3    H278602   1.826   6.101  16.332  1.7848 -0.3562 -2.0435
19063TIP3   OH278603   0.972   6.000  13.386 -0.2872 -0.7636 -0.1364
19063TIP3    H178604   1.017   5.940  13.446  0.7968  1.4509  1.4191
19063TIP3    H278605   0.880   5.990  13.407 -0.1260 -1.8585  0.0986
19064TIP3   OH278606   5.428   3.115  12.966  0.3354  0.5121 -0.1738
19064TIP3    H178607   5.451   3.100  12.874 -0.7597  2.9554 -0.9204
19064TIP3    H278608   5.509   3.101  13.014  1.8867  2.6554 -1.9714
19065TIP3   OH278609   0.038   2.967  16.215 -0.2320  0.6696 -0.2717
19065TIP3    H178610   0.072   2.969  16.126  0.1299  0.1923 -0.1492
19065TIP3    H278611  -0.037   2.907  16.211 -0.1762  0.5967 -0.2461
19066TIP3   OH278612   6.608   5.427  14.184 -0.0630  0.0046  0.7756
19066TIP3    H178613   6.562   5.493  14.132  0.1239 -0.6089 -0.1988
19066TIP3    H278614   6.558   5.421  14.265 -1.3308 -0.1882  0.0010
19067TIP3   OH278615   4.979   5.430   1.463  0.0954 -0.0638  0.0681
19067TIP3    H178616   4.942   5.345   1.487  1.3176 -0.6790 -0.1370
19067TIP3    H278617   5.035   5.454   1.538 -0.4219  0.6740  0.2263
19068TIP3   OH278618   6.600   5.335  17.013 -0.2245 -0.0495  0.1217
19068TIP3    H178619   6.507   5.313  17.021 -0.6578  1.0046 -1.5923
19068TIP3    H278620   6.604   5.429  17.030  0.3478  0.1296 -0.9242
19069TIP3   OH278621   2.378   3.225  17.149 -0.1184  0.4260  0.3147
19069TIP3    H178622   2.464   3.245  17.185  0.6287 -0.4883 -0.9204
19069TIP3    H278623   2.394   3.198  17.059 -1.7560  0.7624 -0.1235
19070TIP3   OH278624   6.330   6.741   6.417 -0.9103 -0.5460 -0.0130
19070TIP3    H178625   6.374   6.787   6.489  1.2346 -1.3781 -0.7426
19070TIP3    H278626   6.334   6.649   6.441 -1.4864 -0.7099 -0.5199
19071TIP3   OH278627   2.248   2.025  16.278  0.1916  0.4317  0.5286
19071TIP3    H178628   2.221   1.935  16.298 -1.6448  0.6912 -0.6219
19071TIP3    H278629   2.342   2.026  16.299  0.0253 -1.4221  1.6200
19072TIP3   OH278630   2.537   5.831  12.697  0.2916 -0.1490 -0.1628
19072TIP3    H178631   2.501   5.743  12.712  1.2746 -0.5374 -0.0516
19072TIP3    H278632   2.558   5.832  12.604  1.4766 -0.5003  0.0831
19073TIP3   OH278633   1.681   2.470   5.913  0.0565 -0.2462 -0.3328
19073TIP3    H178634   1.678   2.566   5.909  0.6330 -0.2544 -2.0320
19073TIP3    H278635   1.738   2.450   5.987 -0.0937  0.7308  0.0544
19074TIP3   OH278636   5.744   0.470  11.989 -0.0986  0.0380  0.4176
19074TIP3    H178637   5.676   0.535  12.006  0.4759  0.6604  0.3912
19074TIP3    H278638   5.740   0.410  12.064  0.3756  0.9987  1.2332
19075TIP3   OH278639   4.312   6.301   1.555  0.3193  0.3948  0.2349
19075TIP3    H178640   4.380   6.245   1.592 -0.6185 -1.2269 -0.3815
19075TIP3    H278641   4.264   6.333   1.632  1.4520  1.1880  0.6446
19076TIP3   OH278642   0.055   4.281   5.460  0.0147 -0.4335 -0.7418
19076TIP3    H178643   0.063   4.364   5.414  2.5287 -0.6599 -0.8784
19076TIP3    H278644   0.110   4.291   5.538  0.3531 -1.9339 -0.7490
19077TIP3   OH278645   3.131   6.440  13.740  0.3625  0.7062 -0.6897
19077TIP3    H178646   3.041   6.412  13.754  0.9281 -0.0892  2.1747
19077TIP3    H278647   3.125   6.534  13.725 -0.9376  0.7749  0.0990
19078TIP3   OH278648   1.407   6.650  15.604  0.4874  1.3154  0.0074
19078TIP3    H178649   1.365   6.565  15.617 -0.8211  1.8127 -0.8533
19078TIP3    H278650   1.378   6.702  15.679  0.5698  1.2791  0.0646
19079TIP3   OH278651   1.262   6.574  16.241  0.8758  0.3903 -0.2235
19079TIP3    H178652   1.178   6.556  16.285  0.0112  3.9808 -0.0514
19079TIP3    H278653   1.328   6.550  16.306  0.0421 -1.9890 -0.1502
19080TIP3   OH278654   6.230   1.949  11.553 -0.6874  0.0292  0.0382
19080TIP3    H178655   6.293   1.880  11.573 -0.2293  1.2241  3.4111
19080TIP3    H278656   6.283   2.018  11.512 -0.5726 -0.4674 -0.6559
19081TIP3   OH278657   6.194   5.333  14.337  0.4487  0.0475 -0.4463
19081TIP3    H178658   6.129   5.393  14.372  1.0702  0.2855  0.3485
19081TIP3    H278659   6.272   5.387  14.324 -0.0675  0.2506 -3.4144
19082TIP3   OH278660   2.879   5.610  11.991  0.2859  0.2875 -0.3095
19082TIP3    H178661   2.883   5.583  12.082  0.3925 -0.0831 -0.4237
19082TIP3    H278662   2.958   5.662  11.977  0.8012 -0.5228 -0.4675
19083TIP3   OH278663   4.344   0.350  17.313  0.1898  0.2204  0.1075
19083TIP3    H178664   4.406   0.316  17.248  1.1466  0.7291  0.7300
19083TIP3    H278665   4.274   0.391  17.261 -0.2675 -1.4234 -0.6259
19084TIP3   OH278666   3.509   2.044   5.389 -1.0539  0.2312 -0.5446
19084TIP3    H178667   3.493   2.122   5.442 -1.0634 -0.8044  1.0485
19084TIP3    H278668   3.568   2.074   5.321 -1.2608  1.6915 -0.1333
19085TIP3   OH278669   2.035   2.328  17.239  0.5146 -0.2169  0.2157
19085TIP3    H178670   2.047   2.255  17.178  0.0118 -0.1014 -0.0312
19085TIP3    H278671   1.971   2.296  17.303  0.1149  0.0777 -0.0258
19086TIP3   OH278672   0.409   1.798  14.654 -0.0793  0.6892 -0.0666
19086TIP3    H178673   0.442   1.885  14.630 -3.4736  1.6009 -2.0122
19086TIP3    H278674   0.380   1.759  14.572 -0.2982 -1.6035  1.0180
19087TIP3   OH278675   5.399   4.001  17.268 -0.1158  0.0509 -0.9448
19087TIP3    H178676   5.421   3.939  17.337  0.5874  0.5737 -0.6929
19087TIP3    H278677   5.306   4.021  17.283 -0.4466 -1.1871 -1.2404
19088TIP3   OH278678   5.216   6.748  11.865 -0.3455 -0.4259  0.2430
19088TIP3    H178679   5.142   6.687  11.862 -0.6176 -0.2039  1.7264
19088TIP3    H278680   5.217   6.780  11.955 -1.5050  3.3608 -0.8988
19089TIP3   OH278681   1.483   0.954  14.574  0.0526 -0.4670  0.0693
19089TIP3    H178682   1.400   0.953  14.621 -0.4631 -0.5541 -0.8253
19089TIP3    H278683   1.550   0.962  14.643 -0.6193 -1.5992  0.8723
19090TIP3   OH278684   4.234   5.161   6.381  0.3861 -0.8942  0.7227
19090TIP3    H178685   4.249   5.164   6.475 -0.4586 -1.0928  0.8709
19090TIP3    H278686   4.215   5.070   6.362 -0.4871 -0.6802  0.5349
19091TIP3   OH278687   0.410   2.922  13.872 -0.5981 -0.2980 -0.5738
19091TIP3    H178688   0.348   2.857  13.907 -0.5663 -0.1839 -0.3035
19091TIP3    H278689   0.410   2.992  13.938  0.6948 -0.8149  0.0044
19092TIP3   OH278690   5.237   1.492   0.035 -0.0368 -0.3641 -0.2883
19092TIP3    H178691   5.231   1.563  -0.029 -1.6727 -0.6487 -0.4858
19092TIP3    H278692   5.313   1.442   0.008  1.2287  1.3622 -0.0843
19093TIP3   OH278693   0.603   3.202  15.213  0.1995 -0.0416  0.4288
19093TIP3    H178694   0.550   3.255  15.273 -0.4382 -0.5959  0.3703
19093TIP3    H278695   0.609   3.117  15.257 -0.7047 -0.6141 -0.5234
19094TIP3   OH278696   2.943   6.676  11.247  0.4304  0.6776 -0.1746
19094TIP3    H178697   2.924   6.597  11.298  0.2847  0.9586  0.2103
19094TIP3    H278698   2.920   6.652  11.157  3.6481 -0.8895 -0.7234
19095TIP3   OH278699   3.981   4.508   5.683  1.1236 -0.3048  0.1666
19095TIP3    H178700   3.940   4.517   5.597 -1.9724  1.0339  1.6134
19095TIP3    H278701   3.991   4.414   5.695 -0.8676 -0.6789 -0.6731
19096TIP3   OH278702   1.888   1.507   4.578  0.4543 -0.5581  0.2171
19096TIP3    H178703   1.915   1.442   4.643 -0.4974 -1.2164 -0.0213
19096TIP3    H278704   1.803   1.538   4.610  1.4361  1.5090  0.9985
19097TIP3   OH278705   2.090   2.453   2.809 -0.0966 -0.4544  0.1090
19097TIP3    H178706   2.025   2.516   2.778  0.1826 -0.5060 -0.5938
19097TIP3    H278707   2.039   2.389   2.858 -0.4755 -0.0773  0.2127
19098TIP3   OH278708   0.098   2.963   0.604  0.2746  0.2479  0.0974
19098TIP3    H178709   0.171   2.917   0.563 -0.5584 -0.7694 -0.2699
19098TIP3    H278710   0.115   2.954   0.698  0.3956 -0.3724  0.0235
19099TIP3   OH278711   4.348   1.173  15.333 -0.4237  0.1707  0.2203
19099TIP3    H178712   4.289   1.183  15.407  0.9913 -1.3026  1.6306
19099TIP3    H278713   4.415   1.112  15.363  1.9106  1.8320 -1.2389
19100TIP3   OH278714   6.702   4.817  13.185 -0.6540 -0.1618 -0.9347
19100TIP3    H178715   6.669   4.905  13.169  1.5094  0.9120  0.1211
19100TIP3    H278716   6.797   4.828  13.195 -0.1804 -2.7655 -1.8228
19101TIP3   OH278717   3.467   4.882   4.077 -0.1407 -0.4472 -0.1151
19101TIP3    H178718   3.383   4.904   4.038  0.0550  0.0276 -0.2821
19101TIP3    H278719   3.484   4.953   4.139  0.4124 -0.2122 -0.5223
19102TIP3   OH278720   0.056   6.720   4.122  0.3201 -0.3129  0.5535
19102TIP3    H178721   0.015   6.723   4.035  0.0331 -0.3056  0.6892
19102TIP3    H278722   0.131   6.779   4.114  1.7698 -2.1894 -0.4433
19103TIP3   OH278723   5.024   5.992   6.452  0.0575  0.8727  0.6680
19103TIP3    H178724   5.044   6.086   6.457 -0.5004  0.9233  2.4260
19103TIP3    H278725   4.932   5.985   6.479 -0.5796  0.0019 -1.4535
19104TIP3   OH278726   4.167   0.150  17.251  0.7129  0.3956 -0.1975
19104TIP3    H178727   4.083   0.196  17.258  1.1055  0.8579  2.4944
19104TIP3    H278728   4.224   0.193  17.315  2.0923 -1.8130  0.1807
19105TIP3   OH278729   0.849   2.979  12.863  0.3943  0.7947  0.6108
19105TIP3    H178730   0.828   2.970  12.956 -0.6007 -0.0526  0.3152
19105TIP3    H278731   0.768   3.009  12.822  0.6950  0.7141 -0.0658
19106TIP3   OH278732   3.022   4.946   6.614  0.0016 -0.3847  0.2267
19106TIP3    H178733   3.000   4.870   6.668  1.2951  0.2874  1.7647
19106TIP3    H278734   2.958   5.013   6.639 -0.1312 -0.4441  0.0507
19107TIP3   OH278735   1.375   4.186   2.700  0.2375 -0.2451 -0.0214
19107TIP3    H178736   1.452   4.169   2.755  1.2561  0.8199 -1.0831
19107TIP3    H278737   1.386   4.127   2.625 -0.4186 -0.6767  0.2129
19108TIP3   OH278738   0.180   4.792   0.175  0.4400 -0.3170  0.2899
19108TIP3    H178739   0.125   4.832   0.108 -0.5248  0.9890  1.7628
19108TIP3    H278740   0.203   4.706   0.140  0.2578  0.4292 -1.8204
19109TIP3   OH278741   3.129   3.470   1.526  0.7471  0.2012 -0.0643
19109TIP3    H178742   3.072   3.546   1.520  0.1735 -0.1392  0.9312
19109TIP3    H278743   3.217   3.505   1.517  0.4386  0.8291 -0.7917
19110TIP3   OH278744   1.077   4.832  16.115 -0.1654 -0.4992  0.0062
19110TIP3    H178745   0.996   4.789  16.141  0.5973 -0.7677  2.0938
19110TIP3    H278746   1.050   4.921  16.091 -1.3979 -1.3227 -1.8868
19111TIP3   OH278747   3.379   5.907   1.649  0.6464 -0.3569 -0.0238
19111TIP3    H178748   3.349   5.818   1.632  1.6707 -0.6574 -0.3213
19111TIP3    H278749   3.377   5.916   1.744 -1.4940  0.0454 -0.0548
19112TIP3   OH278750   1.306   5.316  13.782  0.3426 -0.3558  0.0544
19112TIP3    H178751   1.244   5.386  13.765  0.7516 -0.3142 -1.3314
19112TIP3    H278752   1.252   5.243  13.813 -0.0653  0.5955  1.6973
19113TIP3   OH278753   1.671   6.262   2.959 -0.1328 -0.1148  0.0727
19113TIP3    H178754   1.686   6.346   3.002 -1.2637 -0.1151  0.4989
19113TIP3    H278755   1.644   6.204   3.030 -1.2746 -0.3185 -0.5092
19114TIP3   OH278756   1.619   2.824  17.292 -0.2984 -0.2184  0.1373
19114TIP3    H178757   1.528   2.847  17.307 -0.1572  0.4777 -0.0625
19114TIP3    H278758   1.667   2.906  17.299  0.1088 -0.2852 -1.4363
19115TIP3   OH278759   3.140   5.741   1.685 -0.0914 -0.1921  0.5247
19115TIP3    H178760   3.079   5.713   1.753 -0.6877 -1.0464 -0.3275
19115TIP3    H278761   3.084   5.775   1.615  0.5562  1.9284  0.9506
19116TIP3   OH278762   3.144   3.967   1.120  0.0406  0.4098  1.1558
19116TIP3    H178763   3.194   3.972   1.039 -1.1983 -0.3352  0.3214
19116TIP3    H278764   3.166   4.049   1.166  1.8193  0.2091  0.7376
19117TIP3   OH278765   2.591   3.264   5.223 -0.1275  0.4512 -0.4356
19117TIP3    H178766   2.525   3.195   5.219  0.7957 -0.4411 -0.7735
19117TIP3    H278767   2.547   3.336   5.267 -1.1057 -0.3649 -0.0217
19118TIP3   OH278768   5.662   5.107  17.225 -0.1082 -0.3021  0.4669
19118TIP3    H178769   5.693   5.027  17.267  1.1578 -0.9898 -1.6269
19118TIP3    H278770   5.607   5.077  17.153 -0.2482  0.7334  0.1188
19119TIP3   OH278771   0.402   2.750  16.310  0.5607 -0.2453  0.4079
19119TIP3    H178772   0.340   2.684  16.277  0.4033  0.0475  0.1068
19119TIP3    H278773   0.458   2.768  16.235  0.5691  0.0031  0.4748
19120TIP3   OH278774   2.997   5.068  13.206 -0.4111  0.3115  0.2045
19120TIP3    H178775   2.939   5.130  13.161  0.4276  1.1233  0.2320
19120TIP3    H278776   2.947   5.040  13.283 -1.4218 -0.2542 -0.6253
19121TIP3   OH278777   6.118   1.822  11.245 -0.2817  0.5550  0.3086
19121TIP3    H178778   6.197   1.789  11.288  0.4712  1.6074 -0.2193
19121TIP3    H278779   6.146   1.903  11.203 -1.6764  1.0047  0.1953
19122TIP3   OH278780   6.122   3.629   5.318 -0.2449 -0.1973 -0.2296
19122TIP3    H178781   6.148   3.558   5.258 -1.2913 -0.5090 -0.3286
19122TIP3    H278782   6.055   3.677   5.270  0.9781  1.3600 -0.4753
19123TIP3   OH278783   1.629   4.063  12.916 -0.1561 -0.5066 -0.3721
19123TIP3    H178784   1.539   4.068  12.948  0.0356 -1.7847  0.4494
19123TIP3    H278785   1.667   4.149  12.935 -1.0844 -0.0872 -0.3792
19124TIP3   OH278786   1.393   0.733  14.365  0.5772  0.1359  0.0078
19124TIP3    H178787   1.419   0.757  14.454  1.1538 -1.6019  0.3487
19124TIP3    H278788   1.298   0.735  14.366  0.5868  1.2551  0.3120
19125TIP3   OH278789   1.510   1.989   4.919 -0.0650 -0.5801 -0.0668
19125TIP3    H178790   1.425   1.959   4.885  1.2581 -1.9154 -2.4511
19125TIP3    H278791   1.528   1.931   4.992 -0.5313 -1.3004 -0.5058
19126TIP3   OH278792   5.849   1.891  17.126 -0.5360  0.0397  0.0244
19126TIP3    H178793   5.766   1.871  17.169 -0.3814  0.2936  0.4415
19126TIP3    H278794   5.829   1.960  17.064 -0.4700  0.7297  0.7533
19127TIP3   OH278795   0.240   6.184   3.861  0.4102  0.0487 -0.1733
19127TIP3    H178796   0.263   6.104   3.814 -1.2024 -1.4440  1.4664
19127TIP3    H278797   0.324   6.229   3.873  1.3935 -1.4848 -0.9153
19128TIP3   OH278798   0.628   1.701  17.008  0.4141 -0.4406  0.1700
19128TIP3    H178799   0.568   1.632  16.980  0.3204  0.0820 -0.9724
19128TIP3    H278800   0.703   1.693  16.948  0.8186 -0.1444  0.6338
19129TIP3   OH278801   2.353   6.742   5.158  0.0458 -0.3572  0.0552
19129TIP3    H178802   2.341   6.783   5.244  1.5141  1.4246 -0.5311
19129TIP3    H278803   2.310   6.801   5.097  0.3919 -0.7835 -0.6155
19130TIP3   OH278804   3.001   4.057   3.047  0.1200 -0.4678 -0.0599
19130TIP3    H178805   3.031   3.988   2.987  0.2147 -1.7044  1.3482
19130TIP3    H278806   2.947   4.011   3.111 -1.0052  1.0162  0.1089
19131TIP3   OH278807   4.539   3.816  13.131  0.2100 -0.5077  0.7469
19131TIP3    H178808   4.482   3.869  13.187 -0.1053 -0.0380 -0.0089
19131TIP3    H278809   4.487   3.738  13.112  0.6107 -1.0325  1.7195
19132TIP3   OH278810   3.919   0.012  14.251 -0.6203 -0.2561 -0.0805
19132TIP3    H178811   3.865   0.080  14.210  2.4880  0.4171 -3.5592
19132TIP3    H278812   3.991   0.060  14.293  0.9044 -1.2424 -1.4435
19133TIP3   OH278813   1.138   4.058   5.442  0.3624  0.1537 -0.2577
19133TIP3    H178814   1.076   4.020   5.505  1.7496 -0.4361  0.7997
19133TIP3    H278815   1.221   4.015   5.461  1.5854  2.3314 -0.2963
19134TIP3   OH278816   6.336   4.146  11.506 -0.6088 -0.1929  0.3648
19134TIP3    H178817   6.340   4.083  11.435  0.4653 -0.0851  0.3148
19134TIP3    H278818   6.268   4.113  11.564 -0.6439 -0.9354 -0.0914
19135TIP3   OH278819   1.157   1.055  17.289 -0.4702 -0.6353  0.0342
19135TIP3    H178820   1.228   0.998  17.262 -0.6006 -0.4550 -0.7127
19135TIP3    H278821   1.079   1.019  17.246 -0.8107 -0.7426  0.7186
19136TIP3   OH278822   1.514   2.270  12.231  0.2618  0.0474 -0.3863
19136TIP3    H178823   1.491   2.177  12.230 -0.5510  0.2406 -0.4337
19136TIP3    H278824   1.511   2.295  12.323  1.4223 -0.1850 -0.2673
19137TIP3   OH278825   4.111   2.448   2.393  0.0451  0.4586 -0.0237
19137TIP3    H178826   4.114   2.369   2.339  0.9753  0.2315  0.3359
19137TIP3    H278827   4.038   2.434   2.453  1.4805 -1.1077  1.4553
19138TIP3   OH278828   1.152   2.949  15.671  1.0824 -0.0757  0.3069
19138TIP3    H178829   1.180   2.934  15.761 -1.8699 -0.6005  1.2340
19138TIP3    H278830   1.085   3.017  15.677  1.0680  0.1259 -1.5498
19139TIP3   OH278831   3.496   5.166  16.258 -0.2230  0.1125 -0.7306
19139TIP3    H178832   3.459   5.214  16.332 -2.5044  0.4629 -1.9920
19139TIP3    H278833   3.516   5.079  16.293 -0.0402  0.6739  0.5867
19140TIP3   OH278834   5.284   2.195   4.996  0.1369  0.4807 -0.4501
19140TIP3    H178835   5.190   2.195   5.017  0.2451 -0.2506  0.0738
19140TIP3    H278836   5.327   2.193   5.082  0.6187 -0.2793 -0.7059
19141TIP3   OH278837   6.609   2.423   2.447 -0.0889 -0.0115 -0.2003
19141TIP3    H178838   6.605   2.489   2.516 -1.1245  0.2203 -0.4662
19141TIP3    H278839   6.656   2.466   2.375  0.9603 -0.2433  0.3325
19142TIP3   OH278840   4.604   1.893  14.316 -0.1871  0.6953 -0.4688
19142TIP3    H178841   4.509   1.904  14.309 -0.4381 -0.7270  0.2644
19142TIP3    H278842   4.625   1.918  14.406 -0.3410 -1.6515  0.2856
19143TIP3   OH278843   4.819   5.498   1.978  0.4297  0.5832 -0.3332
19143TIP3    H178844   4.756   5.549   1.928 -0.6461  1.1584  1.4998
19143TIP3    H278845   4.824   5.414   1.932 -1.4450  0.6470 -0.7303
19144TIP3   OH278846   2.828   2.858   4.922 -0.4010  0.0550 -0.2829
19144TIP3    H178847   2.736   2.835   4.913 -0.3631  0.1742 -1.0207
19144TIP3    H278848   2.831   2.920   4.995 -0.8655 -0.1314 -0.1006
19145TIP3   OH278849   5.225   6.367  12.554 -0.1769  0.2794 -0.4643
19145TIP3    H178850   5.160   6.350  12.622  0.3110  1.3728  0.2860
19145TIP3    H278851   5.232   6.283  12.507  1.0995 -1.2490  2.1834
19146TIP3   OH278852   5.794   1.261   5.292  0.4815 -0.1317 -0.5541
19146TIP3    H178853   5.888   1.279   5.283  0.2552  1.0421 -0.6527
19146TIP3    H278854   5.766   1.312   5.367 -0.1320 -0.3025 -0.6591
19147TIP3   OH278855   6.531   3.272  16.724 -0.2454 -0.5759 -0.3567
19147TIP3    H178856   6.562   3.289  16.635  1.5964 -0.4560  0.2638
19147TIP3    H278857   6.475   3.347  16.744  0.3573  0.0608 -0.9800
19148TIP3   OH278858   1.879   5.013   3.014  0.1404  0.2496 -0.3968
19148TIP3    H178859   1.869   5.000   3.108  3.5715 -1.1219 -0.0592
19148TIP3    H278860   1.883   4.925   2.978 -0.7865  0.7553 -1.8088
19149TIP3   OH278861   6.723   1.314  14.514 -0.4145  0.3468  0.2304
19149TIP3    H178862   6.663   1.261  14.566 -0.6667 -0.7322 -1.0980
19149TIP3    H278863   6.692   1.305  14.424  0.1398  1.9809 -0.1582
19150TIP3   OH278864   3.890   2.850   4.750  0.7610  0.2084  0.4154
19150TIP3    H178865   3.961   2.788   4.762 -0.8088 -1.6769  0.4862
19150TIP3    H278866   3.900   2.881   4.660  1.1054 -0.8003  0.0900
19151TIP3   OH278867   0.453   1.887  15.619 -0.3110 -0.5094 -0.0596
19151TIP3    H178868   0.545   1.881  15.595 -0.3495 -0.2692 -0.2706
19151TIP3    H278869   0.429   1.798  15.644 -0.3329 -0.8300 -1.1570
19152TIP3   OH278870   4.110   2.093  14.391  0.0926 -0.2622 -0.0860
19152TIP3    H178871   4.122   2.122  14.300  0.1138  1.4962  0.4323
19152TIP3    H278872   4.093   2.174  14.439  1.3473 -0.9962  1.6908
19153TIP3   OH278873   0.490   3.911  15.833 -0.0830  0.1275 -0.2990
19153TIP3    H178874   0.502   4.006  15.834 -1.2291  0.2907 -0.5013
19153TIP3    H278875   0.446   3.891  15.915  2.4686 -0.6171  1.0137
19154TIP3   OH278876   4.376   2.587   1.835  0.6157 -0.1193  0.6910
19154TIP3    H178877   4.296   2.567   1.884 -0.0392  0.6922 -0.0098
19154TIP3    H278878   4.445   2.541   1.882 -0.2621 -0.8452  1.3160
19155TIP3   OH278879   0.692   3.311  16.754 -0.3979  0.5273 -0.3075
19155TIP3    H178880   0.701   3.243  16.820  0.0555  0.0318 -0.8642
19155TIP3    H278881   0.622   3.279  16.696 -1.2988  1.2961  0.3232
19156TIP3   OH278882   0.688   1.975   5.661  0.5854 -0.7249 -0.1245
19156TIP3    H178883   0.611   1.929   5.627  1.3686 -1.7602 -0.5640
19156TIP3    H278884   0.747   1.905   5.689  1.0186  0.0695  1.0318
19157TIP3   OH278885   4.688   4.689  14.310 -0.6510  0.5026 -0.2689
19157TIP3    H178886   4.713   4.756  14.246  0.5910  0.2703 -0.0638
19157TIP3    H278887   4.740   4.612  14.284 -0.8142  0.1341  0.4792
19158TIP3   OH278888   2.813   5.247  16.766  0.0960 -0.2543 -0.0504
19158TIP3    H178889   2.896   5.205  16.741  1.0083 -0.0152  2.3127
19158TIP3    H278890   2.752   5.175  16.778 -0.4211 -0.3767 -2.8342
19159TIP3   OH278891   3.455   2.611   4.375 -0.3821 -0.3070 -0.3119
19159TIP3    H178892   3.460   2.672   4.302 -2.6152 -0.6767 -0.8655
19159TIP3    H278893   3.499   2.655   4.447 -0.1111  1.0394 -1.2799
19160TIP3   OH278894   2.983   1.331   5.595  0.1427 -0.4575 -0.2516
19160TIP3    H178895   2.940   1.411   5.627  0.2883 -1.3077  2.2395
19160TIP3    H278896   3.073   1.339   5.625  0.5653 -0.8639 -1.3748
19161TIP3   OH278897   3.984   6.075   5.220 -0.1856 -0.0841  0.0846
19161TIP3    H178898   4.009   6.106   5.307 -0.5168  0.5263 -0.0343
19161TIP3    H278899   3.942   5.990   5.235  1.0419 -0.6524  0.3818
19162TIP3   OH278900   2.122   0.012  11.997 -0.2694  0.4395  0.1953
19162TIP3    H178901   2.113  -0.050  11.925  1.6641  1.0653 -0.6443
19162TIP3    H278902   2.128   0.098  11.954 -0.0903  0.9224  1.1602
19163TIP3   OH278903   6.609   1.378   6.138 -0.0828 -0.0969  0.0324
19163TIP3    H178904   6.568   1.412   6.217 -0.5181  1.1252 -0.6968
19163TIP3    H278905   6.697   1.352   6.167 -0.3632 -0.0286  0.9944
19164TIP3   OH278906   0.264   0.012  17.323 -0.3502  0.5549 -0.1460
19164TIP3    H178907   0.324   0.048  17.388  1.0671  2.4956 -2.3635
19164TIP3    H278908   0.177   0.029  17.359  0.3626  2.7740  0.7282
19165TIP3   OH278909   0.970   0.639   4.798 -0.0625  0.0460  0.2080
19165TIP3    H178910   0.921   0.666   4.721  0.5353 -0.5122 -0.3863
19165TIP3    H278911   1.001   0.550   4.777 -0.5097 -0.4103  1.3867
19166TIP3   OH278912   3.163   2.708   1.750  0.4815  0.2176 -0.4942
19166TIP3    H178913   3.257   2.723   1.751  0.4268  0.7646  1.7788
19166TIP3    H278914   3.129   2.761   1.822 -1.2524 -1.6955  0.2083
19167TIP3   OH278915   3.097   0.561  12.266 -0.3874 -0.2965 -0.2875
19167TIP3    H178916   3.007   0.573  12.297 -0.7991 -2.4140 -0.5554
19167TIP3    H278917   3.090   0.507  12.188  1.1724 -1.2676  0.1907
19168TIP3   OH278918   3.617   5.895  13.012  0.4526 -0.0693 -0.8246
19168TIP3    H178919   3.609   5.942  13.095 -0.1402  1.1642 -1.5374
19168TIP3    H278920   3.528   5.896  12.976  0.8054 -0.0605 -1.7295
19169TIP3   OH278921   5.461   1.180  15.871  0.1716 -0.0042  0.1585
19169TIP3    H178922   5.525   1.171  15.801  0.7676 -2.6992  0.9430
19169TIP3    H278923   5.477   1.268  15.907  2.7104 -0.1767 -0.3700
19170TIP3   OH278924   3.325   2.309   3.749  0.4623 -0.0707 -0.3067
19170TIP3    H178925   3.300   2.371   3.816 -0.7378 -0.7611 -0.0939
19170TIP3    H278926   3.361   2.363   3.678 -0.6312  0.8725 -0.1661
19171TIP3   OH278927   1.348   0.570  12.573  0.1450  0.5178 -0.0788
19171TIP3    H178928   1.327   0.479  12.594 -0.5443  0.9920  1.3745
19171TIP3    H278929   1.310   0.583  12.486  0.0679 -0.5145 -0.2150
19172TIP3   OH278930   5.319   3.338   5.504  0.2968  0.7297  0.0354
19172TIP3    H178931   5.326   3.354   5.598 -0.7883 -2.5740  0.8123
19172TIP3    H278932   5.234   3.374   5.479  0.7250  1.8952  0.2360
19173TIP3   OH278933   1.328   1.950   6.032 -0.4659  0.5953  0.0499
19173TIP3    H178934   1.400   2.001   6.070  1.6060 -3.5087  2.3279
19173TIP3    H278935   1.366   1.908   5.955  0.0586 -2.2406  1.7153
19174TIP3   OH278936   5.882   4.467   0.446  0.3497  0.2791  0.0016
19174TIP3    H178937   5.900   4.557   0.420 -2.8064  1.9004  2.7637
19174TIP3    H278938   5.867   4.471   0.540 -2.5005 -2.5922 -0.1493
19175TIP3   OH278939   5.938   2.633  17.201  0.8609 -0.0848  0.0685
19175TIP3    H178940   5.911   2.580  17.276  1.0719 -1.3209 -0.6975
19175TIP3    H278941   5.886   2.713  17.208  0.3883 -0.4696  1.1553
19176TIP3   OH278942   3.200   1.061   4.935 -0.3276 -0.1023 -0.1228
19176TIP3    H178943   3.135   1.100   4.995  1.5465  1.3377  1.1119
19176TIP3    H278944   3.241   1.137   4.894  1.9001 -0.8249  0.6367
19177TIP3   OH278945   5.899   2.807  12.740 -0.7811 -0.3860  0.6502
19177TIP3    H178946   5.982   2.769  12.712 -0.8038 -0.1231  0.2243
19177TIP3    H278947   5.861   2.742  12.799 -0.9101 -1.1103 -0.2234
19178TIP3   OH278948   0.151   0.481   5.160 -0.1947 -0.2173  0.1498
19178TIP3    H178949   0.062   0.460   5.132 -0.2963 -0.5044  0.6755
19178TIP3    H278950   0.193   0.516   5.081 -1.0594  0.8698  0.1539
19179TIP3   OH278951   5.765   0.718   5.361 -0.4016 -0.0163 -0.5748
19179TIP3    H178952   5.828   0.653   5.332 -1.4100 -0.9987 -0.6253
19179TIP3    H278953   5.796   0.747   5.446 -0.4470 -1.2676 -0.1229
19180TIP3   OH278954   3.413   2.172  14.519 -1.0241 -0.2101  0.4612
19180TIP3    H178955   3.376   2.241  14.573 -0.9227 -0.2332  0.5598
19180TIP3    H278956   3.347   2.104  14.517 -0.5817 -0.6888  1.4708
19181TIP3   OH278957   1.413   3.498   5.348  0.3589 -0.1230 -0.1248
19181TIP3    H178958   1.391   3.437   5.277  1.9762 -0.8340 -0.0629
19181TIP3    H278959   1.436   3.580   5.303 -1.8219  0.5074 -0.2068
19182TIP3   OH278960   1.754   2.974   2.262  0.0861 -0.2040  0.4071
19182TIP3    H178961   1.770   2.905   2.198  0.6080  0.6533 -0.4082
19182TIP3    H278962   1.693   3.033   2.218  2.5690  1.8917 -0.4839
19183TIP3   OH278963   5.494   1.513  11.404  0.3231 -0.0969  0.1928
19183TIP3    H178964   5.540   1.435  11.372 -1.0091 -0.3329 -1.2341
19183TIP3    H278965   5.537   1.586  11.358 -0.1680 -0.2490 -0.5315
19184TIP3   OH278966   6.248   6.651   5.866 -0.0559  0.2106 -0.5415
19184TIP3    H178967   6.329   6.611   5.833 -0.9271 -0.0739 -2.4634
19184TIP3    H278968   6.258   6.744   5.845  0.9442  0.7198  1.8076
19185TIP3   OH278969   2.020   6.376   5.260 -0.0865  0.6923  0.0591
19185TIP3    H178970   2.039   6.285   5.234 -0.0358  0.7161  0.0126
19185TIP3    H278971   2.081   6.393   5.332 -0.7979  0.3490  0.7579
19186TIP3   OH278972   1.680   2.524   0.881 -0.2916 -0.4850 -0.2784
19186TIP3    H178973   1.644   2.524   0.793  1.9555 -0.6274 -1.2599
19186TIP3    H278974   1.719   2.437   0.892  3.2413  0.8711 -0.8859
19187TIP3   OH278975   4.807   5.402  10.910 -0.4447  0.7945  0.0421
19187TIP3    H178976   4.867   5.415  10.836 -0.2834  1.2686  0.2539
19187TIP3    H278977   4.800   5.307  10.918  0.9463  0.7082  0.5498
19188TIP3   OH278978   4.030   3.328  14.553  0.3599  0.0165 -0.1421
19188TIP3    H178979   4.122   3.317  14.575  0.3280 -0.7893 -0.3681
19188TIP3    H278980   3.992   3.376  14.627  0.5098 -1.5173  0.9748
19189TIP3   OH278981   2.091   5.715  15.625 -0.1292  0.0092  0.1772
19189TIP3    H178982   2.118   5.673  15.543  0.9474  0.0826  0.4832
19189TIP3    H278983   2.104   5.648  15.692 -0.3243  0.1796  0.3874
19190TIP3   OH278984   4.922   1.865  15.229 -0.3103  0.0028  0.1711
19190TIP3    H178985   5.000   1.876  15.285 -1.0469  0.1763  1.1870
19190TIP3    H278986   4.861   1.932  15.259 -1.3031 -0.8802  0.1919
19191TIP3   OH278987   2.075   3.218  14.304  0.1497  0.5230 -0.1321
19191TIP3    H178988   2.111   3.282  14.365  0.8734  0.0416 -0.0348
19191TIP3    H278989   2.011   3.169  14.356 -1.8616  2.3852 -0.7124
19192TIP3   OH278990   1.414   2.272  11.172 -0.6699  0.9750  0.0367
19192TIP3    H178991   1.431   2.298  11.081 -1.4912  0.0914 -0.3903
19192TIP3    H278992   1.319   2.259  11.175 -0.6379  0.9350  1.0133
19193TIP3   OH278993   2.030   3.576  15.184 -0.6579 -0.0124 -0.1635
19193TIP3    H178994   2.081   3.642  15.136  0.8798 -0.4786  0.7290
19193TIP3    H278995   1.947   3.619  15.203 -0.2282  1.1592 -0.8073
19194TIP3   OH278996   3.314   1.888  16.908 -0.0800 -0.1980  0.2212
19194TIP3    H178997   3.366   1.968  16.907  0.4591 -0.5342  0.8460
19194TIP3    H278998   3.341   1.843  16.988 -1.1521 -0.4962  0.4238
19195TIP3   OH278999   2.217   6.072   2.657 -0.3321  0.7250  0.2886
19195TIP3    H179000   2.151   6.048   2.593  0.8136 -2.6422  0.1861
19195TIP3    H279001   2.288   6.110   2.605 -0.7607  1.1406 -0.0026
19196TIP3   OH279002   3.104   5.584   0.240 -0.1469 -0.0628  0.6420
19196TIP3    H179003   3.060   5.631   0.169 -0.3031  0.0295  0.7966
19196TIP3    H279004   3.032   5.546   0.291  0.0032 -2.3485 -0.7081
19197TIP3   OH279005   0.333   2.079  17.298 -0.0519  0.1154  0.1378
19197TIP3    H179006   0.363   2.053  17.211  1.2310  0.3329  0.4828
19197TIP3    H279007   0.261   2.140  17.282  0.5323  0.5945 -0.7945
19198TIP3   OH279008   4.053   3.424  17.040 -0.1682  0.0498 -0.1594
19198TIP3    H179009   4.112   3.491  17.007 -0.1881  0.5978  0.9027
19198TIP3    H279010   4.108   3.367  17.094 -0.4951  0.2292  0.3654
19199TIP3   OH279011   2.073   5.521   1.441 -0.0789  0.2102 -0.0475
19199TIP3    H179012   2.159   5.562   1.434 -0.6787  1.9134  1.8296
19199TIP3    H279013   2.092   5.429   1.462  1.2871  0.7661  1.3009
19200TIP3   OH279014   5.733   6.246  11.346 -0.1449  0.2559  0.1163
19200TIP3    H179015   5.673   6.307  11.389 -0.7819 -0.5658  0.4158
19200TIP3    H279016   5.694   6.160  11.359  0.7019 -0.2199 -0.3657
19201TIP3   OH279017   6.655   5.903   2.698  0.6090  0.5102 -0.2506
19201TIP3    H179018   6.687   5.899   2.788 -0.0278  1.2472  0.0229
19201TIP3    H279019   6.730   5.936   2.648  0.0610  3.2898  0.5560
19202TIP3   OH279020   5.903   2.755   0.972  0.6686  0.0122 -0.3377
19202TIP3    H179021   5.993   2.749   1.004  0.8635  0.2486 -0.8215
19202TIP3    H279022   5.904   2.707   0.889 -0.6135 -3.6118  1.5002
19203TIP3   OH279023   2.652   4.903  12.533 -0.3794  0.1661 -0.1167
19203TIP3    H179024   2.588   4.853  12.481 -1.3015  0.8390  0.3473
19203TIP3    H279025   2.704   4.950  12.468  1.0101 -1.9411 -0.6131
19204TIP3   OH279026   0.146   1.782   4.011 -0.0495  0.4050  0.3947
19204TIP3    H179027   0.121   1.693   4.038  0.2074  0.0145 -0.6034
19204TIP3    H279028   0.238   1.789   4.036  0.3563 -0.1705 -0.8458
19205TIP3   OH279029   0.590   6.712  17.281  0.1862 -0.1336 -0.6176
19205TIP3    H179030   0.654   6.649  17.247  0.0324 -0.7839  0.2596
19205TIP3    H279031   0.560   6.760  17.204  1.6048  0.0767 -1.0815
19206TIP3   OH279032   1.593   3.815   2.524  0.0489 -0.7566 -0.1887
19206TIP3    H179033   1.607   3.810   2.429 -0.7982  1.2182 -0.4754
19206TIP3    H279034   1.514   3.763   2.539 -1.5100  1.2116 -1.0689
19207TIP3   OH279035   0.197   6.663  12.946 -0.5249  0.2618  0.2487
19207TIP3    H179036   0.221   6.588  12.891  0.5154  0.4193  0.4590
19207TIP3    H279037   0.189   6.626  13.034  1.1718  0.5778  0.5629
19208TIP3   OH279038   3.407   3.911   0.639  0.5040  0.0376  0.4994
19208TIP3    H179039   3.440   3.829   0.677  1.7233 -1.1610 -2.7668
19208TIP3    H279040   3.481   3.946   0.591 -0.3952  2.4475  0.7364
19209TIP3   OH279041   3.158   4.639   5.026 -0.5735 -0.2742 -0.3803
19209TIP3    H179042   3.167   4.545   5.035  0.7322 -0.1305 -0.0218
19209TIP3    H279043   3.189   4.675   5.109 -0.4749  0.4942 -0.7376
19210TIP3   OH279044   1.169   6.142   2.713  0.0895  0.4647 -0.8762
19210TIP3    H179045   1.186   6.048   2.720 -1.4857  0.2567  0.8286
19210TIP3    H279046   1.255   6.180   2.693  0.5505 -1.4028 -2.8215
19211TIP3   OH279047   5.941   4.095  12.086 -0.2312 -0.3195  0.0626
19211TIP3    H179048   5.953   4.176  12.037  0.4963 -0.1095  0.5662
19211TIP3    H279049   6.019   4.089  12.141 -0.3058 -1.3300  0.0749
19212TIP3   OH279050   5.438   3.861  14.665  0.3281  0.1926  0.4499
19212TIP3    H179051   5.397   3.914  14.597  0.1108 -1.3335 -0.6725
19212TIP3    H279052   5.508   3.814  14.620 -1.8306 -3.3549  0.3496
19213TIP3   OH279053   1.073   1.521   3.216  0.0604  0.0676 -0.1197
19213TIP3    H179054   1.016   1.503   3.290  2.1573 -0.2559  1.4947
19213TIP3    H279055   1.162   1.511   3.250  1.1255  0.0016 -2.6467
19214TIP3   OH279056   2.433   6.384   5.783 -0.7427 -0.0377  1.1770
19214TIP3    H179057   2.427   6.447   5.855 -0.9248  0.4398  0.7487
19214TIP3    H279058   2.526   6.381   5.761 -0.6726 -0.2554  1.4865
19215TIP3   OH279059   6.361   3.977  15.249  0.5136 -0.2153  0.4211
19215TIP3    H179060   6.347   4.003  15.340  1.3364  1.7253  0.0236
19215TIP3    H279061   6.455   3.989  15.234 -0.0388  2.5819 -1.5303
19216TIP3   OH279062   4.519   1.269   2.163 -0.6715  0.2711  0.6983
19216TIP3    H179063   4.570   1.343   2.197  0.3804  0.0082 -0.2513
19216TIP3    H279064   4.441   1.310   2.125  0.2095  0.9849 -0.4088
19217TIP3   OH279065   0.487   3.399   5.710  0.1003  0.1532  0.1591
19217TIP3    H179066   0.410   3.351   5.740  0.8245 -1.6581 -0.7294
19217TIP3    H279067   0.545   3.332   5.674  0.8468  1.7846 -1.8821
19218TIP3   OH279068   1.549   1.576  15.642  0.7965 -0.0307 -0.3883
19218TIP3    H179069   1.536   1.669  15.663  2.0731  0.2039 -0.5675
19218TIP3    H279070   1.591   1.540  15.720  0.5160 -0.4169 -0.4131
19219TIP3   OH279071   6.056   5.138   2.457 -0.2707  0.0097  0.6503
19219TIP3    H179072   6.038   5.070   2.522  1.5295 -0.6833  0.4918
19219TIP3    H279073   6.000   5.211   2.483 -1.9424 -1.3409  1.0984
19220TIP3   OH279074   5.478   4.354  14.501  0.7848  0.5244 -0.4923
19220TIP3    H179075   5.431   4.437  14.500  0.0257  0.1704  1.4840
19220TIP3    H279076   5.414   4.291  14.466 -0.4368  0.0140  2.3432
19221TIP3   OH279077   5.759   4.844  15.763  0.0723  0.5713 -0.3382
19221TIP3    H179078   5.684   4.794  15.732  0.0715 -0.5818  1.3917
19221TIP3    H279079   5.730   4.935  15.760 -0.9369  0.2442 -0.9136
19222TIP3   OH279080   5.981   3.244   4.396  0.1238  0.4254  0.3445
19222TIP3    H179081   5.900   3.202   4.365 -0.2265  1.5230 -0.2762
19222TIP3    H279082   5.960   3.337   4.399  1.5780  0.8179 -0.4977
19223TIP3   OH279083   3.718   1.902   0.774  0.2027 -0.4744  0.0719
19223TIP3    H179084   3.777   1.854   0.716 -0.3460 -0.3396 -0.6027
19223TIP3    H279085   3.678   1.833   0.828  1.0721 -0.5533  0.6456
19224TIP3   OH279086   3.847   2.503   2.078  0.7168 -0.4755  0.0931
19224TIP3    H179087   3.816   2.508   1.988  1.3275 -1.5092 -0.1991
19224TIP3    H279088   3.786   2.556   2.129 -0.2639 -0.7631 -0.7695
19225TIP3   OH279089   1.964   4.478   0.991  0.5131 -0.1546 -0.1640
19225TIP3    H179090   1.911   4.398   0.991  1.5945 -0.9578 -2.1448
19225TIP3    H279091   1.901   4.549   1.001 -0.9304 -1.0918 -1.9740
19226TIP3   OH279092   2.607   0.048  14.986  0.2959 -0.1950 -0.7253
19226TIP3    H179093   2.576   0.077  14.901 -0.1354  2.7750  0.3355
19226TIP3    H279094   2.538   0.075  15.047  0.1524 -3.0365  0.5395
19227TIP3   OH279095   2.085   5.629   2.098 -0.5359  0.2006  0.1413
19227TIP3    H179096   2.151   5.691   2.067  0.2308 -0.2262  0.8544
19227TIP3    H279097   2.005   5.653   2.052  0.0463  0.9308 -0.5118
19228TIP3   OH279098   2.395   4.895  16.530 -0.3739 -0.3188  0.7335
19228TIP3    H179099   2.347   4.897  16.613 -0.3539  1.1583  0.7481
19228TIP3    H279100   2.328   4.881  16.463 -0.4971 -0.7386  0.9459
19229TIP3   OH279101   0.556   0.184  11.685 -0.2637  0.6044 -0.1030
19229TIP3    H179102   0.599   0.108  11.724  1.7283  1.4729 -0.4741
19229TIP3    H279103   0.567   0.172  11.591 -0.8130  0.8714 -0.2024
19230TIP3   OH279104   5.199   4.935  13.553 -0.0117  0.3990 -0.3678
19230TIP3    H179105   5.197   4.959  13.646  1.2444 -0.5875 -0.0620
19230TIP3    H279106   5.111   4.953  13.522 -2.0987 -3.8352  2.2116
19231TIP3   OH279107   5.762   1.118  14.744 -0.0698  0.0916  0.4568
19231TIP3    H179108   5.806   1.039  14.776  0.2912  0.1040 -0.0025
19231TIP3    H279109   5.670   1.105  14.769 -0.1210 -0.7420 -0.1029
19232TIP3   OH279110   2.198   1.393  12.339 -0.0790 -0.3800 -0.2300
19232TIP3    H179111   2.181   1.459  12.273  0.6917 -1.0141 -1.0779
19232TIP3    H279112   2.285   1.359  12.318  0.2955 -0.4372  1.2444
19233TIP3   OH279113   1.643   4.501   0.905 -0.2856  0.3987  0.1307
19233TIP3    H179114   1.659   4.587   0.943 -1.0105  1.1125 -1.0930
19233TIP3    H279115   1.565   4.469   0.951 -1.1988  1.2829 -0.7425
19234TIP3   OH279116   2.836   0.780   0.881 -0.0831  0.0483  0.6365
19234TIP3    H179117   2.820   0.745   0.968 -0.3783  0.1666  0.6286
19234TIP3    H279118   2.923   0.820   0.887 -1.1118  2.3020  1.5893
19235TIP3   OH279119   5.456   4.832   3.127 -0.5528  0.6877  0.1047
19235TIP3    H179120   5.443   4.743   3.158  1.3031  0.4871  0.4526
19235TIP3    H279121   5.447   4.886   3.206 -2.3070  0.9145 -0.2131
19236TIP3   OH279122   1.843   4.331   3.842  0.8183  0.4894 -0.5184
19236TIP3    H179123   1.879   4.353   3.928  2.0203 -1.0616 -0.5677
19236TIP3    H279124   1.780   4.261   3.861 -0.5810  1.6642 -0.6873
19237TIP3   OH279125   6.756   0.029   4.465 -0.3567  0.0184 -0.3829
19237TIP3    H179126   6.714  -0.034   4.523  0.9281  0.9919  1.7403
19237TIP3    H279127   6.822  -0.021   4.418  0.4375 -0.3225  1.0530
19238TIP3   OH279128   5.848   6.187   2.830 -0.3578  0.0013 -0.2129
19238TIP3    H179129   5.778   6.218   2.773  0.5794  2.4818 -0.1637
19238TIP3    H279130   5.928   6.202   2.780  0.2638 -1.3829  0.3122
19239TIP3   OH279131   4.179   4.913   2.628 -0.2496 -0.3567 -0.3799
19239TIP3    H179132   4.155   4.927   2.720 -0.0374  0.6643 -0.4583
19239TIP3    H279133   4.096   4.910   2.581 -0.4108 -1.9260 -0.0444
19240TIP3   OH279134   0.775   1.169   2.591 -0.2016 -0.3445 -0.6151
19240TIP3    H179135   0.770   1.245   2.650 -1.8415  0.1784 -1.3752
19240TIP3    H279136   0.814   1.100   2.645  3.1693  1.5011 -0.4322
19241TIP3   OH279137   6.543   4.761   3.702 -0.2818 -0.5915 -0.0137
19241TIP3    H179138   6.551   4.765   3.606  0.6702  2.1874  0.0818
19241TIP3    H279139   6.621   4.714   3.730 -1.8309 -3.7669 -0.6266
19242TIP3   OH279140   0.182   4.694  15.978  0.5299 -0.2649  0.2289
19242TIP3    H179141   0.167   4.788  15.966 -0.4322 -0.4030  0.2820
19242TIP3    H279142   0.121   4.652  15.916 -0.3098 -0.8765  1.4396
19243TIP3   OH279143   0.099   2.250   6.309  0.4627  0.1457  0.1656
19243TIP3    H179144   0.127   2.161   6.287  0.6877  0.4858 -0.9636
19243TIP3    H279145   0.015   2.238   6.353 -0.3110 -0.5489 -1.4321
19244TIP3   OH279146   5.907   1.611  11.567 -0.4048 -0.0438 -0.6717
19244TIP3    H179147   5.954   1.556  11.504 -0.3258 -1.7463  0.8108
19244TIP3    H279148   5.825   1.565  11.583 -0.8448  0.8719 -0.2362
19245TIP3   OH279149   5.478   3.583   1.449  0.2507 -0.1478  0.2282
19245TIP3    H179150   5.499   3.652   1.385 -0.1233 -0.1377  0.1145
19245TIP3    H279151   5.504   3.502   1.405 -0.3026 -0.1694 -0.0726
19246TIP3   OH279152   1.034   6.084   3.957  0.1515 -0.2387  0.6948
19246TIP3    H179153   1.007   6.162   3.910  0.1102 -0.0451  1.0320
19246TIP3    H279154   0.966   6.019   3.938  1.1763 -0.8371 -1.1778
19247TIP3   OH279155   2.785   0.251   2.664 -0.5216 -0.2517 -0.1130
19247TIP3    H179156   2.769   0.171   2.614 -0.1989  0.1471 -0.8619
19247TIP3    H279157   2.830   0.309   2.604 -0.8538  0.5451  0.3869
19248TIP3   OH279158   5.679   2.276  15.264  0.4016 -0.5507 -0.0592
19248TIP3    H179159   5.601   2.331  15.270  0.7880  0.1111 -0.9088
19248TIP3    H279160   5.645   2.186  15.269 -0.2233 -0.2591  1.3732
19249TIP3   OH279161   1.870   0.449  15.087 -0.5288 -0.0254 -0.0506
19249TIP3    H179162   1.881   0.532  15.041  0.2351 -0.9510 -1.6327
19249TIP3    H279163   1.960   0.420  15.106 -0.7558 -0.7674 -0.0630
19250TIP3   OH279164   1.596   0.857   1.949  0.7251  0.4749  0.1418
19250TIP3    H179165   1.502   0.857   1.968  1.1451  0.3821  2.3898
19250TIP3    H279166   1.638   0.845   2.033  2.7737 -0.1464 -0.9086
19251TIP3   OH279167   5.581   6.484  11.413  0.0184  0.2987  0.1884
19251TIP3    H179168   5.562   6.494  11.506 -1.2036 -0.5951  0.0466
19251TIP3    H279169   5.517   6.539  11.369 -0.7634 -0.8810 -0.1946
19252TIP3   OH279170   3.490   5.008  13.127  0.2488 -0.0890  0.0290
19252TIP3    H179171   3.398   5.028  13.109 -0.2022 -2.6488 -0.8832
19252TIP3    H279172   3.539   5.060  13.063 -0.5410  1.1212  0.3715
19253TIP3   OH279173   4.584   0.338   0.871 -0.4253  0.1369  0.6870
19253TIP3    H179174   4.578   0.355   0.965  0.4334 -2.0398  1.2091
19253TIP3    H279175   4.520   0.269   0.855 -0.2578  0.1784 -0.2450
19254TIP3   OH279176   2.034   2.000  13.223 -0.5593  0.2473 -0.1606
19254TIP3    H179177   2.081   2.076  13.259  0.0469 -0.2324  0.0875
19254TIP3    H279178   1.997   2.031  13.140  0.0574  0.6905 -0.2746
19255TIP3   OH279179   6.123   3.198   2.791  0.7027  0.1155 -0.0818
19255TIP3    H179180   6.074   3.133   2.842 -0.2014  1.5074  0.9043
19255TIP3    H279181   6.211   3.197   2.829  0.0658  1.0724  1.5195
19256TIP3   OH279182   6.511   3.916  15.808  0.6925  0.6301 -0.8540
19256TIP3    H179183   6.451   3.869  15.749 -1.1264  2.5139 -0.6142
19256TIP3    H279184   6.464   3.917  15.892  1.6873  1.0079 -0.2959
19257TIP3   OH279185   2.855   3.929   0.250 -0.1466 -0.4176  0.4654
19257TIP3    H179186   2.813   3.933   0.164 -1.0680 -1.2830  0.8438
19257TIP3    H279187   2.944   3.898   0.232  0.2741  1.1426 -0.3278
19258TIP3   OH279188   1.105   6.734  13.703  0.1665 -0.2101  0.2442
19258TIP3    H179189   1.085   6.749  13.795 -1.4809  0.2852 -0.1507
19258TIP3    H279190   1.044   6.665  13.676 -0.5318  0.7855 -0.8432
19259TIP3   OH279191   6.118   5.379  16.793  0.0693  0.0327  0.0368
19259TIP3    H179192   6.164   5.453  16.832 -0.0483  1.7563 -2.7762
19259TIP3    H279193   6.182   5.341  16.732 -1.1080  0.4100 -1.5037
19260TIP3   OH279194   1.327   6.428   1.177 -0.1229  0.8529  0.2184
19260TIP3    H179195   1.233   6.419   1.193 -0.1430  0.5563 -0.0550
19260TIP3    H279196   1.335   6.428   1.081  0.1038  1.4228  0.2331
19261TIP3   OH279197   2.274   5.641  12.697  0.2691  0.4890 -0.7388
19261TIP3    H179198   2.239   5.554  12.677  0.1529  0.5386 -0.7524
19261TIP3    H279199   2.200   5.700  12.683 -0.5992  0.2904  2.3086
19262TIP3   OH279200   1.852   6.164  13.969 -0.3273  0.2870 -0.4593
19262TIP3    H179201   1.841   6.183  13.875 -1.3148 -3.2316 -1.2034
19262TIP3    H279202   1.764   6.175  14.006 -0.3279 -0.1252 -0.3373
19263TIP3   OH279203   4.111   3.264   0.667 -0.2499 -0.0527  0.2605
19263TIP3    H179204   4.189   3.304   0.706 -0.0135 -0.8564  0.6463
19263TIP3    H279205   4.131   3.260   0.573 -0.5359  1.2720  0.1247
19264TIP3   OH279206   5.585   0.298   5.747 -0.9584 -0.4911 -0.3289
19264TIP3    H179207   5.579   0.203   5.741  0.0096 -0.5244 -0.9716
19264TIP3    H279208   5.664   0.320   5.699 -1.7489  0.7360 -1.1293
19265TIP3   OH279209   2.913   3.642  14.616  0.5000  0.1362  0.6265
19265TIP3    H179210   2.858   3.565  14.630  1.2606 -0.5474  0.0035
19265TIP3    H279211   2.919   3.650  14.521 -0.0088  1.3056  0.6765
19266TIP3   OH279212   2.536   4.422   1.478  0.2587  0.4949  0.2263
19266TIP3    H179213   2.514   4.378   1.396  0.4532 -0.0597  0.4665
19266TIP3    H279214   2.567   4.352   1.535  0.1461  0.8827  0.7676
19267TIP3   OH279215   1.426   3.504   5.627 -0.3211 -1.4075  0.6505
19267TIP3    H179216   1.517   3.536   5.629 -0.8661  0.1799  1.5902
19267TIP3    H279217   1.403   3.506   5.534  0.1685 -0.4878  0.5322
19268TIP3   OH279218   5.855   1.950  13.147  0.1296 -0.2863 -0.0074
19268TIP3    H179219   5.893   1.895  13.078  2.0125 -1.7745  2.0617
19268TIP3    H279220   5.904   2.032  13.143 -0.6295  0.1306 -1.1837
19269TIP3   OH279221   5.245   5.190  11.786  0.5055 -0.5099  0.2606
19269TIP3    H179222   5.246   5.182  11.691 -1.4167  1.6432 -0.0186
19269TIP3    H279223   5.198   5.112  11.816 -2.2898  0.5825 -0.9296
19270TIP3   OH279224   3.457   0.028  14.749  0.2961 -0.1370 -0.1891
19270TIP3    H179225   3.536  -0.017  14.721  1.6379  0.5313  2.2363
19270TIP3    H279226   3.475   0.121  14.732  0.5365  0.1260  1.3118
19271TIP3   OH279227   5.225   5.781   5.212  1.0261  0.4230  0.4091
19271TIP3    H179228   5.306   5.755   5.255  1.3583  2.5717  1.2466
19271TIP3    H279229   5.222   5.877   5.222 -1.4600  0.4563  0.1457
19272TIP3   OH279230   2.172   3.313  12.366  0.0416  0.3879  0.0535
19272TIP3    H179231   2.213   3.351  12.443 -1.2688  0.5350  0.7137
19272TIP3    H279232   2.229   3.338  12.293  2.8180 -2.0068  1.2078
19273TIP3   OH279233   0.458   5.727   5.707  0.1869  0.2149 -0.0109
19273TIP3    H179234   0.429   5.649   5.660  1.5229  0.1609 -0.8058
19273TIP3    H279235   0.547   5.741   5.676  0.2233  1.6343  0.6768
19274TIP3   OH279236   4.177   0.585  15.112 -0.4504  0.3928 -0.0131
19274TIP3    H179237   4.107   0.523  15.092 -1.8168  2.2907 -1.6181
19274TIP3    H279238   4.166   0.606  15.204 -1.2517 -0.2146  0.0380
19275TIP3   OH279239   4.515   5.998  12.060 -0.4067 -0.4258 -0.0939
19275TIP3    H179240   4.502   6.071  11.999  0.3835 -0.7304 -0.6458
19275TIP3    H279241   4.553   5.928  12.006  1.1484 -0.4049  0.9149
19276TIP3   OH279242   0.480   0.285  17.035 -0.0731 -0.4774 -0.1774
19276TIP3    H179243   0.453   0.193  17.033 -2.7349  0.2010  0.0111
19276TIP3    H279244   0.444   0.319  17.117 -0.7058  1.1153 -1.0726
19277TIP3   OH279245   3.012   3.012   6.373 -0.0519 -0.1746  0.3318
19277TIP3    H179246   3.059   2.986   6.293 -0.1892 -1.0513  0.5275
19277TIP3    H279247   2.922   3.027   6.344 -0.2501 -1.1387  0.4345
19278TIP3   OH279248   1.414   0.650   5.962 -0.8865 -0.1300  0.0947
19278TIP3    H179249   1.404   0.555   5.951 -0.8776 -0.2854  1.3208
19278TIP3    H279250   1.476   0.659   6.035 -1.8051  0.8156  0.7756
19279TIP3   OH279251   4.116   2.557   5.154 -0.0898 -0.3848  0.0597
19279TIP3    H179252   4.114   2.583   5.062 -1.8550 -0.0697  0.1658
19279TIP3    H279253   4.176   2.482   5.156  1.3193  0.6611 -1.0309
19280TIP3   OH279254   4.170   2.139  12.109  0.2251  0.1572 -0.0612
19280TIP3    H179255   4.214   2.111  12.028 -1.0111 -0.0971 -0.6702
19280TIP3    H279256   4.141   2.228  12.090 -0.6352 -0.1293 -0.1643
19281TIP3   OH279257   4.280   3.011  15.647 -0.1764 -0.6452 -0.4838
19281TIP3    H179258   4.362   2.998  15.598 -0.5969  0.4217 -1.5289
19281TIP3    H279259   4.300   3.083  15.707 -0.0181 -1.1625  0.0973
19282TIP3   OH279260   2.287   4.026   3.651  0.5669  0.3466 -0.3084
19282TIP3    H179261   2.333   4.037   3.734  0.8141 -1.0074 -0.2457
19282TIP3    H279262   2.268   4.116   3.622  0.2401  0.8469  1.3288
19283TIP3   OH279263   4.313   2.969   5.487 -0.0137 -0.3791  0.2884
19283TIP3    H179264   4.390   2.966   5.431 -0.5722  1.2050 -0.6168
19283TIP3    H279265   4.316   3.055   5.528 -1.4950 -0.1409 -0.0429
19284TIP3   OH279266   4.680   3.296  14.437 -0.4788  0.3240  0.1807
19284TIP3    H179267   4.617   3.227  14.415 -1.1024  1.1106 -0.6106
19284TIP3    H279268   4.766   3.255  14.425 -0.7304  0.5682 -3.7522
19285TIP3   OH279269   5.691   0.885  14.370 -0.2689 -0.3635 -0.4522
19285TIP3    H179270   5.784   0.892  14.346  0.1691 -2.1296  0.5521
19285TIP3    H279271   5.658   0.975  14.365  0.8381  0.0075 -3.2920
19286TIP3   OH279272   0.045   0.829   2.047 -0.5394  0.6673 -0.2016
19286TIP3    H179273   0.044   0.827   2.142 -0.1317  0.5049 -0.1976
19286TIP3    H279274   0.077   0.742   2.021 -1.2276  0.4995 -0.5016
19287TIP3   OH279275   1.631   0.894   5.903  0.1422 -0.1321  0.2536
19287TIP3    H179276   1.571   0.828   5.938 -2.2775  2.3285  1.1236
19287TIP3    H279277   1.694   0.909   5.974  1.2565 -1.9599 -0.2617
19288TIP3   OH279278   4.096   1.564   2.057 -0.1885 -0.2046  0.0827
19288TIP3    H179279   4.015   1.532   2.097  0.2785 -0.9077  0.4647
19288TIP3    H279280   4.066   1.613   1.980 -1.0788  0.9618  1.1229
19289TIP3   OH279281   1.739   4.812   2.212 -0.0384  0.0737 -0.3243
19289TIP3    H179282   1.644   4.808   2.223  0.0453  0.3188  0.5656
19289TIP3    H279283   1.759   4.906   2.204  0.1515  0.0365 -0.3096
19290TIP3   OH279284   0.688   3.147   0.194  0.5809 -0.0889  0.0472
19290TIP3    H179285   0.741   3.067   0.198 -1.1137 -1.4493 -2.1431
19290TIP3    H279286   0.637   3.146   0.275 -0.2999 -1.9679 -0.4696
19291TIP3   OH279287   3.528   5.767   5.204  0.5080  0.0299  0.4887
19291TIP3    H179288   3.506   5.853   5.169 -0.5828  0.6395  2.5065
19291TIP3    H279289   3.560   5.718   5.128  0.1226  1.8490 -0.9316
19292TIP3   OH279290   1.704   5.962  12.340 -0.2127 -0.6776  0.0148
19292TIP3    H179291   1.708   5.902  12.266  1.8670 -1.5901  0.7618
19292TIP3    H279292   1.682   5.906  12.415 -3.0199  0.3425  0.0638
19293TIP3   OH279293   3.495   6.570   3.315  0.0697  0.2995  0.3911
19293TIP3    H179294   3.409   6.532   3.334  0.1650  0.1968  0.6165
19293TIP3    H279295   3.505   6.641   3.378  0.7248 -0.5506  1.2825
19294TIP3   OH279296   1.779   0.373   4.026 -0.3298  0.2531  0.4911
19294TIP3    H179297   1.854   0.334   3.980 -1.2634 -0.5359 -0.4098
19294TIP3    H279298   1.703   0.331   3.987 -1.1931 -0.2405  2.6206
19295TIP3   OH279299   3.288   4.056   5.399 -0.0543 -0.1003 -0.6811
19295TIP3    H179300   3.381   4.041   5.384  0.9898  1.8744  2.6545
19295TIP3    H279301   3.250   3.969   5.410  1.0436 -1.0065 -3.3027
19296TIP3   OH279302   5.264   4.744  16.565  0.5462 -0.0467 -0.6948
19296TIP3    H179303   5.325   4.817  16.560 -0.1132  0.4769 -1.5246
19296TIP3    H279304   5.317   4.669  16.591  1.6691  0.2578 -2.0237
19297TIP3   OH279305   3.894   6.428   2.763  0.1668  0.3763 -0.1704
19297TIP3    H179306   3.866   6.464   2.847 -2.1880  0.0158 -0.7294
19297TIP3    H279307   3.814   6.393   2.724  1.6161 -1.6706 -1.5174
19298TIP3   OH279308   2.652   0.751  12.656  0.2104  0.0464 -0.6033
19298TIP3    H179309   2.741   0.739  12.688  0.4248 -0.1579 -1.2528
19298TIP3    H279310   2.656   0.726  12.564 -0.6120 -0.3752 -0.5390
19299TIP3   OH279311   6.403   5.983   0.812 -0.1958  0.5160 -0.1413
19299TIP3    H179312   6.444   6.068   0.796 -0.4716  0.8102  0.6567
19299TIP3    H279313   6.344   5.999   0.886 -0.3430 -0.3400 -0.0709
19300TIP3   OH279314   0.182   5.854  11.296  0.6505  0.5288 -0.1428
19300TIP3    H179315   0.178   5.949  11.303  0.8810  0.4926  0.6478
19300TIP3    H279316   0.128   5.833  11.220  0.6871  1.2952 -0.3927
19301TIP3   OH279317   4.840   3.777  10.590 -0.2453  0.1212  1.0653
19301TIP3    H179318   4.906   3.842  10.614 -0.7346  0.4005  1.6639
19301TIP3    H279319   4.794   3.758  10.671  1.0819 -2.3838  1.3372
19302TIP3   OH279320   4.080   2.658  14.816  0.5539 -0.1339  0.3289
19302TIP3    H179321   4.094   2.748  14.845 -1.0457  0.1490  0.3254
19302TIP3    H279322   4.018   2.665  14.744  0.9968 -1.1853 -0.1713
19303TIP3   OH279323   2.209   4.665  16.636 -0.1441  0.3715 -0.0754
19303TIP3    H179324   2.179   4.581  16.600 -0.8235  0.7547 -0.4213
19303TIP3    H279325   2.224   4.720  16.559 -1.0609  1.0179  0.1861
19304TIP3   OH279326   1.386   5.284   1.335 -0.0931 -0.3088  0.9042
19304TIP3    H179327   1.481   5.277   1.338 -0.0534 -2.6311 -1.7245
19304TIP3    H279328   1.367   5.320   1.249 -1.6051 -1.7509  0.5862
19305TIP3   OH279329   1.121   0.281  10.851 -0.6215 -0.0127  0.3978
19305TIP3    H179330   1.063   0.258  10.778  0.6371  0.2617 -0.7475
19305TIP3    H279331   1.172   0.356  10.818 -0.1642  0.2495  1.6477
19306TIP3   OH279332   1.927   0.048   2.873  0.0214 -0.0148 -0.3994
19306TIP3    H179333   1.853   0.007   2.828 -1.1019  1.0272  0.4722
19306TIP3    H279334   2.004   0.001   2.838 -1.1636 -2.8992  0.5652
19307TIP3   OH279335   3.565   2.549   3.849  0.6396 -0.0432 -0.4327
19307TIP3    H179336   3.497   2.507   3.901  1.8254 -0.8669  0.5190
19307TIP3    H279337   3.534   2.639   3.836  0.8847  0.6444  2.9146
19308TIP3   OH279338   2.524   3.738  13.906 -0.0872 -0.0158  0.1435
19308TIP3    H179339   2.496   3.797  13.977 -0.9346  0.1376 -0.3092
19308TIP3    H279340   2.568   3.795  13.843 -0.5069  0.0628 -0.0797
19309TIP3   OH279341   6.681   3.392  14.365  0.1440  0.4442  0.4252
19309TIP3    H179342   6.674   3.327  14.295 -0.6983 -0.3016  1.1758
19309TIP3    H279343   6.751   3.359  14.421 -0.4406  0.0300  0.9338
19310TIP3   OH279344   3.642   0.899  15.555  0.2669  0.0482  0.5830
19310TIP3    H179345   3.701   0.832  15.591  1.4271  2.2811  3.1840
19310TIP3    H279346   3.691   0.938  15.483 -0.0198 -1.1532 -0.3032
19311TIP3   OH279347   6.297   1.094  12.864 -0.1377  0.3798 -0.3818
19311TIP3    H179348   6.358   1.025  12.891  0.0732 -0.0578 -1.8559
19311TIP3    H279349   6.336   1.129  12.784 -1.2407  0.8737 -0.7213
19312TIP3   OH279350   3.882   1.002  16.109 -0.5910  0.0736 -0.0011
19312TIP3    H179351   3.975   0.980  16.102 -0.6737 -0.4457  0.4605
19312TIP3    H279352   3.871   1.079  16.053 -0.4461 -1.4894 -2.3133
19313TIP3   OH279353   2.675   5.376   0.372 -0.6055 -0.1977 -0.0870
19313TIP3    H179354   2.736   5.303   0.362  1.4568  1.2992  0.7539
19313TIP3    H279355   2.624   5.376   0.292  1.7638 -0.4534 -1.7098
19314TIP3   OH279356   3.480   5.685  17.322 -0.7877  0.9296 -0.3556
19314TIP3    H179357   3.512   5.595  17.318 -1.3069  0.7732 -1.6794
19314TIP3    H279358   3.438   5.693  17.408  2.4609  1.0742  1.3448
19315TIP3   OH279359   4.174   6.055   5.417  0.5339  0.0485  0.2378
19315TIP3    H179360   4.236   5.983   5.406  0.4503  0.0156 -0.0349
19315TIP3    H279361   4.133   6.039   5.502  1.5071  0.5513  0.8154
19316TIP3   OH279362   3.341   6.295   5.957 -0.2302 -0.1043 -0.2481
19316TIP3    H179363   3.288   6.334   5.888  0.1325  0.7460 -0.0587
19316TIP3    H279364   3.426   6.277   5.915 -0.4615 -0.9268 -0.3953
19317TIP3   OH279365   4.599   2.879  16.404  0.0932 -0.6120  0.5340
19317TIP3    H179366   4.552   2.835  16.475 -3.7319 -0.9170 -1.9105
19317TIP3    H279367   4.614   2.811  16.339 -0.8332  0.5270 -0.9316
19318TIP3   OH279368   3.328   0.905   4.428  0.0980 -0.2140 -0.5310
19318TIP3    H179369   3.238   0.878   4.445  0.1735 -0.1851 -0.0628
19318TIP3    H279370   3.339   0.897   4.333 -0.7567  0.8865 -0.7451
19319TIP3   OH279371   0.351   6.510  16.096  0.4496  0.2085  0.8558
19319TIP3    H179372   0.262   6.541  16.115  0.1047 -0.0098 -0.3603
19319TIP3    H279373   0.407   6.584  16.120 -0.1907  0.9310  0.1738
19320TIP3   OH279374   3.374   6.025   3.438 -0.4418 -0.4656  0.2626
19320TIP3    H179375   3.293   6.041   3.486  0.1901  0.2322  1.1271
19320TIP3    H279376   3.347   6.026   3.346 -1.8537 -2.8643  0.5640
19321TIP3   OH279377   3.202   1.941  12.973  0.2527 -0.2490 -0.0685
19321TIP3    H179378   3.215   1.985  13.057 -0.4486 -0.8083  0.3522
19321TIP3    H279379   3.206   1.848  12.994 -0.0228 -0.3946 -0.6417
19322TIP3   OH279380   5.296   0.232   3.901  0.5518 -0.0957 -0.5317
19322TIP3    H179381   5.221   0.221   3.959  0.0565 -2.1608 -1.4640
19322TIP3    H279382   5.310   0.327   3.896 -1.1301  0.2494  0.7174
19323TIP3   OH279383   1.781   2.080   5.974 -0.4254  0.4767 -0.2111
19323TIP3    H179384   1.758   2.123   6.056  0.0495  0.7162 -0.1997
19323TIP3    H279385   1.705   2.091   5.918 -0.1451  1.7294 -0.3689
19324TIP3   OH279386   1.750   0.840   1.349  0.2317 -0.3188  0.3514
19324TIP3    H179387   1.696   0.773   1.390  1.9969 -1.5306  0.7937
19324TIP3    H279388   1.816   0.861   1.415  0.6199  0.7570 -0.3573
19325TIP3   OH279389   1.042   1.937   3.766  0.2442  0.4221 -0.5971
19325TIP3    H179390   1.038   1.944   3.671 -1.0987  0.3365 -0.5549
19325TIP3    H279391   0.958   1.901   3.792  1.3339 -1.4877  0.4792
19326TIP3   OH279392   4.390   1.725   5.523  0.1605  0.1118 -0.2106
19326TIP3    H179393   4.366   1.672   5.599  0.0349 -0.8080 -0.8754
19326TIP3    H279394   4.477   1.760   5.545  1.2359 -2.1373 -0.6360
19327TIP3   OH279395   5.839   2.725   4.945  0.1670  1.1031  0.0228
19327TIP3    H179396   5.863   2.811   4.979  0.0141  1.9867 -1.9575
19327TIP3    H279397   5.750   2.736   4.911 -0.0087  0.0465  0.0842
19328TIP3   OH279398   2.177   2.603   0.617  0.1678 -0.0477 -0.0762
19328TIP3    H179399   2.091   2.641   0.631  0.1913  0.4688 -1.1815
19328TIP3    H279400   2.229   2.633   0.692  0.0780  1.8427 -0.7020
19329TIP3   OH279401   0.071   6.575  11.001  0.2742 -0.4682 -0.4598
19329TIP3    H179402   0.050   6.588  10.909  3.4529  1.0647 -1.1296
19329TIP3    H279403  -0.013   6.558  11.043 -1.1420 -2.7502 -3.8130
19330TIP3   OH279404   0.030   2.221   1.075 -0.3904 -0.8358  0.5204
19330TIP3    H179405   0.017   2.171   0.994  1.8566 -2.0931  0.8517
19330TIP3    H279406  -0.007   2.166   1.144 -0.6064 -0.6500  0.5524
19331TIP3   OH279407   3.923   5.527   2.243  0.7243  0.1408  0.1726
19331TIP3    H179408   3.851   5.472   2.274  0.4566  0.4264  0.0648
19331TIP3    H279409   3.964   5.560   2.323  0.1381  0.7407  0.2348
19332TIP3   OH279410   0.247   3.691  15.521  0.1538 -0.1353 -0.0684
19332TIP3    H179411   0.339   3.710  15.503  0.4895 -2.1859 -0.6951
19332TIP3    H279412   0.209   3.777  15.540  1.5207  1.1768 -2.7567
19333TIP3   OH279413   6.004   2.560  16.885  0.2292  0.0099 -0.1527
19333TIP3    H179414   6.074   2.565  16.950 -0.9641 -0.7945  1.2849
19333TIP3    H279415   6.038   2.501  16.817  0.9120 -0.4561  0.5726
19334TIP3   OH279416   4.070   5.045   1.096 -0.7825 -0.1466  0.5154
19334TIP3    H179417   4.066   5.106   1.170  0.0811  0.4379  0.0921
19334TIP3    H279418   4.162   5.021   1.089 -0.4997  1.2105 -1.4694
19335TIP3   OH279419   0.691   0.504   3.575 -0.2148  0.3911  0.0091
19335TIP3    H179420   0.734   0.498   3.661 -0.9055  1.7235  0.4657
19335TIP3    H279421   0.627   0.574   3.585 -1.4838 -0.5767 -1.1122
19336TIP3   OH279422   5.721   2.829   1.140  0.4568 -0.4942 -0.0714
19336TIP3    H179423   5.777   2.834   1.063 -1.6199  1.8182 -1.5881
19336TIP3    H279424   5.642   2.783   1.110  0.8933 -2.6073  1.6841
19337TIP3   OH279425   2.631   0.686   3.369  0.3692 -0.3141 -0.4944
19337TIP3    H179426   2.595   0.641   3.292 -0.9703 -1.0341  0.5060
19337TIP3    H279427   2.608   0.778   3.357  1.1616 -0.2267 -1.4773
19338TIP3   OH279428   0.478   1.540   1.304 -0.4452  0.0398 -0.3945
19338TIP3    H179429   0.391   1.513   1.333 -0.9453  0.1973 -1.6832
19338TIP3    H279430   0.502   1.611   1.364 -0.4457 -1.1389  1.0525
19339TIP3   OH279431   0.082   5.794  11.056 -0.1320  0.8668  0.1304
19339TIP3    H179432   0.169   5.790  11.017 -0.6791 -2.3101 -1.0699
19339TIP3    H279433   0.022   5.797  10.981 -1.0938 -0.1352  0.8188
19340TIP3   OH279434   0.940   2.282  12.236  0.2106 -0.3801  0.3283
19340TIP3    H179435   0.973   2.370  12.256  1.0394 -0.4380 -0.6749
19340TIP3    H279436   0.988   2.224  12.295 -1.6112 -0.0590  2.2839
19341TIP3   OH279437   5.724   6.604   5.033 -0.1946 -0.5126 -0.8185
19341TIP3    H179438   5.819   6.591   5.032 -0.3706 -2.1432  0.0770
19341TIP3    H279439   5.689   6.526   4.990 -1.1660 -0.4474 -0.1692
19342TIP3   OH279440   6.558   0.217  11.891 -0.1191 -0.1273 -0.1377
19342TIP3    H179441   6.573   0.280  11.820 -1.3485 -0.0373 -0.3354
19342TIP3    H279442   6.480   0.249  11.935 -0.4728 -1.2430  0.0629
19343TIP3   OH279443   4.933   3.299   0.681  0.4203 -0.1226  0.0174
19343TIP3    H179444   5.006   3.238   0.668 -0.3495 -0.5745 -2.6870
19343TIP3    H279445   4.919   3.339   0.595 -0.9898  1.7453  1.0403
19344TIP3   OH279446   0.037   0.260  13.382 -0.3668  0.1579  0.7218
19344TIP3    H179447   0.083   0.303  13.310 -0.7968 -0.5173  0.0347
19344TIP3    H279448  -0.052   0.297  13.379 -1.0245 -1.4347 -0.4749
19345TIP3   OH279449   4.354   3.525  13.958  0.4756 -0.0149  0.1036
19345TIP3    H179450   4.400   3.479  14.028  2.2958  1.9482  0.3295
19345TIP3    H279451   4.277   3.564  13.999  0.0491 -1.1200  0.3623
19346TIP3   OH279452   5.476   4.177   0.439 -0.2077 -0.1023 -0.4871
19346TIP3    H179453   5.504   4.160   0.528 -0.6199  0.1509 -0.3070
19346TIP3    H279454   5.550   4.223   0.398  0.2272 -0.7761 -0.4680
19347TIP3   OH279455   0.194   0.766   0.771  0.5925 -0.5428 -0.3476
19347TIP3    H179456   0.163   0.707   0.839  0.2291 -1.1264 -0.9953
19347TIP3    H279457   0.139   0.844   0.779 -0.5265 -1.2424 -0.9663
19348TIP3   OH279458   5.773   3.771   4.224  0.5423 -0.8348  0.6638
19348TIP3    H179459   5.753   3.852   4.178 -0.5381 -1.9254 -0.8791
19348TIP3    H279460   5.863   3.781   4.253  0.8973  0.3447 -0.7614
19349TIP3   OH279461   3.684   0.841   5.107 -0.0206 -0.1319 -0.6553
19349TIP3    H179462   3.685   0.750   5.075 -0.2495  0.0517 -1.1893
19349TIP3    H279463   3.616   0.884   5.055 -1.1352 -0.0797  0.8032
19350TIP3   OH279464   0.598   5.975  12.950  0.2164 -0.1135 -0.2043
19350TIP3    H179465   0.679   5.928  12.971  1.4646  1.9430 -0.1651
19350TIP3    H279466   0.612   6.008  12.862 -0.3054  0.8087  0.0518
19351TIP3   OH279467   2.612   5.670   5.964  0.3449  0.1748  0.2894
19351TIP3    H179468   2.558   5.634   5.894 -1.0077  0.7992  0.9846
19351TIP3    H279469   2.677   5.601   5.982 -0.3628 -0.6914 -0.3996
19352TIP3   OH279470   5.989   3.978   0.606  0.4378  0.3083 -0.4221
19352TIP3    H179471   6.047   3.911   0.643 -0.6918 -1.9224 -2.4101
19352TIP3    H279472   5.926   3.996   0.676 -0.5600 -2.4477 -0.4697
19353TIP3   OH279473   3.042   4.275   2.563  0.2954 -0.0338 -0.2289
19353TIP3    H179474   2.968   4.262   2.503  0.4836 -0.6091 -0.3443
19353TIP3    H279475   3.074   4.187   2.580  0.2615  0.1329  0.7095
19354TIP3   OH279476   6.675   4.743  12.912 -0.3090 -0.2711 -0.3879
19354TIP3    H179477   6.627   4.805  12.857  0.2414 -1.1296 -1.9124
19354TIP3    H279478   6.650   4.765  13.002 -2.3978  0.2447 -1.0435
19355TIP3   OH279479   1.456   4.372  13.543  0.1186 -0.2932  0.3955
19355TIP3    H179480   1.426   4.444  13.599 -0.3699 -1.2961  1.4580
19355TIP3    H279481   1.532   4.337  13.588 -0.5663 -1.4202  0.7278
19356TIP3   OH279482   2.030   3.883   1.779  0.2962  0.0233  0.2037
19356TIP3    H179483   2.028   3.879   1.875 -1.0770 -1.3698  0.1656
19356TIP3    H279484   2.021   3.791   1.752 -1.0861  0.5489 -1.2527
19357TIP3   OH279485   4.512   4.109  14.228  0.5699 -0.2562  0.1054
19357TIP3    H179486   4.553   4.187  14.189 -1.3402  0.9299  0.3497
19357TIP3    H279487   4.562   4.093  14.308  1.8432 -0.1448 -0.6318
19358TIP3   OH279488   4.887   1.695   4.204 -0.2967  0.2309 -0.1023
19358TIP3    H179489   4.915   1.665   4.118  0.5818  1.9474 -0.4484
19358TIP3    H279490   4.805   1.741   4.188 -1.0885 -1.0062  0.2726
19359TIP3   OH279491   6.019   1.951  12.676  0.3293 -0.4035  0.2647
19359TIP3    H179492   5.954   1.962  12.606  1.5854 -1.8522 -1.2118
19359TIP3    H279493   6.100   1.987  12.640  0.7220  0.0065  1.5012
19360TIP3   OH279494   4.972   3.178   4.211  0.0252  0.5006 -0.1584
19360TIP3    H179495   4.934   3.154   4.126  0.3091 -1.8696  0.2988
19360TIP3    H279496   4.903   3.159   4.275 -0.0070  1.7694  0.2046
19361TIP3   OH279497   4.825   5.033   5.983 -0.1542  0.1077  0.2511
19361TIP3    H179498   4.892   5.101   5.986  1.1292 -0.9714 -1.8128
19361TIP3    H279499   4.750   5.075   5.942 -0.0975  0.8278  0.8650
19362TIP3   OH279500   5.283   4.296  15.005  0.4240  0.8175 -0.0238
19362TIP3    H179501   5.351   4.352  14.968  0.1444  1.6331  0.6673
19362TIP3    H279502   5.210   4.302  14.944  0.0833  1.9045  0.4610
19363TIP3   OH279503   5.269   6.078  14.855  0.1621 -0.4805  0.0866
19363TIP3    H179504   5.185   6.103  14.816  1.2856  1.3046 -1.3416
19363TIP3    H279505   5.282   5.987  14.828 -1.5296 -0.9654  0.7800
19364TIP3   OH279506   5.384   4.929   0.968 -0.4295  0.2615 -0.6590
19364TIP3    H179507   5.412   5.005   1.018  1.2782 -2.1450  2.3566
19364TIP3    H279508   5.295   4.911   0.998 -0.0535 -0.1283  0.2591
19365TIP3   OH279509   2.027   5.208  10.783  0.0097  0.1296 -0.0872
19365TIP3    H179510   2.110   5.253  10.768  1.0158 -1.3565  0.7460
19365TIP3    H279511   1.980   5.216  10.700  1.1100  0.7356 -0.6723
19366TIP3   OH279512   1.624   4.754  13.007 -0.8015  0.0778  0.2710
19366TIP3    H179513   1.686   4.790  12.944 -1.5495  1.9934  0.5698
19366TIP3    H279514   1.674   4.747  13.089 -0.4168 -0.3789 -0.0015
19367TIP3   OH279515   2.885   2.237   3.277 -0.4887  0.6097 -0.1092
19367TIP3    H179516   2.793   2.213   3.289  0.0520 -1.4218  0.4221
19367TIP3    H279517   2.893   2.259   3.184 -1.1071 -1.3591 -0.6805
19368TIP3   OH279518   2.030   4.649  12.845 -0.1338  0.3415 -0.4486
19368TIP3    H179519   1.972   4.577  12.869  0.0153  0.3257 -0.1280
19368TIP3    H279520   2.103   4.642  12.907  0.8399 -0.4066 -1.6366
19369TIP3   OH279521   1.718   4.115   5.527 -0.0191 -1.0203 -0.4383
19369TIP3    H179522   1.699   4.188   5.469  0.1180 -0.0730  0.6758
19369TIP3    H279523   1.650   4.118   5.594  0.5392 -1.3206  0.1603
19370TIP3   OH279524   1.102   1.152   6.742 -0.1131  0.5885  1.0575
19370TIP3    H179525   1.081   1.244   6.753 -0.8152  0.3650  1.6781
19370TIP3    H279526   1.085   1.113   6.828  0.3090 -0.0925  0.8399
19371TIP3   OH279527   2.992   4.158  16.083 -0.5145  0.8859 -0.4502
19371TIP3    H179528   2.970   4.149  16.176 -0.2726 -1.4062 -0.5562
19371TIP3    H279529   2.910   4.140  16.037 -0.6649  2.1482 -0.6937
19372TIP3   OH279530   6.634   3.561   1.101  0.1335 -0.4701 -0.6627
19372TIP3    H179531   6.568   3.616   1.143  0.0339  0.5231 -2.0402
19372TIP3    H279532   6.714   3.613   1.102  0.4026 -0.8712 -0.7611
19373TIP3   OH279533   3.894   5.129   1.907  0.3675 -0.0901 -0.1478
19373TIP3    H179534   3.920   5.159   1.820  1.4223  2.7231  1.0252
19373TIP3    H279535   3.832   5.195   1.937  1.3640 -0.0058  1.8794
19374TIP3   OH279536   3.334   0.099   1.476 -0.1923 -0.5516 -0.4448
19374TIP3    H179537   3.365   0.047   1.550  0.3646  0.9542  0.4201
19374TIP3    H279538   3.406   0.096   1.413  0.5333  0.4677  0.2952
19375TIP3   OH279539   0.658   4.709   1.584  0.1106 -0.1228  0.3366
19375TIP3    H179540   0.584   4.665   1.627  0.2859 -1.4572 -0.6772
19375TIP3    H279541   0.620   4.755   1.510  0.0575  0.7230  0.8747
19376TIP3   OH279542   6.575   4.941   0.657 -0.4706  0.0429 -0.0842
19376TIP3    H179543   6.609   5.025   0.689  1.4069  0.3956 -2.6820
19376TIP3    H279544   6.595   4.879   0.727  3.2631  0.7739 -0.2895
19377TIP3   OH279545   3.966   3.194  15.518 -0.0239 -0.1181  0.3982
19377TIP3    H179546   3.967   3.235  15.605  1.6181 -1.6395  1.1565
19377TIP3    H279547   4.058   3.176  15.499 -0.4855 -1.1647 -1.0178
19378TIP3   OH279548   0.624   5.847   2.970 -0.2026 -0.5044 -0.0550
19378TIP3    H179549   0.712   5.843   3.007 -0.2905  1.0157  0.3838
19378TIP3    H279550   0.607   5.758   2.939  0.6826 -1.3355  1.7149
19379TIP3   OH279551   0.872   3.385   2.605  0.1240 -0.0521 -0.3015
19379TIP3    H179552   0.834   3.446   2.668  1.6784 -1.0779  1.7562
19379TIP3    H279553   0.966   3.405   2.606  0.5061 -1.7298 -0.4322
19380TIP3   OH279554   6.738   3.774   5.171  0.2986  0.0027 -0.4065
19380TIP3    H179555   6.701   3.734   5.249 -0.7623 -0.3044 -1.0399
19380TIP3    H279556   6.817   3.723   5.153  1.3023  0.9398  1.2166
19381TIP3   OH279557   6.411   3.422  16.210 -0.5757 -0.2684 -0.5870
19381TIP3    H179558   6.398   3.383  16.124 -0.0308  0.2243 -0.8949
19381TIP3    H279559   6.461   3.502  16.193 -1.2437  0.3043  0.0928
19382TIP3   OH279560   2.270   6.472   5.120  1.2696 -0.1968  0.4046
19382TIP3    H179561   2.300   6.551   5.166  0.6640 -0.0745  0.5924
19382TIP3    H279562   2.189   6.498   5.076  1.2673 -0.6118  0.1543
19383TIP3   OH279563   3.839   0.379   3.459 -0.1413  0.1821  0.6026
19383TIP3    H179564   3.872   0.325   3.387  1.5616  1.4547  0.3544
19383TIP3    H279565   3.828   0.466   3.420  2.5099  1.3449  2.1822
19384TIP3   OH279566   1.219   2.737  13.507 -0.1865  0.1342  0.2766
19384TIP3    H179567   1.205   2.653  13.551 -0.6917 -0.3062 -0.6960
19384TIP3    H279568   1.191   2.803  13.571  0.5041 -0.4104  1.1632
19385TIP3   OH279569   1.998   3.352  15.670  0.1975 -0.6336 -0.0150
19385TIP3    H179570   2.014   3.385  15.581 -2.0257 -0.9943 -0.6211
19385TIP3    H279571   2.085   3.340  15.707  1.1804  1.4421 -1.4115
19386TIP3   OH279572   4.678   6.177  17.314 -0.0880 -0.3034 -0.5028
19386TIP3    H179573   4.661   6.261  17.357  0.1067 -0.0768 -0.8650
19386TIP3    H279574   4.599   6.126  17.331  0.6127 -0.8103  1.4940
19387TIP3   OH279575   6.553   1.379  11.376  0.1796  0.2102 -0.0897
19387TIP3    H179576   6.590   1.467  11.376 -0.2064  0.4043 -1.3936
19387TIP3    H279577   6.468   1.389  11.332 -0.2240 -0.6833  0.4452
19388TIP3   OH279578   3.476   0.458  17.256 -0.4779  0.2550  0.2572
19388TIP3    H179579   3.565   0.477  17.285 -1.3333  2.1153  1.8795
19388TIP3    H279580   3.459   0.370  17.288  0.1767  0.5759  1.5657
19389TIP3   OH279581   1.324   4.979   3.039  0.6225  0.2729 -0.2858
19389TIP3    H179582   1.330   4.960   3.132  1.0137  0.9590 -0.1638
19389TIP3    H279583   1.232   4.999   3.024  0.4362 -0.4923 -0.1796
19390TIP3   OH279584   0.485   2.837   2.530  0.1541 -0.9163 -0.3060
19390TIP3    H179585   0.432   2.903   2.574  1.3085 -0.0122 -0.2150
19390TIP3    H279586   0.457   2.754   2.568 -0.4582 -0.3586  0.4878
19391TIP3   OH279587   2.766   6.574   5.029 -0.0843 -0.2438 -0.3922
19391TIP3    H179588   2.777   6.666   5.004  0.9639 -0.1095  0.4679
19391TIP3    H279589   2.685   6.547   4.986  0.6807  0.4608 -2.4098
19392TIP3   OH279590   4.287   3.708   0.467  0.0078 -0.0800  0.0056
19392TIP3    H179591   4.224   3.682   0.534  0.4755  2.0693  1.4091
19392TIP3    H279592   4.316   3.796   0.494  2.2366 -0.2234 -1.5716
19393TIP3   OH279593   2.146   1.769   5.894 -0.2559 -0.4197 -0.2792
19393TIP3    H179594   2.152   1.674   5.904  1.0194 -0.4448 -1.0165
19393TIP3    H279595   2.226   1.802   5.937 -0.4883  0.2930 -0.3813
19394TIP3   OH279596   1.027   6.711  15.310  0.6180  0.7080  0.0868
19394TIP3    H179597   0.940   6.707  15.350  0.6031  2.1734  0.2313
19394TIP3    H279598   1.011   6.692  15.217  0.4512 -1.1591  0.4541
19395TIP3   OH279599   2.381   6.499   1.588  0.0036 -0.1641  0.3265
19395TIP3    H179600   2.417   6.423   1.633  0.1199 -0.7318 -0.7138
19395TIP3    H279601   2.417   6.574   1.636  1.3869 -0.7338  0.2129
19396TIP3   OH279602   6.430   5.170  12.740  0.2689  0.3497  0.4796
19396TIP3    H179603   6.455   5.262  12.750 -0.0480  0.3035  2.0377
19396TIP3    H279604   6.382   5.166  12.658 -0.4999  1.7660  0.8317
19397TIP3   OH279605   0.839   4.178   3.894  0.3285  0.4180 -0.3383
19397TIP3    H179606   0.906   4.220   3.841  1.1166 -1.7392 -1.1564
19397TIP3    H279607   0.825   4.093   3.853 -1.4113 -0.0335  1.0390
19398TIP3   OH279608   0.712   2.177  11.946  0.2716  0.4997 -0.4757
19398TIP3    H179609   0.646   2.215  12.004 -0.7958 -0.5423 -0.9737
19398TIP3    H279610   0.704   2.083  11.958 -0.2146  0.2199 -2.5295
19399TIP3   OH279611   3.936   1.621   0.751 -0.1361 -0.2000  0.1649
19399TIP3    H179612   3.980   1.659   0.828  1.1936 -1.8547  0.2936
19399TIP3    H279613   3.998   1.635   0.679  0.3921 -1.9785  0.2132
19400TIP3   OH279614   5.425   4.768   3.890 -0.1992  0.4860 -0.2153
19400TIP3    H179615   5.426   4.820   3.970  0.1117  2.3223 -1.3585
19400TIP3    H279616   5.341   4.723   3.892 -0.0365  0.1890  1.3015
19401TIP3   OH279617   2.698   3.214  16.721 -0.2592 -0.1048 -0.1158
19401TIP3    H179618   2.782   3.245  16.688 -0.7752  1.3624 -0.1415
19401TIP3    H279619   2.715   3.192  16.812  0.3954 -0.8693 -0.4174
19402TIP3   OH279620   6.035   2.402  14.745  0.0738  0.1489  0.2712
19402TIP3    H179621   6.054   2.322  14.795 -0.5609  0.0464  0.3585
19402TIP3    H279622   6.074   2.386  14.659 -0.5601 -0.5137  0.0931
19403TIP3   OH279623   1.969   3.555  16.471 -0.1647 -0.3111  0.1378
19403TIP3    H179624   1.906   3.494  16.433  0.0220 -1.7357  1.9670
19403TIP3    H279625   1.972   3.532  16.564 -0.5999  2.9568  1.1071
19404TIP3   OH279626   3.778   1.088   4.410  0.1623  0.0084 -0.0819
19404TIP3    H179627   3.740   1.112   4.326 -0.8179  1.2057  0.6579
19404TIP3    H279628   3.872   1.104   4.401 -0.2618  3.0423 -0.0666
19405TIP3   OH279629   4.034   3.621  12.794  0.0994  0.3132  0.1018
19405TIP3    H179630   3.969   3.598  12.727  1.0708 -1.3363 -0.3255
19405TIP3    H279631   4.040   3.544  12.849  0.6711  0.9843  1.0016
19406TIP3   OH279632   3.823   2.136   1.130 -0.5327 -0.1426  0.6034
19406TIP3    H179633   3.831   2.227   1.160  0.7284 -0.2420  0.6326
19406TIP3    H279634   3.729   2.124   1.115 -0.7456  1.0970  0.7976
19407TIP3   OH279635   3.363   3.693   2.361 -0.3865  0.0125  0.2955
19407TIP3    H179636   3.369   3.717   2.269 -0.8435 -0.0818  0.2410
19407TIP3    H279637   3.450   3.660   2.383  0.1945  1.4547  0.3024
19408TIP3   OH279638   3.084   4.524   0.601 -0.0267  0.1029 -0.4937
19408TIP3    H179639   3.103   4.591   0.667  0.2705 -0.2086 -0.2585
19408TIP3    H279640   3.036   4.457   0.648  1.4094 -0.7937 -0.2288
19409TIP3   OH279641   1.212   4.023  16.416  0.1605 -0.6514 -0.1593
19409TIP3    H179642   1.172   3.936  16.412  0.5214 -0.8087 -0.4842
19409TIP3    H279643   1.273   4.024  16.342  0.9980 -0.5456  0.5229
19410TIP3   OH279644   5.421   6.300  16.753  0.3401  0.1303  0.0356
19410TIP3    H179645   5.338   6.344  16.769  0.8900  0.6586  1.6525
19410TIP3    H279646   5.488   6.362  16.783  1.1907 -1.3238  1.3195
19411TIP3   OH279647   2.618   4.382  15.199  0.8943  0.5438 -0.5776
19411TIP3    H179648   2.706   4.346  15.193  1.1184  1.2507 -1.8544
19411TIP3    H279649   2.597   4.380  15.292  1.5714 -1.2403 -0.4374
19412TIP3   OH279650   2.979   1.947  15.368 -0.3775  0.2554  0.0748
19412TIP3    H179651   3.025   1.865  15.351  0.9160  0.9534  0.1614
19412TIP3    H279652   2.949   1.939  15.458 -0.8942 -0.4084 -0.1425
19413TIP3   OH279653   5.871   1.327  12.215 -0.4225  0.1317 -0.4418
19413TIP3    H179654   5.880   1.396  12.149  0.4755 -0.2506 -0.7284
19413TIP3    H279655   5.959   1.313  12.248 -1.0435  1.5718  2.1591
19414TIP3   OH279656   5.815   0.741  13.820  0.4611 -0.3760 -0.3001
19414TIP3    H179657   5.770   0.825  13.807  1.6781  0.7719  2.2435
19414TIP3    H279658   5.747   0.681  13.846 -0.1827  0.2666 -0.4628
19415TIP3   OH279659   1.007   6.449  12.894  0.1140 -0.4417  0.2604
19415TIP3    H179660   1.059   6.377  12.857 -1.0723 -0.1965 -2.1206
19415TIP3    H279661   1.035   6.526  12.845 -0.4104  0.2437  1.0174
19416TIP3   OH279662   4.501   6.445  12.947  0.4975  0.4480 -0.1545
19416TIP3    H179663   4.499   6.349  12.953 -2.7488  0.3876 -0.3832
19416TIP3    H279664   4.550   6.472  13.024 -1.6576 -1.3983  2.0453
19417TIP3   OH279665   4.052   5.328  10.804 -0.0311  0.0458 -0.1478
19417TIP3    H179666   3.956   5.329  10.812 -0.1689 -1.1662 -1.3120
19417TIP3    H279667   4.075   5.419  10.784 -0.7925  0.6198  1.4135
19418TIP3   OH279668   1.444   5.715  16.830  0.3125  0.0628 -0.6034
19418TIP3    H179669   1.383   5.642  16.816  1.6416 -0.8065 -2.2954
19418TIP3    H279670   1.481   5.699  16.916 -1.5343  0.4181  0.3197
19419TIP3   OH279671   4.230   2.373   0.220 -0.2035  0.2783 -0.0162
19419TIP3    H179672   4.274   2.395   0.301  1.5913  1.3720 -1.2286
19419TIP3    H279673   4.284   2.305   0.181 -0.2698  0.7361 -0.9351
19420TIP3   OH279674   4.897   2.587   5.226  0.1214  0.1828 -0.1953
19420TIP3    H179675   4.933   2.508   5.268 -0.3965  0.7481  1.3786
19420TIP3    H279676   4.802   2.577   5.233  0.0531  1.5355  1.2397
19421TIP3   OH279677   1.189   1.560   2.402 -0.1056 -0.0554  0.2952
19421TIP3    H179678   1.095   1.558   2.416  0.2805 -1.6639  3.8339
19421TIP3    H279679   1.216   1.648   2.427 -0.6982  0.6881 -1.5582
19422TIP3   OH279680   4.888   4.475  11.412 -0.2683  0.4377 -0.0352
19422TIP3    H179681   4.794   4.468  11.400 -0.2182  0.2534 -0.3316
19422TIP3    H279682   4.902   4.564  11.443 -0.3665  1.1718 -1.9270
19423TIP3   OH279683   1.352   4.667   3.626  0.1015 -0.1846 -0.1364
19423TIP3    H179684   1.392   4.632   3.706  0.8863  1.2017  0.0972
19423TIP3    H279685   1.339   4.760   3.644 -0.3644  0.0127 -1.3766
19424TIP3   OH279686   2.677   5.883  12.181 -0.0641 -0.4885  0.3315
19424TIP3    H179687   2.642   5.857  12.096 -1.1048 -1.3722  0.9913
19424TIP3    H279688   2.599   5.893  12.236  0.5310  0.8592  0.9902
19425TIP3   OH279689   1.238   1.825  12.791  0.0970 -0.0727  0.5233
19425TIP3    H179690   1.232   1.850  12.699  0.3189  0.0355  0.5373
19425TIP3    H279691   1.254   1.730  12.789  1.2887  0.1166  0.4128
19426TIP3   OH279692   5.321   2.565   6.041  0.9384  0.6977  0.5401
19426TIP3    H179693   5.410   2.533   6.027  0.2943 -1.0936  0.1944
19426TIP3    H279694   5.295   2.528   6.126  0.0819  0.0719  0.0254
19427TIP3   OH279695   2.603   1.962  13.579 -0.6094  0.2831  0.3412
19427TIP3    H179696   2.545   1.951  13.504  0.6376  0.7424 -0.7300
19427TIP3    H279697   2.544   1.963  13.655 -1.9581  0.4277 -0.6666
19428TIP3   OH279698   1.289   1.882   4.759 -0.1062 -0.4871  0.3445
19428TIP3    H179699   1.254   1.947   4.699 -1.0102 -0.2813  1.0740
19428TIP3    H279700   1.296   1.802   4.706 -1.1528 -0.3814  0.0396
19429TIP3   OH279701   5.646   4.275   2.505  0.5365 -0.2431 -0.3993
19429TIP3    H179702   5.714   4.264   2.572  1.7823  2.5666 -1.0912
19429TIP3    H279703   5.641   4.369   2.491 -1.0742 -0.6191 -2.8925
19430TIP3   OH279704   5.906   0.023   0.848  0.0495  0.2126  0.6251
19430TIP3    H179705   5.914  -0.060   0.895  3.5979 -0.9591 -1.6950
19430TIP3    H279706   5.941   0.088   0.909  1.4296 -0.7388  0.8992
19431TIP3   OH279707   1.782   6.457  16.524  0.1944  0.6283  0.0751
19431TIP3    H179708   1.816   6.423  16.607  0.1776  4.4409  1.8178
19431TIP3    H279709   1.851   6.512  16.490 -1.3516  2.5260 -0.1682
19432TIP3   OH279710   6.022   2.294  12.484  0.1165  0.0290  0.6546
19432TIP3    H179711   6.101   2.347  12.494  0.8344 -0.9489  0.3255
19432TIP3    H279712   6.035   2.247  12.401 -1.5191  1.0293 -0.2151
19433TIP3   OH279713   2.217   3.419  13.682 -0.7171  0.2262  0.1323
19433TIP3    H179714   2.286   3.396  13.744 -1.9920  1.0811  1.9550
19433TIP3    H279715   2.175   3.336  13.661  1.0870 -0.3730 -1.3661
19434TIP3   OH279716   3.897   5.854   3.386  0.2685 -0.6441 -0.1162
19434TIP3    H179717   3.879   5.770   3.428  1.1902 -1.1943 -0.7786
19434TIP3    H279718   3.938   5.830   3.302  4.1231  0.4042  1.2474
19435TIP3   OH279719   4.396   5.313   5.694 -0.3996 -0.3393 -0.2732
19435TIP3    H179720   4.418   5.221   5.708 -1.4133 -0.5722 -0.0948
19435TIP3    H279721   4.300   5.315   5.698 -0.4530  0.5254 -1.4414
19436TIP3   OH279722   0.555   0.523   3.887  0.6671  0.6197  0.0836
19436TIP3    H179723   0.480   0.555   3.836  0.8185 -0.8772 -1.1722
19436TIP3    H279724   0.590   0.601   3.929 -1.8362  1.3227  1.0796
19437TIP3   OH279725   1.393   4.552  16.293  0.2199  0.2388 -0.0830
19437TIP3    H179726   1.405   4.498  16.371 -0.7204 -0.0589 -0.1305
19437TIP3    H279727   1.349   4.631  16.324  0.6146  0.5033 -0.1843
19438TIP3   OH279728   3.891   0.970  17.310 -0.1525  0.4295 -0.4451
19438TIP3    H179729   3.910   1.006  17.397 -0.8068  0.4449 -0.3033
19438TIP3    H279730   3.930   1.033  17.249  1.5168 -0.2776 -0.1589
19439TIP3   OH279731   1.682   3.759   6.661  0.1160  0.4865 -0.7103
19439TIP3    H179732   1.740   3.836   6.653 -0.4694  1.2722  1.8850
19439TIP3    H279733   1.607   3.780   6.605  0.0026  1.7807 -0.0992
19440TIP3   OH279734   5.209   2.919   2.548  0.0696 -0.0377  0.1212
19440TIP3    H179735   5.287   2.902   2.601 -1.1979 -0.8745  1.8438
19440TIP3    H279736   5.169   2.996   2.589 -0.0550  0.3322 -0.6884
19441TIP3   OH279737   1.473   4.502  15.759  0.0899 -0.3476 -0.1336
19441TIP3    H179738   1.506   4.413  15.763 -0.7592 -0.6868 -0.4003
19441TIP3    H279739   1.410   4.507  15.831 -0.5265 -0.2507 -0.6706
19442TIP3   OH279740   6.367   5.530   1.982 -0.0299 -0.0916  0.4474
19442TIP3    H179741   6.308   5.561   2.051 -0.4549 -0.3982  0.2290
19442TIP3    H279742   6.313   5.532   1.902  0.5676  0.6134  0.0539
19443TIP3   OH279743   2.236   3.896   6.613  0.2982 -0.4398 -0.8247
19443TIP3    H179744   2.165   3.882   6.676  1.9032 -0.4257  1.0803
19443TIP3    H279745   2.302   3.831   6.637  1.5561  0.5326 -1.5563
19444TIP3   OH279746   6.154   3.895   2.026  0.2269  0.5459 -0.2068
19444TIP3    H179747   6.086   3.887   2.092 -0.7825 -0.8683 -1.3628
19444TIP3    H279748   6.126   3.970   1.972 -0.6862 -0.2990 -0.9400
19445TIP3   OH279749   4.343   1.317   1.519 -0.1554 -0.2968  0.0906
19445TIP3    H179750   4.390   1.280   1.444  1.9631 -0.1029  1.2536
19445TIP3    H279751   4.286   1.246   1.548 -0.0551 -0.8100 -0.9008
19446TIP3   OH279752   1.705   3.670   2.735  0.1853 -0.1309  0.3660
19446TIP3    H179753   1.630   3.625   2.775 -0.4313  1.8388  1.5671
19446TIP3    H279754   1.665   3.732   2.674  0.9708 -0.5902 -0.6302
19447TIP3   OH279755   2.257   2.730  11.365 -0.5462 -0.1294 -0.2790
19447TIP3    H179756   2.183   2.788  11.383  0.1215  0.4270  0.7884
19447TIP3    H279757   2.291   2.759  11.280 -1.8230 -0.7211 -1.0350
19448TIP3   OH279758   6.281   3.111   3.641 -0.4335 -0.3381 -0.1740
19448TIP3    H179759   6.336   3.104   3.719 -0.0211 -0.1759 -0.4487
19448TIP3    H279760   6.207   3.053   3.659  0.8258 -2.1902 -0.6483
19449TIP3   OH279761   3.445   6.556  15.419  0.0006 -0.0658 -0.0995
19449TIP3    H179762   3.483   6.468  15.425 -0.4253 -0.3297 -1.0005
19449TIP3    H279763   3.497   6.609  15.479  1.2780 -0.5890 -0.6952
19450TIP3   OH279764   0.451   3.195   0.694 -0.6099 -0.9039  0.2652
19450TIP3    H179765   0.536   3.228   0.721 -0.1973 -2.4833  1.0010
19450TIP3    H279766   0.453   3.197   0.599 -0.9772  1.9901  0.2246
19451TIP3   OH279767   3.396   2.261  16.430  0.0780 -0.1142 -1.0694
19451TIP3    H179768   3.336   2.314  16.481  0.7269  1.5132 -1.9261
19451TIP3    H279769   3.429   2.195  16.491 -1.6087 -0.2625 -0.2808
19452TIP3   OH279770   5.383   0.503  15.409  0.0350  0.1994 -0.0025
19452TIP3    H179771   5.356   0.570  15.473  0.9061 -0.2626  0.8841
19452TIP3    H279772   5.317   0.507  15.341 -0.5795  1.1583  0.6187
19453TIP3   OH279773   1.817   3.893  12.101 -0.2711 -0.1135  0.9299
19453TIP3    H179774   1.746   3.830  12.093 -1.0079  0.8505 -0.5968
19453TIP3    H279775   1.806   3.930  12.189 -3.2023  1.7103 -0.0569
19454TIP3   OH279776   2.162   6.494   3.020 -0.2832  0.0451  0.4280
19454TIP3    H179777   2.203   6.409   3.003 -1.1831 -0.4037  0.4256
19454TIP3    H279778   2.137   6.491   3.113 -1.4642 -0.2172  0.1202
19455TIP3   OH279779   0.271   2.585   4.563 -0.1656  0.2688  0.3293
19455TIP3    H179780   0.301   2.511   4.616  3.7679  0.0956 -1.7172
19455TIP3    H279781   0.318   2.660   4.598 -0.8833  0.9919 -0.2227
19456TIP3   OH279782   0.920   1.758  11.958 -0.1684 -0.0826 -0.6052
19456TIP3    H179783   0.977   1.808  12.017 -0.3146 -1.7966  1.1185
19456TIP3    H279784   0.972   1.748  11.878  1.0807  0.2475  0.1292
19457TIP3   OH279785   0.618   5.862  15.514  0.1681 -0.1758  0.2043
19457TIP3    H179786   0.683   5.931  15.528  1.4328 -1.4005  0.6647
19457TIP3    H279787   0.590   5.873  15.423 -1.7836  2.6264  0.9973
19458TIP3   OH279788   2.192   3.356   2.686 -0.6540 -0.2365  0.8761
19458TIP3    H179789   2.249   3.426   2.653 -0.5299  0.5223  2.5819
19458TIP3    H279790   2.177   3.299   2.610  1.9972 -0.2088  0.2146
19459TIP3   OH279791   3.400   3.835   6.099 -0.3632 -0.2303  0.0456
19459TIP3    H179792   3.414   3.927   6.123 -0.9999  0.6118 -2.4425
19459TIP3    H279793   3.358   3.796   6.176  0.9051  1.2598  1.5622
19460TIP3   OH279794   1.968   6.736  10.537 -0.5395  0.4837 -0.6696
19460TIP3    H179795   2.002   6.825  10.548 -0.3434  0.3181  0.1162
19460TIP3    H279796   2.042   6.687  10.501  0.4237 -0.0865  1.8737
19461TIP3   OH279797   4.354   3.331   4.562 -0.2260  0.3380 -0.3048
19461TIP3    H179798   4.285   3.277   4.602 -1.9592  0.8278 -2.4449
19461TIP3    H279799   4.418   3.344   4.632 -2.6904  0.5344  2.0757
19462TIP3   OH279800   5.636   5.112  16.726  0.0351  0.2595  0.0530
19462TIP3    H179801   5.714   5.058  16.710 -0.9846 -1.6285  0.9951
19462TIP3    H279802   5.632   5.172  16.652  3.1549  1.4248  0.6855
19463TIP3   OH279803   0.013   0.614   3.650  0.8954 -0.2069 -0.1489
19463TIP3    H179804  -0.034   0.559   3.588  0.6636  0.3747 -0.5018
19463TIP3    H279805  -0.049   0.630   3.720 -0.1446  2.0439 -1.4596
19464TIP3   OH279806   4.562   6.546  11.945 -0.0762  0.3869  0.6265
19464TIP3    H179807   4.579   6.640  11.940 -1.3599  0.6201  0.3144
19464TIP3    H279808   4.647   6.506  11.928  0.1883  1.4799 -0.9497
19465TIP3   OH279809   3.681   1.150   4.152  0.5055  0.6255  0.0219
19465TIP3    H179810   3.700   1.241   4.173  0.5935  0.8581 -0.9837
19465TIP3    H279811   3.667   1.150   4.057 -0.5122 -0.2292  0.1420
19466TIP3   OH279812   6.543   2.147  14.251 -0.0540 -0.1327 -0.6846
19466TIP3    H179813   6.535   2.211  14.322 -0.8972  0.3633 -1.2050
19466TIP3    H279814   6.553   2.063  14.295 -0.5870  0.1675  0.0305
19467TIP3   OH279815   1.852   3.423  11.677  0.5447  0.0751  0.1843
19467TIP3    H179816   1.830   3.473  11.599 -1.4947 -0.0262  0.6327
19467TIP3    H279817   1.879   3.489  11.742  1.4249  0.2284 -0.3215
19468TIP3   OH279818   3.552   4.673  15.508 -0.3392 -0.6261 -0.5193
19468TIP3    H179819   3.569   4.666  15.602  1.1109 -0.9165 -0.7797
19468TIP3    H279820   3.580   4.762  15.485 -0.9157 -0.4699 -0.6463
19469TIP3   OH279821   6.095   4.601  13.334  0.5617  0.4273 -0.0075
19469TIP3    H179822   6.086   4.553  13.251 -0.1706  0.1503  0.2194
19469TIP3    H279823   6.174   4.653  13.323  0.9931 -0.3069 -0.5292
19470TIP3   OH279824   4.418   4.192  14.835 -0.1998 -0.0870 -0.2011
19470TIP3    H179825   4.409   4.184  14.930 -2.5821 -2.2954 -0.4736
19470TIP3    H279826   4.512   4.190  14.819  0.2655  0.3918  2.1039
19471TIP3   OH279827   5.929   4.138   0.227 -0.1937 -0.3875  0.8998
19471TIP3    H179828   6.019   4.163   0.206 -0.6801  2.1644  1.4822
19471TIP3    H279829   5.920   4.048   0.195  1.6123  0.3596 -2.0619
19472TIP3   OH279830   5.778   0.231  16.880  0.2160 -0.1293 -0.2480
19472TIP3    H179831   5.764   0.257  16.971  1.6598  0.3630 -0.1418
19472TIP3    H279832   5.822   0.146  16.887  2.1558  0.8067 -0.3939
19473TIP3   OH279833   5.340   1.912  11.027 -0.8214  0.1205  0.1443
19473TIP3    H179834   5.291   1.990  11.000 -0.9471  1.4018  3.5188
19473TIP3    H279835   5.278   1.840  11.016 -1.0548  0.5955 -2.0864
19474TIP3   OH279836   2.793   4.905  13.387  0.2667 -0.1377 -0.7997
19474TIP3    H179837   2.739   4.846  13.334 -0.2558 -0.0203 -0.4044
19474TIP3    H279838   2.730   4.958  13.435  0.7071 -0.9562  0.7526
19475TIP3   OH279839   0.040   3.279   2.517 -0.2833  0.1963  0.6011
19475TIP3    H179840   0.029   3.373   2.503  0.8095 -0.0588 -2.8345
19475TIP3    H279841  -0.004   3.238   2.443  0.4182 -1.9594  1.2965
19476TIP3   OH279842   4.973   2.487  16.526  0.3947 -0.2819 -0.1152
19476TIP3    H179843   5.031   2.500  16.601  1.4925  0.6570 -1.0589
19476TIP3    H279844   5.028   2.508  16.450 -0.8150 -0.6967 -1.1506
19477TIP3   OH279845   4.260   4.414  11.649  0.1306  0.0388 -0.1668
19477TIP3    H179846   4.315   4.430  11.726  1.2088 -0.5712 -0.7829
19477TIP3    H279847   4.172   4.440  11.677  0.6464  0.6561  0.9818
19478TIP3   OH279848   2.318   6.294  12.799 -0.3140  0.2745  0.3379
19478TIP3    H179849   2.242   6.283  12.856  0.5586  1.1377  1.7331
19478TIP3    H279850   2.351   6.205  12.785 -1.1788 -0.0401  0.2750
19479TIP3   OH279851   0.162   0.976  12.124 -0.0222 -0.3939 -0.8437
19479TIP3    H179852   0.150   0.884  12.100  2.2653 -0.9996  0.0261
19479TIP3    H279853   0.236   1.005  12.071  0.3898  0.4112  0.1384
19480TIP3   OH279854   2.592   4.145  12.992  0.6563 -0.9658 -0.2619
19480TIP3    H179855   2.665   4.206  13.005  1.7097 -2.0477 -0.8419
19480TIP3    H279856   2.514   4.196  13.011  1.4074  0.9093 -1.8497
19481TIP3   OH279857   2.686   4.570   1.140  0.0140 -0.3566 -0.3842
19481TIP3    H179858   2.660   4.569   1.048  0.3568  1.9647 -0.5530
19481TIP3    H279859   2.696   4.662   1.162  2.1709 -0.9151  1.3753
19482TIP3   OH279860   4.521   5.855  16.240 -0.2243 -0.0034 -0.1342
19482TIP3    H179861   4.557   5.806  16.314  2.1799  0.2157 -1.0733
19482TIP3    H279862   4.581   5.837  16.168 -0.6477  2.3872 -1.1684
19483TIP3   OH279863   0.535   4.681   3.168 -0.2041 -0.2183  0.2353
19483TIP3    H179864   0.573   4.625   3.236 -0.5141 -1.9210 -0.9279
19483TIP3    H279865   0.468   4.626   3.127  1.7477 -0.2969 -3.1832
19484TIP3   OH279866   1.188   0.757  11.356  0.3167  0.7074  0.1276
19484TIP3    H179867   1.254   0.746  11.288 -0.4416 -1.2193 -0.3787
19484TIP3    H279868   1.223   0.711  11.432 -0.0555  0.4416  0.1407
19485TIP3   OH279869   0.832   0.067   2.926 -0.1348 -0.0893  0.0073
19485TIP3    H179870   0.750   0.104   2.958 -1.1582 -1.6749 -0.6644
19485TIP3    H279871   0.894   0.079   2.999 -0.2163  3.2431 -0.3173
19486TIP3   OH279872   3.358   4.282   1.555 -0.2331  0.5495 -0.2203
19486TIP3    H179873   3.274   4.321   1.532 -0.2883  0.5962  0.0508
19486TIP3    H279874   3.412   4.292   1.477 -0.7107 -0.1413 -0.6464
19487TIP3   OH279875   6.733   0.671  12.624  0.4042 -0.5460 -0.2785
19487TIP3    H179876   6.709   0.599  12.566 -1.9922 -0.5739  0.6068
19487TIP3    H279877   6.808   0.638  12.674  1.0432 -1.3723 -1.7256
19488TIP3   OH279878   5.592   6.506   5.506  0.1262 -0.4147 -0.2051
19488TIP3    H179879   5.547   6.578   5.550 -0.7030 -0.6884 -0.5944
19488TIP3    H279880   5.528   6.435   5.504  1.1375 -1.3873  0.7232
19489TIP3   OH279881   2.962   3.887   3.633 -0.6401 -0.2857 -0.1615
19489TIP3    H179882   2.873   3.882   3.599 -1.0263 -0.1300  0.8108
19489TIP3    H279883   2.962   3.829   3.709 -0.1503  0.3771  0.3542
19490TIP3   OH279884   5.419   1.330   0.921  0.0369 -0.2005  0.7981
19490TIP3    H179885   5.489   1.353   0.982 -0.0151  0.4545  0.6156
19490TIP3    H279886   5.342   1.316   0.976 -0.8791  3.5229  0.7691
19491TIP3   OH279887   3.849   6.607   4.009 -0.3899  0.4384  0.6894
19491TIP3    H179888   3.886   6.680   4.059  0.6803 -0.8799  1.9124
19491TIP3    H279889   3.764   6.591   4.051  0.5496 -0.7325  2.2566
19492TIP3   OH279890   0.040   4.455  17.135  0.2194  0.1521  0.1619
19492TIP3    H179891  -0.044   4.441  17.179 -0.1943  0.9898 -0.3274
19492TIP3    H279892   0.031   4.541  17.095  1.4450  0.3956  0.3792
19493TIP3   OH279893   6.002   2.127  16.168 -0.4119 -0.4255  0.3641
19493TIP3    H179894   5.963   2.097  16.250 -1.5486  0.4178  0.1633
19493TIP3    H279895   6.029   2.047  16.123 -1.5004 -1.0147  0.7286
19494TIP3   OH279896   1.787   1.541  12.351  0.6031 -0.2373 -0.5968
19494TIP3    H179897   1.824   1.497  12.428  0.0629 -0.3711 -0.4124
19494TIP3    H279898   1.863   1.583  12.309  0.8306  0.2679  0.2893
19495TIP3   OH279899   4.133   4.011   4.930  0.0462 -0.1406 -0.2975
19495TIP3    H179900   4.111   3.944   4.995  0.3749  1.7488  1.8868
19495TIP3    H279901   4.228   4.005   4.921  0.0473 -0.1247 -0.2946
19496TIP3   OH279902   1.629   1.126   5.365 -0.2530  0.0530 -0.4479
19496TIP3    H179903   1.595   1.040   5.337  0.1035 -0.3252  0.2666
19496TIP3    H279904   1.724   1.119   5.355 -0.1410  0.0032  0.5917
19497TIP3   OH279905   0.663   1.104   0.340 -0.0174 -0.2028 -0.2687
19497TIP3    H179906   0.715   1.024   0.345  0.5301  0.1701  0.1548
19497TIP3    H279907   0.646   1.116   0.247  0.1342 -0.6668 -0.3562
19498TIP3   OH279908   0.835   1.998   0.744 -0.0065  0.3751  0.1624
19498TIP3    H179909   0.765   1.934   0.758 -0.8998  1.3665  0.3355
19498TIP3    H279910   0.911   1.961   0.789 -0.8824  0.0873  1.4514
19499TIP3   OH279911   4.632   2.832  16.080  0.0888  0.1500  0.0474
19499TIP3    H179912   4.720   2.864  16.102  1.6521 -1.3983 -3.2377
19499TIP3    H279913   4.615   2.866  15.992 -1.4832 -1.6904 -0.4245
19500TIP3   OH279914   1.332   0.153  13.784  0.1499  0.1111  0.1495
19500TIP3    H179915   1.362   0.211  13.714 -0.9350  0.9175  0.3248
19500TIP3    H279916   1.278   0.209  13.840 -0.5403 -0.9644  0.5871
19501TIP3   OH279917   4.707   1.266   1.499 -0.0571 -0.0808 -0.4053
19501TIP3    H179918   4.642   1.319   1.453  0.7393  0.3968 -0.9988
19501TIP3    H279919   4.697   1.179   1.462  2.2739  0.7833 -3.4354
19502TIP3   OH279920   6.758   6.559  13.514  0.1586  0.0669  0.6295
19502TIP3    H179921   6.715   6.609  13.584  0.4350  0.9173  0.2053
19502TIP3    H279922   6.772   6.622  13.444  0.4455 -0.6323  0.0387
19503TIP3   OH279923   2.302   2.544  14.721  0.2992  0.1492  0.7104
19503TIP3    H179924   2.240   2.526  14.791 -0.8214  0.4295 -0.1682
19503TIP3    H279925   2.369   2.598  14.761 -1.2259  1.7886  1.2027
19504TIP3   OH279926   0.775   0.735   1.974  0.3076  0.2154 -0.8928
19504TIP3    H179927   0.755   0.782   2.055  0.6603  0.6862 -1.0736
19504TIP3    H279928   0.713   0.663   1.972  0.3828  0.1202 -0.1304
19505TIP3   OH279929   2.350   4.089   4.861  0.6647  0.2417  0.0259
19505TIP3    H179930   2.267   4.043   4.872 -1.2996  3.5849  0.5984
19505TIP3    H279931   2.384   4.058   4.777 -1.3018 -1.0336 -0.3598
19506TIP3   OH279932   0.027   0.464  13.652 -0.3784 -0.3559  0.1693
19506TIP3    H179933   0.108   0.439  13.606 -0.7588  0.8476 -1.2333
19506TIP3    H279934   0.025   0.559  13.646 -2.8262 -0.4386 -1.5164
19507TIP3   OH279935   1.774   4.390  12.831  0.2964 -0.2199  0.3057
19507TIP3    H179936   1.758   4.409  12.924  1.1044  0.4629  0.3211
19507TIP3    H279937   1.712   4.446  12.784 -1.0362 -1.5194  0.4236
19508TIP3   OH279938   4.105   0.862  13.936  0.1865 -0.1105 -0.1672
19508TIP3    H179939   4.167   0.810  13.989  1.1249 -0.8120 -1.8610
19508TIP3    H279940   4.027   0.868  13.991  1.2101 -0.5177  1.4270
19509TIP3   OH279941   3.663   6.192  12.395 -0.3867  0.2984  0.0147
19509TIP3    H179942   3.708   6.182  12.479  0.4576 -0.1813 -0.4799
19509TIP3    H279943   3.668   6.285  12.375  2.8728 -0.0348 -1.3329
19510TIP3   OH279944   4.532   2.649   2.461  0.8059  0.1228  0.4580
19510TIP3    H179945   4.467   2.582   2.439 -0.2742  1.2206  0.2299
19510TIP3    H279946   4.606   2.599   2.496 -0.1120 -1.1653  0.6458
19511TIP3   OH279947   6.042   5.137  14.785 -0.4517 -0.3214 -0.1996
19511TIP3    H179948   5.954   5.105  14.803 -0.1685 -0.5673  0.8265
19511TIP3    H279949   6.042   5.155  14.691 -1.4606 -0.7147 -0.2926
19512TIP3   OH279950   2.986   0.806  12.450 -0.3406  0.3791 -0.3589
19512TIP3    H179951   2.970   0.867  12.523  0.6465 -0.0679  0.2582
19512TIP3    H279952   2.911   0.747  12.452 -0.2611  0.2919  0.3848
19513TIP3   OH279953   2.393   4.027   3.326  0.2089 -0.4095 -0.4426
19513TIP3    H179954   2.300   4.021   3.301  0.1035 -0.5898 -0.0131
19513TIP3    H279955   2.427   3.938   3.312  0.1779 -0.4823 -0.0600
19514TIP3   OH279956   2.111   4.277   3.168  0.2355 -0.6035 -1.0129
19514TIP3    H179957   2.168   4.352   3.183 -0.4472 -0.4423  1.0271
19514TIP3    H279958   2.163   4.219   3.111  2.1322 -0.1096  0.1310
19515TIP3   OH279959   1.640   6.302   4.769  0.0797 -0.1024 -0.1334
19515TIP3    H179960   1.630   6.317   4.675 -1.3266  1.4475  0.2410
19515TIP3    H279961   1.735   6.293   4.781  0.2113 -1.5000 -1.8388
19516TIP3   OH279962   5.920   2.627  14.841  0.2279  0.0774 -0.2082
19516TIP3    H179963   5.871   2.587  14.913 -1.8594  1.5581 -0.7262
19516TIP3    H279964   5.929   2.557  14.777 -3.6033  0.3205 -1.2335
19517TIP3   OH279965   2.966   1.050  14.722 -0.1286 -0.0124  0.0442
19517TIP3    H179966   3.018   1.124  14.690  0.4986  0.1000  1.2777
19517TIP3    H279967   3.008   0.973  14.684  0.9204  0.0842  0.9592
19518TIP3   OH279968   0.747   6.312   1.947  0.0833 -0.4521  0.3544
19518TIP3    H179969   0.719   6.281   2.033 -1.4442  0.0223  0.0505
19518TIP3    H279970   0.715   6.246   1.886  0.0315 -0.1293  0.0281
19519TIP3   OH279971   2.636   1.270  12.063 -0.2201 -0.1615 -0.0551
19519TIP3    H179972   2.549   1.257  12.101 -0.3123 -0.5537 -0.3978
19519TIP3    H279973   2.621   1.267  11.968  0.2293 -0.6144 -0.1105
19520TIP3   OH279974   3.868   6.711   6.208  0.3449 -0.0421 -0.0474
19520TIP3    H179975   3.831   6.704   6.296 -0.5071  1.2118 -0.2838
19520TIP3    H279976   3.924   6.789   6.212 -0.8615  0.9131 -0.9928
19521TIP3   OH279977   4.956   5.568   2.354 -0.8773  0.9098  0.2244
19521TIP3    H179978   4.985   5.619   2.430 -1.1510 -0.7734  1.5057
19521TIP3    H279979   5.027   5.505   2.339 -0.3672  1.8474 -1.5821
19522TIP3   OH279980   6.602   0.720  13.164  0.3372  0.2661  0.4580
19522TIP3    H179981   6.634   0.762  13.244 -1.0884 -0.2986  1.3590
19522TIP3    H279982   6.680   0.685  13.122  0.8730 -2.0808  3.1389
19523TIP3   OH279983   3.413   4.141   6.648 -0.2175  0.2761  0.5544
19523TIP3    H179984   3.350   4.152   6.720  1.0411  0.3395  1.6852
19523TIP3    H279985   3.472   4.216   6.656  0.7127 -0.4131  0.2679
19524TIP3   OH279986   4.626   1.697  14.104  0.4459 -0.0022 -0.0165
19524TIP3    H179987   4.670   1.622  14.144 -0.8401 -2.2168 -2.4066
19524TIP3    H279988   4.588   1.745  14.177  1.7342 -1.3865  1.6387
19525TIP3   OH279989   4.398   4.262  11.383 -0.3325 -0.3897  0.3376
19525TIP3    H179990   4.465   4.208  11.425  0.5332  0.6422  0.3059
19525TIP3    H279991   4.407   4.348  11.424 -2.1219 -0.4031  0.8459
19526TIP3   OH279992   0.119   2.726   6.196 -0.4259  0.3022  0.0917
19526TIP3    H179993   0.145   2.635   6.183  0.6227  0.9438 -3.6239
19526TIP3    H279994   0.183   2.761   6.258 -0.8749 -1.4221  1.6088
19527TIP3   OH279995   0.984   6.002   0.134 -0.1541 -0.4993 -0.3277
19527TIP3    H179996   0.950   5.937   0.073  2.8645 -0.0261 -2.7534
19527TIP3    H279997   1.050   5.954   0.185 -1.0774 -0.3341  1.0840
19528TIP3   OH279998   4.259   4.742  14.378  0.3469  0.3786  0.0227
19528TIP3    H179999   4.313   4.820  14.374  2.6289 -1.1470 -2.4294
19528TIP3    H280000   4.284   4.699  14.460 -0.4624  1.8243  1.0625
19529TIP3   OH280001   6.721   2.841   4.650 -0.0456 -0.4543 -0.0388
19529TIP3    H180002   6.747   2.934   4.654  2.2471 -1.0708  1.1181
19529TIP3    H280003   6.797   2.798   4.611 -0.5863 -2.0183  0.5913
19530TIP3   OH280004   5.323   5.738   0.191  0.7476 -0.2104 -0.1297
19530TIP3    H180005   5.388   5.680   0.152 -0.3467 -1.9752  0.5402
19530TIP3    H280006   5.251   5.680   0.215 -1.9536  1.8579 -2.5178
19531TIP3   OH280007   2.274   0.100   6.609 -0.0790  0.1699  1.0400
19531TIP3    H180008   2.195   0.135   6.570 -0.4678  0.4167  2.0205
19531TIP3    H280009   2.321   0.177   6.643  0.3645 -0.0152  0.8586
19532TIP3   OH280010   4.013   4.833  16.070  0.7423  0.4040 -0.0256
19532TIP3    H180011   3.923   4.819  16.041  0.1319  2.2279  0.8328
19532TIP3    H280012   4.035   4.753  16.118 -0.4202 -0.0696 -0.2463
19533TIP3   OH280013   0.919   2.210   5.063  0.2322  0.0898 -0.1029
19533TIP3    H180014   0.995   2.230   5.008 -0.9952  0.9996 -1.5454
19533TIP3    H280015   0.957   2.173   5.143  2.2146  0.8802 -0.6060
19534TIP3   OH280016   5.292   5.256   1.925 -0.0964 -0.1785 -1.0211
19534TIP3    H180017   5.220   5.318   1.927 -0.6405 -0.8050 -0.9108
19534TIP3    H280018   5.250   5.170   1.929  0.6957 -0.5353  0.0977
19535TIP3   OH280019   1.843   4.527   3.637  0.0357 -0.1682 -0.1377
19535TIP3    H180020   1.858   4.468   3.711 -2.5519 -0.1639  0.4802
19535TIP3    H280021   1.761   4.495   3.598 -0.1372  1.5618 -1.2614
19536TIP3   OH280022   0.315   2.803   1.947  0.1368 -0.2392  0.2201
19536TIP3    H180023   0.373   2.764   1.882 -1.1442  1.4155 -2.0892
19536TIP3    H280024   0.373   2.831   2.018  1.4882 -2.8407  0.2551
19537TIP3   OH280025   5.697   2.586  15.353  0.1402 -0.2435  0.0179
19537TIP3    H180026   5.738   2.535  15.422  1.2061 -0.1242 -0.5144
19537TIP3    H280027   5.607   2.552  15.349  0.1977 -0.5681  1.1254
19538TIP3   OH280028   0.024   1.956  10.922  1.0217 -0.0410 -0.0324
19538TIP3    H180029  -0.064   1.918  10.919  1.5152 -1.1983 -0.3555
19538TIP3    H280030   0.033   1.988  11.012  1.5195 -3.0331  1.0733
19539TIP3   OH280031   0.244   2.015  16.874 -0.3649  0.1081  0.0437
19539TIP3    H180032   0.166   1.991  16.824 -0.0648 -1.5211  0.2980
19539TIP3    H280033   0.315   1.964  16.834  0.0813 -0.4021  1.4387
19540TIP3   OH280034   1.472   5.624   4.642 -0.0365  0.3801 -0.0674
19540TIP3    H180035   1.490   5.659   4.729 -1.7132  1.3756 -0.0955
19540TIP3    H280036   1.392   5.573   4.652  1.1359 -1.6808 -0.5218
19541TIP3   OH280037   0.456   2.379  13.870  0.1907  0.0770  0.3067
19541TIP3    H180038   0.468   2.290  13.903 -0.3764  0.0850  0.5425
19541TIP3    H280039   0.503   2.435  13.932 -1.5375  0.1749  1.6083
19542TIP3   OH280040   1.666   0.390   1.956  0.0480 -0.5759  0.2545
19542TIP3    H180041   1.746   0.419   2.000 -0.6166  1.8074  0.0472
19542TIP3    H280042   1.661   0.296   1.974  1.9099 -0.4313  1.8282
19543TIP3   OH280043   2.616   5.630   0.480  0.3476  0.7144 -0.6000
19543TIP3    H180044   2.604   5.546   0.435  2.6085  0.6839 -1.3069
19543TIP3    H280045   2.593   5.695   0.414 -1.3446  0.6806 -0.0725
19544TIP3   OH280046   3.004   4.248   5.840 -0.1109  0.4002  0.0164
19544TIP3    H180047   2.952   4.238   5.760  1.7607 -0.8098 -1.1323
19544TIP3    H280048   2.999   4.162   5.882 -0.9259  0.9776  1.1465
19545TIP3   OH280049   5.409   4.570  11.966 -0.0583 -0.0469 -0.3028
19545TIP3    H180050   5.330   4.600  12.011  0.7697  3.2320 -0.7453
19545TIP3    H280051   5.469   4.546  12.037 -1.4249 -2.8561  0.0321
19546TIP3   OH280052   5.101   5.634  13.293  0.3653 -0.8467  0.4163
19546TIP3    H180053   5.075   5.594  13.210  2.2202 -0.9327 -0.1660
19546TIP3    H280054   5.049   5.714  13.299 -0.5850 -1.3938 -0.2850
19547TIP3   OH280055   3.458   5.018   1.647  0.1143 -0.3856  0.5890
19547TIP3    H180056   3.377   5.056   1.613 -0.1306 -0.4609  1.0929
19547TIP3    H280057   3.526   5.078   1.616 -0.0338 -0.7726 -0.5523
19548TIP3   OH280058   2.394   2.986   0.919  0.7671 -0.0995 -0.0121
19548TIP3    H180059   2.303   3.012   0.906  1.3208  1.0224 -1.8704
19548TIP3    H280060   2.434   3.060   0.965  1.1324  0.1377 -0.7059
19549TIP3   OH280061   6.472   4.156   5.806  0.6652  0.1164 -0.3085
19549TIP3    H180062   6.408   4.204   5.860  1.6094  2.1742 -0.9233
19549TIP3    H280063   6.420   4.087   5.764 -0.4788 -0.3141  1.6664
19550TIP3   OH280064   4.109   5.590  11.931 -0.2427 -0.6091  0.2831
19550TIP3    H180065   4.083   5.640  11.854 -0.3243  0.0078  0.6997
19550TIP3    H280066   4.189   5.544  11.905  2.0510  2.6283  0.9601
19551TIP3   OH280067   5.395   1.264   4.676 -0.1287  0.2451  0.2499
19551TIP3    H180068   5.428   1.206   4.745 -0.7237  0.3622  0.6483
19551TIP3    H280069   5.471   1.283   4.621 -0.2950 -2.5183 -1.0736
19552TIP3   OH280070   2.208   6.260   5.868 -0.5312 -0.3632 -0.1579
19552TIP3    H180071   2.282   6.313   5.837  0.4665 -1.1152  0.8777
19552TIP3    H280072   2.135   6.287   5.811 -0.0179  1.9215  0.1417
19553TIP3   OH280073   4.629   0.791  16.846  0.7363  0.1217  0.6933
19553TIP3    H180074   4.659   0.882  16.843  1.0967  0.0408  1.6645
19553TIP3    H280075   4.642   0.759  16.756 -2.3845  1.9437 -0.5789
19554TIP3   OH280076   0.812   2.474   2.763  0.2671  0.7723 -0.4445
19554TIP3    H180077   0.846   2.530   2.832  2.2223  0.0302 -0.7402
19554TIP3    H280078   0.870   2.397   2.763 -2.5285 -1.5042  0.2298
19555TIP3   OH280079   6.141   2.004  12.338 -0.1019 -0.5036  0.2126
19555TIP3    H180080   6.151   2.001  12.243 -1.7818  2.7057 -0.1966
19555TIP3    H280081   6.051   1.978  12.354  0.2159 -1.1809  0.9638
19556TIP3   OH280082   4.490   2.718   0.634  0.1765  0.4561 -0.6790
19556TIP3    H180083   4.472   2.709   0.727 -2.2216  0.1795 -1.1226
19556TIP3    H280084   4.571   2.668   0.621  0.0629 -0.2654  1.0824
19557TIP3   OH280085   2.667   4.792  15.752 -0.4605  0.2108  0.1340
19557TIP3    H180086   2.692   4.745  15.831  0.5870  1.0319  0.3117
19557TIP3    H280087   2.674   4.727  15.682  2.1213  0.3263  0.1893
19558TIP3   OH280088   3.606   6.444   1.578 -0.0708  0.4888  0.2162
19558TIP3    H180089   3.532   6.383   1.582 -0.9265  1.4910 -0.1057
19558TIP3    H280090   3.683   6.387   1.576 -0.7466 -0.5718  1.8812
19559TIP3   OH280091   0.384   4.533  13.310  0.0879  0.0615 -0.0710
19559TIP3    H180092   0.445   4.459  13.312 -0.1812 -0.1843 -0.8496
19559TIP3    H280093   0.354   4.541  13.401  1.5640  0.4358  0.4204
19560TIP3   OH280094   3.545   5.661  13.403  0.0001  0.0364  0.3796
19560TIP3    H180095   3.476   5.669  13.469  0.8872 -0.1529  1.3592
19560TIP3    H280096   3.560   5.751  13.374 -0.9829  0.0268 -0.2050
19561TIP3   OH280097   3.347   2.919  14.676 -0.2911 -0.5221 -0.7311
19561TIP3    H180098   3.430   2.904  14.631 -0.2401 -0.0890 -0.7842
19561TIP3    H280099   3.311   2.997  14.634  1.0220  1.5428  1.7140
19562TIP3   OH280100   0.961   3.808  12.392  0.2599 -0.5010  0.4198
19562TIP3    H180101   0.919   3.722  12.401 -0.2117 -0.2119  1.0550
19562TIP3    H280102   1.055   3.790  12.403  0.2049 -0.9866  0.1339
19563TIP3   OH280103   4.807   4.456   3.443  0.8923  0.1803 -0.9852
19563TIP3    H180104   4.867   4.529   3.456  1.4267 -0.2252 -1.0980
19563TIP3    H280105   4.844   4.385   3.495  0.5025 -0.0752 -1.0491
19564TIP3   OH280106   4.380   0.065  15.270 -0.3773  0.2805  0.2921
19564TIP3    H180107   4.294   0.067  15.228 -0.8789 -0.9277  1.2043
19564TIP3    H280108   4.435   0.119  15.214 -1.5507  0.4789 -0.7151
19565TIP3   OH280109   3.359   0.533   2.323  0.7817 -0.5363 -0.1787
19565TIP3    H180110   3.351   0.438   2.330 -2.1264 -0.2461  1.6665
19565TIP3    H280111   3.335   0.552   2.232 -0.6330 -1.4454 -0.0278
19566TIP3   OH280112   4.855   6.676  16.513 -0.5457  0.3040  0.2760
19566TIP3    H180113   4.910   6.655  16.589 -2.6010 -0.9589  1.4990
19566TIP3    H280114   4.802   6.750  16.543 -1.0282  0.1073 -0.0856
19567TIP3   OH280115   1.582   0.333  16.965  0.0436 -0.4875  0.4464
19567TIP3    H180116   1.676   0.352  16.965  0.1681 -1.0201  1.2758
19567TIP3    H280117   1.543   0.407  17.010  0.1050 -0.4037  0.3611
19568TIP3   OH280118   3.141   2.142   1.770  0.2883 -0.1886  0.1427
19568TIP3    H180119   3.107   2.205   1.833 -0.9154 -0.4391 -0.2338
19568TIP3    H280120   3.230   2.123   1.801 -0.0919  0.0767  1.4671
19569TIP3   OH280121   0.592   3.526  11.845 -0.3838  0.8517 -0.5822
19569TIP3    H180122   0.536   3.520  11.767  0.0561 -0.3099 -0.8394
19569TIP3    H280123   0.531   3.527  11.919 -0.7599  0.0107 -0.8717
19570TIP3   OH280124   0.542   0.422   1.808 -0.2415 -0.2187  0.2488
19570TIP3    H180125   0.497   0.338   1.819 -0.5029 -0.2613 -0.9953
19570TIP3    H280126   0.534   0.465   1.893 -1.6571 -0.7056  0.3848
19571TIP3   OH280127   2.816   4.817  17.262  0.3639  0.0768 -0.1206
19571TIP3    H180128   2.732   4.772  17.249  0.2839  0.0636  0.4053
19571TIP3    H280129   2.874   4.748  17.296  0.2790  0.3368  0.5599
19572TIP3   OH280130   1.564   2.341  14.825  0.0691  0.6881 -0.9754
19572TIP3    H180131   1.640   2.399  14.835  0.6048 -0.2925  1.0201
19572TIP3    H280132   1.602   2.253  14.821 -1.0031 -0.0113  2.1393
19573TIP3   OH280133   6.117   4.657   6.606  0.6096  0.4475 -0.0128
19573TIP3    H180134   6.060   4.637   6.531  0.5746  1.3725 -0.2429
19573TIP3    H280135   6.186   4.713   6.569  0.2276  1.4498  0.7770
19574TIP3   OH280136   5.484   5.490   4.348 -0.1752  0.5645 -0.0203
19574TIP3    H180137   5.556   5.552   4.354 -0.9173  1.3177  2.9017
19574TIP3    H280138   5.506   5.421   4.411 -0.1788 -1.3035 -1.9735
19575TIP3   OH280139   0.168   5.491   4.444  0.4384  1.0776 -0.5665
19575TIP3    H180140   0.092   5.549   4.447 -0.2089  0.2583  3.0547
19575TIP3    H280141   0.132   5.403   4.443  1.2386  0.6707  1.3965
19576TIP3   OH280142   2.486   1.833   4.640 -0.4635  0.2519  0.0026
19576TIP3    H180143   2.507   1.761   4.699  0.9828  1.0263  0.4929
19576TIP3    H280144   2.406   1.805   4.595 -0.7142 -1.0373  1.1756
19577TIP3   OH280145   0.581   1.161  14.474 -0.2243 -0.3290  0.0926
19577TIP3    H180146   0.526   1.083  14.467 -2.1257  0.7044  2.2214
19577TIP3    H280147   0.539   1.225  14.416 -0.7655  0.1633  1.0001
19578TIP3   OH280148   4.856   6.574   5.801  0.2182  0.1147 -0.3098
19578TIP3    H180149   4.865   6.626   5.881  1.4834  0.9200 -0.9570
19578TIP3    H280150   4.940   6.582   5.756 -0.5069 -0.1999 -1.8034
19579TIP3   OH280151   3.710   4.628   3.605  0.0605 -0.6194  0.0187
19579TIP3    H180152   3.678   4.669   3.686  0.4047  1.9249 -1.0334
19579TIP3    H280153   3.653   4.552   3.593 -0.2216 -0.8782  2.4298
19580TIP3   OH280154   3.867   0.751  12.940  0.5286 -0.2261 -0.2052
19580TIP3    H180155   3.862   0.697  12.861 -0.8357 -1.6726  0.8080
19580TIP3    H280156   3.776   0.779  12.954  0.8156  0.2735  0.6726
19581TIP3   OH280157   3.079   4.888   2.437 -0.3736 -0.0856 -0.1114
19581TIP3    H180158   3.140   4.933   2.495  0.0060  0.5071 -0.9497
19581TIP3    H280159   3.039   4.958   2.386 -0.5127 -0.6178 -0.7427
19582TIP3   OH280160   6.158   0.393  16.148  0.3006 -0.3002 -0.0022
19582TIP3    H180161   6.166   0.488  16.154 -1.2356 -0.1824  0.6510
19582TIP3    H280162   6.229   0.359  16.202 -1.6004  0.5705  3.3358
19583TIP3   OH280163   4.795   6.300  12.533 -0.7237  0.1617  0.3538
19583TIP3    H180164   4.783   6.395  12.539  2.6246  0.9707 -2.2690
19583TIP3    H280165   4.742   6.274  12.458 -2.1761 -0.2386  1.4817
19584TIP3   OH280166   2.492   2.102  16.643  1.1317 -0.3347 -0.1956
19584TIP3    H180167   2.454   2.017  16.665  0.2701  0.5516  2.0556
19584TIP3    H280168   2.583   2.082  16.621  0.7793 -1.9033 -0.3522
19585TIP3   OH280169   6.416   3.494  11.379 -0.8488 -0.2053  0.1533
19585TIP3    H180170   6.462   3.433  11.321  3.3469  2.5635  0.1438
19585TIP3    H280171   6.341   3.524  11.327  0.7232 -0.4744 -2.4623
19586TIP3   OH280172   1.742   4.537   0.646 -0.2350 -0.3693 -0.0526
19586TIP3    H180173   1.662   4.573   0.608 -1.0319 -0.8516  1.1229
19586TIP3    H280174   1.725   4.535   0.740  1.3363 -0.0667  0.2677
19587TIP3   OH280175   0.692   2.895   1.922 -0.2649  0.0235  0.0230
19587TIP3    H180176   0.639   2.860   1.994  1.1022 -0.4648  0.8502
19587TIP3    H280177   0.777   2.852   1.933 -0.2983 -0.8799 -2.5317
19588TIP3   OH280178   0.542   2.492  15.409  0.6852 -0.3846 -0.5118
19588TIP3    H180179   0.524   2.401  15.436  0.3868  0.2484  1.6254
19588TIP3    H280180   0.457   2.527  15.384  0.6170 -0.3634 -0.2489
19589TIP3   OH280181   3.761   5.975  17.319 -0.6140  0.1034  0.0629
19589TIP3    H180182   3.855   5.991  17.318 -0.4559 -0.8133 -0.8144
19589TIP3    H280183   3.726   6.041  17.379  0.2025  2.6697 -2.0936
19590TIP3   OH280184   4.141   2.490  15.741  0.1978  0.2493 -0.3987
19590TIP3    H180185   4.176   2.500  15.830 -2.5522 -0.9639  0.9470
19590TIP3    H280186   4.168   2.402  15.715  0.0392  0.1657 -0.2826
19591TIP3   OH280187   0.337   5.376   0.935 -0.0974 -0.1106 -0.4299
19591TIP3    H180188   0.411   5.434   0.917  0.5214 -0.9394 -0.6266
19591TIP3    H280189   0.371   5.311   0.997 -1.2605  0.7145  1.1474
19592TIP3   OH280190   5.907   1.365   4.833 -0.4171  0.6826  0.1831
19592TIP3    H180191   5.898   1.271   4.848 -0.4190  0.7572  0.6815
19592TIP3    H280192   5.874   1.379   4.745 -0.0103  0.1531 -0.0551
19593TIP3   OH280193   4.660   0.296  15.372 -0.0783  0.2839  0.1783
19593TIP3    H180194   4.588   0.332  15.425  1.4920  2.1035  1.1866
19593TIP3    H280195   4.676   0.362  15.305  0.4810 -0.2357 -0.2105
19594TIP3   OH280196   2.587   3.807  13.379 -0.0308  0.1387  0.2823
19594TIP3    H180197   2.581   3.867  13.454 -0.5775  2.2810 -1.3892
19594TIP3    H280198   2.515   3.832  13.322  0.0042 -1.8531 -0.7406
19595TIP3   OH280199   2.244   6.517  15.898 -0.1367  0.3506  0.4212
19595TIP3    H180200   2.213   6.599  15.935 -0.1359  0.9009 -0.7588
19595TIP3    H280201   2.317   6.542  15.840  0.6111 -0.6045  0.9234
19596TIP3   OH280202   5.453   6.244  15.752  0.4775  0.1908  0.0955
19596TIP3    H180203   5.445   6.326  15.704  0.9164  1.5660  2.2364
19596TIP3    H280204   5.383   6.248  15.818  2.3518  0.3200  2.1817
19597TIP3   OH280205   1.700   2.512   0.043 -0.2027  0.6951 -0.1152
19597TIP3    H180206   1.711   2.418   0.029  1.6458  0.9343 -0.4638
19597TIP3    H280207   1.622   2.535  -0.008 -2.8965 -1.2137  2.7369
19598TIP3   OH280208   0.014   0.856  11.498  0.2720  0.6199  0.4150
19598TIP3    H180209  -0.050   0.790  11.523 -1.3254  2.0664  0.3322
19598TIP3    H280210   0.030   0.906  11.578  2.5098 -0.6207  0.8300
19599TIP3   OH280211   5.318   1.454   3.404 -0.1287 -0.0454 -0.3257
19599TIP3    H180212   5.326   1.489   3.493  0.7865  1.5664 -0.9947
19599TIP3    H280213   5.368   1.516   3.350  0.3188 -1.6391 -1.7995
19600TIP3   OH280214   3.131   6.671   5.626  0.1472 -0.0892 -0.0157
19600TIP3    H180215   3.089   6.756   5.640  0.6924  0.2776 -0.5793
19600TIP3    H280216   3.142   6.664   5.531  2.6858  0.5094  0.1409
19601TIP3   OH280217   1.223   4.672  13.531 -0.1466  0.0121  0.1379
19601TIP3    H180218   1.279   4.660  13.608 -0.9705 -0.1194  0.7323
19601TIP3    H280219   1.145   4.716  13.565  0.1833  1.4874 -0.9347
19602TIP3   OH280220   6.714   1.722  13.794 -0.1223 -0.3655 -0.1158
19602TIP3    H180221   6.722   1.638  13.839  1.3097  1.1112  2.5978
19602TIP3    H280222   6.621   1.744  13.799 -0.3869 -1.4327 -0.2062
19603TIP3   OH280223   4.321   6.456  14.166 -0.0780  0.0232  0.3324
19603TIP3    H180224   4.330   6.472  14.260 -0.8667  3.1769 -0.0143
19603TIP3    H280225   4.241   6.503  14.141  0.4135 -0.2366 -2.0227
19604TIP3   OH280226   3.866   3.238  13.741  0.1953 -0.3374  0.4151
19604TIP3    H180227   3.822   3.271  13.663 -0.2201 -0.2984  0.6613
19604TIP3    H280228   3.820   3.279  13.814  1.2321  0.4208  0.6642
19605TIP3   OH280229   5.027   5.454   4.432  0.0897  0.3340  0.5467
19605TIP3    H180230   5.052   5.465   4.524 -0.5033  1.2076  0.6098
19605TIP3    H280231   5.106   5.423   4.389  0.8661  1.5833  1.0261
19606TIP3   OH280232   2.462   1.052  14.015  0.6781  0.8086 -0.0533
19606TIP3    H180233   2.532   0.990  13.995 -0.2538 -0.5692  0.7831
19606TIP3    H280234   2.442   1.037  14.107 -1.3662  0.4660 -0.5040
19607TIP3   OH280235   1.777   1.059  14.089  0.2907  0.5256  0.2640
19607TIP3    H180236   1.714   1.131  14.094 -1.1795 -0.6927 -0.1095
19607TIP3    H280237   1.784   1.041  13.995  0.0258 -0.3305  0.4015
19608TIP3   OH280238   6.471   3.851   1.729 -0.3302  0.1634  0.1810
19608TIP3    H180239   6.404   3.919   1.727  0.4880  1.1236  2.5538
19608TIP3    H280240   6.450   3.799   1.806  1.3725  0.1880  0.6937
19609TIP3   OH280241   2.619   0.649   0.270  0.2883  0.1109  0.5761
19609TIP3    H180242   2.695   0.592   0.254  0.9176  0.9017  0.6525
19609TIP3    H280243   2.607   0.646   0.365  0.1426 -0.1121  0.5513
19610TIP3   OH280244   3.766   5.639   0.219  0.5370 -0.0149  0.0674
19610TIP3    H180245   3.785   5.615   0.129 -0.3485  1.0020 -0.4269
19610TIP3    H280246   3.675   5.612   0.232  1.4387 -2.6776  1.6020
19611TIP3   OH280247   4.727   4.167   5.060  0.1921  0.0025  0.1730
19611TIP3    H180248   4.797   4.216   5.015  1.2502 -0.8659  0.8188
19611TIP3    H280249   4.771   4.089   5.093 -1.2997 -1.0008 -0.1461
19612TIP3   OH280250   3.254   0.092  17.058  0.4266  0.5695 -0.2492
19612TIP3    H180251   3.193   0.127  17.122 -2.0082 -2.7119 -0.5160
19612TIP3    H280252   3.211   0.105  16.974  1.8373  1.4468 -0.8653
19613TIP3   OH280253   4.797   5.874   2.925  0.7636  0.2868  0.5210
19613TIP3    H180254   4.869   5.829   2.969  3.5689  1.8113 -2.0966
19613TIP3    H280255   4.833   5.960   2.903 -1.4567  0.7278 -1.9148
19614TIP3   OH280256   3.497   4.779  16.454  0.4141 -0.4860  0.2596
19614TIP3    H180257   3.426   4.727  16.417 -1.0719  2.0011 -0.6874
19614TIP3    H280258   3.475   4.788  16.546 -1.2516  1.1554 -0.2160
19615TIP3   OH280259   0.060   4.875   1.439 -0.0791  0.0916  0.4269
19615TIP3    H180260   0.008   4.799   1.412 -0.8594  0.8703 -0.3098
19615TIP3    H280261   0.005   4.920   1.502  0.4893 -0.0733  1.0553
19616TIP3   OH280262   0.366   4.175   0.442 -0.4746 -0.0067 -0.1511
19616TIP3    H180263   0.451   4.135   0.426 -0.3520 -1.1669  2.7965
19616TIP3    H280264   0.303   4.103   0.433 -1.2252  0.8512 -2.3691
19617TIP3   OH280265   6.734   2.642   2.773 -0.0049  1.0080  0.3849
19617TIP3    H180266   6.783   2.586   2.713  0.3089 -1.0397  2.4145
19617TIP3    H280267   6.789   2.720   2.784  0.6259  0.7521 -0.7921
19618TIP3   OH280268   6.159   2.340  16.232 -0.6092  0.0613 -0.4826
19618TIP3    H180269   6.089   2.392  16.193  0.4328 -0.4746 -3.2543
19618TIP3    H280270   6.126   2.251  16.232 -0.3956 -0.0181 -0.6361
19619TIP3   OH280271   2.014   2.643  11.574 -0.1798  0.0778  0.6113
19619TIP3    H180272   2.099   2.684  11.588  0.2683 -0.8951  0.8011
19619TIP3    H280273   1.960   2.673  11.648  0.3320 -0.1714  1.0919
19620TIP3   OH280274   2.782   1.178  16.839 -0.4058  0.5178  0.1818
19620TIP3    H180275   2.722   1.123  16.789 -0.4614  1.1166 -0.4304
19620TIP3    H280276   2.781   1.262  16.794  1.4847  0.3269 -0.3316
19621TIP3   OH280277   3.663   1.474   1.719  0.4599  1.0475 -0.3336
19621TIP3    H180278   3.633   1.390   1.755  1.2350  0.6084 -0.6877
19621TIP3    H280279   3.595   1.536   1.745 -1.1202 -0.0267 -1.6423
19622TIP3   OH280280   3.621   5.073   5.911 -0.4894  0.3579 -0.1545
19622TIP3    H180281   3.703   5.063   5.862 -0.5880  3.1803 -1.1440
19622TIP3    H280282   3.553   5.073   5.843 -0.9640  1.1295  0.3055
19623TIP3   OH280283   2.498   2.499   4.168  0.4047 -0.1469 -0.3963
19623TIP3    H180284   2.551   2.433   4.123  0.3527  0.5446 -1.5217
19623TIP3    H280285   2.532   2.582   4.136 -0.1286  0.3526  0.3115
19624TIP3   OH280286   3.978   1.055  16.502  0.4509 -0.2519 -0.4533
19624TIP3    H180287   3.905   1.084  16.557  0.4679 -0.5720 -0.2593
19624TIP3    H280288   4.000   1.131  16.449 -0.2444 -0.2448 -0.7496
19625TIP3   OH280289   4.123   6.278   2.328  0.2624 -0.1992  0.3321
19625TIP3    H180290   4.161   6.206   2.279 -1.2882  0.1436 -1.5220
19625TIP3    H280291   4.046   6.241   2.371  0.2113  0.0670  0.4763
19626TIP3   OH280292   3.066   0.674   0.634 -0.3561 -0.5339  0.0697
19626TIP3    H180293   3.045   0.707   0.547 -0.9939 -0.4141  0.2676
19626TIP3    H280294   2.984   0.637   0.666 -0.1657 -0.4193  0.6921
19627TIP3   OH280295   2.158   1.508  14.338 -0.5387 -0.6387 -0.3115
19627TIP3    H180296   2.161   1.417  14.310 -1.2876 -0.4778 -0.9853
19627TIP3    H280297   2.242   1.524  14.379  0.3786 -1.0881 -1.9253
19628TIP3   OH280298   1.427   1.402  12.146 -0.0932  0.0386 -0.4567
19628TIP3    H180299   1.503   1.430  12.096  0.7297  0.8411  1.1515
19628TIP3    H280300   1.397   1.322  12.103  0.7616  0.5011 -1.9856
19629TIP3   OH280301   1.730   5.360  14.417 -0.0259  0.4770 -0.1043
19629TIP3    H180302   1.638   5.337  14.408  0.3054 -0.1206 -3.1203
19629TIP3    H280303   1.742   5.378  14.510 -2.6643 -1.5658  0.7346
19630TIP3   OH280304   3.902   5.413   5.915  0.3669  0.2407 -0.1594
19630TIP3    H180305   3.924   5.376   6.000 -0.4539  0.2151  0.0490
19630TIP3    H280306   3.954   5.494   5.910  0.4709  0.2068  0.3325
19631TIP3   OH280307   1.848   0.606   3.181 -0.1113 -0.1325 -0.9323
19631TIP3    H180308   1.753   0.599   3.172 -0.1830 -0.8442  0.0993
19631TIP3    H280309   1.877   0.515   3.192  0.7712  0.0215 -1.8862
19632TIP3   OH280310   0.802   3.264  11.023 -0.0664  0.0254  0.4157
19632TIP3    H180311   0.832   3.303  10.941 -1.0290  1.6060  0.7657
19632TIP3    H280312   0.878   3.267  11.081  0.3873 -0.3458 -0.1537
19633TIP3   OH280313   3.038   6.399   2.675  0.4726 -0.6028 -0.0372
19633TIP3    H180314   3.015   6.410   2.767  0.3138 -0.1917 -0.1265
19633TIP3    H280315   3.050   6.488   2.642 -1.7370 -0.6066 -0.9877
19634TIP3   OH280316   3.026   1.247  16.025 -0.2353 -0.0019  0.4452
19634TIP3    H180317   3.099   1.304  16.000  0.5666 -1.2999 -0.3015
19634TIP3    H280318   2.954   1.273  15.966  0.0555  0.3703  0.2502
19635TIP3   OH280319   3.218   0.276  14.974 -0.2956  0.4376 -0.0874
19635TIP3    H180320   3.212   0.191  14.931 -0.4423 -0.2883  1.3265
19635TIP3    H280321   3.143   0.278  15.034  1.3695  0.2509  2.1338
19636TIP3   OH280322   4.035   1.357  14.270 -0.4677 -0.3770 -0.3099
19636TIP3    H180323   3.962   1.386  14.324  0.2845  0.9819  0.0385
19636TIP3    H280324   4.066   1.277  14.311 -2.2871 -1.4776 -0.9708
19637TIP3   OH280325   2.732   5.299  16.001 -0.4926  0.4672  0.3522
19637TIP3    H180326   2.731   5.333  15.912 -0.5570 -0.2911  0.0553
19637TIP3    H280327   2.680   5.362  16.051 -0.5681  0.8280 -0.1681
19638TIP3   OH280328   3.996   0.591  12.023  0.7536  0.3619  0.5174
19638TIP3    H180329   3.985   0.684  12.002  0.4893 -0.1558 -1.9338
19638TIP3    H280330   4.084   0.585  12.060  0.0258  1.8442  2.6788
19639TIP3   OH280331   1.633   3.676  12.059  0.1477  0.5313 -0.6399
19639TIP3    H180332   1.642   3.581  12.063 -0.3111  0.5271  0.2589
19639TIP3    H280333   1.635   3.696  11.965 -3.4307 -0.7170 -1.1011
19640TIP3   OH280334   3.784   5.093   1.074  0.3350 -0.5659  0.0863
19640TIP3    H180335   3.857   5.046   1.113  0.0231 -0.1053  1.2652
19640TIP3    H280336   3.822   5.140   1.000  1.1052 -0.8180  0.3127
19641TIP3   OH280337   2.608   5.851   2.688  0.0659 -0.3522 -0.0999
19641TIP3    H180338   2.684   5.843   2.630 -0.9957 -1.1250 -1.4423
19641TIP3    H280339   2.555   5.921   2.650 -1.3219 -1.7857 -0.9327
19642TIP3   OH280340   0.454   1.553  12.208 -0.4688  0.5009  0.2967
19642TIP3    H180341   0.537   1.577  12.166 -0.1820  1.0810  1.1500
19642TIP3    H280342   0.462   1.460  12.226 -0.1358  0.4840  0.0764
19643TIP3   OH280343   3.551   1.192   3.286  0.6989 -0.0997 -0.1538
19643TIP3    H180344   3.515   1.113   3.326  1.4752  0.4404  1.7109
19643TIP3    H280345   3.605   1.161   3.214  2.7534 -1.4841  1.8731
19644TIP3   OH280346   6.069   4.984  11.738  0.1143  0.3341  0.1791
19644TIP3    H180347   6.032   4.984  11.826 -0.6651  0.5204 -0.1340
19644TIP3    H280348   6.134   4.914  11.738 -2.5155 -2.3246 -0.1731
19645TIP3   OH280349   5.853   1.849  13.535  0.1941  0.4857 -0.0879
19645TIP3    H180350   5.882   1.920  13.592  1.3608 -0.7755  0.9505
19645TIP3    H280351   5.854   1.771  13.590 -0.9106 -0.3814 -1.2314
19646TIP3   OH280352   4.456   0.897   1.529 -0.8184 -0.0987 -0.3862
19646TIP3    H180353   4.421   0.930   1.612  1.3447 -0.8299  0.8926
19646TIP3    H280354   4.413   0.951   1.462 -1.2149  1.8337  1.3110
19647TIP3   OH280355   1.125   2.892  13.720  0.0932 -0.0322 -0.2302
19647TIP3    H180356   1.051   2.836  13.743  2.3506 -2.5714  1.6089
19647TIP3    H280357   1.146   2.938  13.801  1.4657 -0.6374 -0.2062
19648TIP3   OH280358   5.807   3.970  14.654 -0.1459 -0.2693 -0.4856
19648TIP3    H180359   5.860   4.045  14.629  0.3156 -0.8688 -1.3472
19648TIP3    H280360   5.771   3.994  14.740  1.8024  0.0023  0.3029
19649TIP3   OH280361   5.999   1.644   4.901 -0.1956 -0.1951 -0.4240
19649TIP3    H180362   5.987   1.556   4.867  1.4733  0.2147 -2.3035
19649TIP3    H280363   6.001   1.700   4.823  3.2979  0.8787  0.2488
19650TIP3   OH280364   4.308   1.971  11.931  0.7229  0.0756  0.3159
19650TIP3    H180365   4.377   1.928  11.980 -0.5657  0.8519  2.9927
19650TIP3    H280366   4.247   1.902  11.908  0.4315 -0.0669  1.4692
19651TIP3   OH280367   1.911   1.139  16.687 -0.6361  0.3513 -0.4957
19651TIP3    H180368   1.862   1.191  16.751 -2.6599 -3.0008  0.9592
19651TIP3    H280369   1.994   1.118  16.731 -1.6627 -1.2171  0.7991
19652TIP3   OH280370   0.253   5.186   0.716 -0.4981 -0.3214  0.4199
19652TIP3    H180371   0.330   5.178   0.660 -1.4154 -0.2299 -0.8966
19652TIP3    H280372   0.282   5.242   0.788  0.1107  1.4593 -1.1385
19653TIP3   OH280373   2.154   3.341   6.116 -0.0400 -0.6187  0.3111
19653TIP3    H180374   2.144   3.303   6.029 -1.9336 -0.0791  0.2628
19653TIP3    H280375   2.073   3.389   6.131  1.6997  2.3566  0.9101
19654TIP3   OH280376   5.042   5.687  15.631 -0.5167 -0.8986 -0.7756
19654TIP3    H180377   5.032   5.772  15.674  3.0793 -0.0752 -1.2379
19654TIP3    H280378   4.964   5.638  15.657 -2.0256  1.9989  0.7128
19655TIP3   OH280379   6.011   1.061  12.630 -0.0111 -0.4207  0.3230
19655TIP3    H180380   5.968   0.977  12.611 -0.4009 -0.1218 -0.1536
19655TIP3    H280381   6.016   1.065  12.725 -0.5425 -0.7174  0.3679
19656TIP3   OH280382   0.978   4.038   0.765  0.6156  0.7575 -0.2519
19656TIP3    H180383   0.925   3.979   0.712 -1.7446  0.7587  1.8832
19656TIP3    H280384   0.987   3.992   0.849  0.9173  2.2979  0.5981
19657TIP3   OH280385   1.129   4.370   5.871 -0.1347 -0.2058 -0.7817
19657TIP3    H180386   1.169   4.286   5.847  0.9266 -0.3564  1.2858
19657TIP3    H280387   1.035   4.351   5.874 -0.0283 -0.9507 -1.6843
19658TIP3   OH280388   2.933   1.731   1.272  0.3216  0.6697 -0.4973
19658TIP3    H180389   2.866   1.732   1.203 -1.4256 -1.2107  1.0557
19658TIP3    H280390   3.004   1.678   1.235 -1.1139 -1.3806 -0.4846
19659TIP3   OH280391   5.393   3.074   5.481 -0.5602 -0.2009  0.3702
19659TIP3    H180392   5.376   3.167   5.490 -0.3754 -0.2280  1.0750
19659TIP3    H280393   5.311   3.032   5.508 -1.7012 -0.2267 -2.6981
19660TIP3   OH280394   6.247   2.940   5.168  0.0642 -0.2029 -0.0196
19660TIP3    H180395   6.186   2.991   5.222 -0.5664 -1.4843  0.5176
19660TIP3    H280396   6.233   2.972   5.079 -0.1152  0.7372  0.3257
19661TIP3   OH280397   1.023   0.060   1.833 -0.0985 -0.1070  0.4304
19661TIP3    H180398   0.965  -0.004   1.874 -0.5574 -0.3785 -0.6059
19661TIP3    H280399   0.997   0.061   1.741  1.1346  0.2109  0.0570
19662TIP3   OH280400   1.266   4.953   3.643  0.5850  0.4985 -0.1273
19662TIP3    H180401   1.331   4.938   3.711  0.0050  1.6979  0.7228
19662TIP3    H280402   1.263   5.048   3.633  0.1521  0.3760 -1.3400
19663TIP3   OH280403   4.768   0.806  11.000  0.2224  0.0787  0.3812
19663TIP3    H180404   4.759   0.883  10.943 -2.0567 -0.2564  0.2201
19663TIP3    H280405   4.790   0.842  11.086  3.8962  0.5894 -0.5878
19664TIP3   OH280406   4.043   5.493  12.181  0.5258 -0.4652  0.3602
19664TIP3    H180407   3.991   5.574  12.183 -1.0313 -1.4028 -0.4677
19664TIP3    H280408   4.096   5.501  12.102 -0.1937 -0.5968 -0.1362
19665TIP3   OH280409   2.507   2.281   2.852 -0.2598 -0.3630  0.5948
19665TIP3    H180410   2.434   2.255   2.797 -0.5020 -1.5631  1.4469
19665TIP3    H280411   2.480   2.259   2.941  0.5616  0.5111  1.0861
19666TIP3   OH280412   6.535   5.239  16.775  0.0104  0.0487 -0.1483
19666TIP3    H180413   6.576   5.251  16.861 -0.4430  0.0064  0.0782
19666TIP3    H280414   6.560   5.150  16.749 -1.0337 -0.4792  0.5946
19667TIP3   OH280415   5.286   2.983  11.945  0.2221  0.3150 -0.0755
19667TIP3    H180416   5.201   3.013  11.912  1.3052  1.5468 -1.9067
19667TIP3    H280417   5.349   3.044  11.907  1.9253 -0.3817  1.4953
19668TIP3   OH280418   0.468   2.469  12.312 -0.3804 -0.2641 -0.1309
19668TIP3    H180419   0.405   2.455  12.383  1.1299 -1.1466  1.0973
19668TIP3    H280420   0.518   2.387  12.308  1.6886  0.9349 -0.0198
19669TIP3   OH280421   1.518   6.584  14.094  0.0831 -0.2730  0.4044
19669TIP3    H180422   1.454   6.596  14.164 -0.3597 -1.5305  0.2480
19669TIP3    H280423   1.477   6.626  14.018 -0.9926 -1.7640  0.0962
19670TIP3   OH280424   4.980   6.396  15.937 -0.4092 -0.1063 -0.4511
19670TIP3    H180425   4.932   6.340  15.999  3.2836 -0.6950  2.2411
19670TIP3    H280426   4.974   6.350  15.853 -1.2835 -2.1634  0.6538
19671TIP3   OH280427   6.736   1.646   2.536  0.4088  0.3194 -0.8319
19671TIP3    H180428   6.667   1.693   2.490  0.2506  0.4592 -0.4519
19671TIP3    H280429   6.745   1.564   2.487 -2.1963 -1.1215  0.8879
19672TIP3   OH280430   1.283   5.208   3.793  0.1724  0.2131  0.1891
19672TIP3    H180431   1.284   5.293   3.837  2.4551  0.0105  0.6594
19672TIP3    H280432   1.347   5.155   3.841 -0.0842 -1.2780 -1.0252
19673TIP3   OH280433   6.105   5.842   0.167 -0.0734  0.4686  0.0635
19673TIP3    H180434   6.110   5.758   0.213 -2.4233  0.8387  1.1861
19673TIP3    H280435   6.122   5.907   0.235 -1.5357  0.9528  0.0154
19674TIP3   OH280436   5.514   5.937   4.821  0.3665 -0.4300  0.7345
19674TIP3    H180437   5.571   5.928   4.745  2.6409 -0.2068  2.3178
19674TIP3    H280438   5.519   5.853   4.866 -0.0554 -0.2030  1.2206
19675TIP3   OH280439   5.893   1.572  17.216 -0.1217  0.0620 -0.5886
19675TIP3    H180440   5.853   1.584  17.130  1.3767  1.3113 -1.1549
19675TIP3    H280441   5.943   1.652  17.231 -1.3676  0.4649  2.0528
19676TIP3   OH280442   5.058   3.700  15.014 -0.2247 -0.3623 -0.5691
19676TIP3    H180443   5.133   3.640  15.020 -0.5494 -0.9479 -1.9405
19676TIP3    H280444   5.024   3.706  15.104  1.2251 -0.3831  0.0055
19677TIP3   OH280445   1.964   6.537  14.016  0.1590 -0.4806 -0.4348
19677TIP3    H180446   1.981   6.516  14.108  2.7514  1.4653 -0.3492
19677TIP3    H280447   1.893   6.601  14.018  1.4864  1.0332  0.4494
19678TIP3   OH280448   5.348   4.415  14.224  0.2482  0.7139  0.0866
19678TIP3    H180449   5.386   4.466  14.152 -0.5448  1.6507  0.3082
19678TIP3    H280450   5.347   4.476  14.298 -0.1392  0.1687  0.5357
19679TIP3   OH280451   4.501   6.210  11.457 -0.3484 -0.6888  0.1398
19679TIP3    H180452   4.586   6.250  11.439  0.0668 -1.9886 -0.9230
19679TIP3    H280453   4.438   6.272  11.419  0.2972 -1.1073 -1.7173
19680TIP3   OH280454   4.756   6.198   1.834 -0.0710 -0.2349  0.6837
19680TIP3    H180455   4.811   6.125   1.861  0.3372  0.1753  0.9964
19680TIP3    H280456   4.817   6.272   1.827  0.0463 -0.4816 -2.2887
19681TIP3   OH280457   3.393   4.018  11.886 -0.2231 -0.1316 -0.1979
19681TIP3    H180458   3.337   3.943  11.867 -3.8279  2.2432  0.0261
19681TIP3    H280459   3.385   4.030  11.981 -0.7662  1.2289 -0.3964
19682TIP3   OH280460   4.460   1.826  10.530  0.1533 -0.0276 -0.0077
19682TIP3    H180461   4.472   1.732  10.546  2.4962  0.2229  0.0826
19682TIP3    H280462   4.431   1.861  10.614  0.9709 -0.4451  0.4646
19683TIP3   OH280463   5.644   3.163  14.402  0.1680 -0.3763  0.3729
19683TIP3    H180464   5.685   3.099  14.343  0.2182 -0.6709  0.7242
19683TIP3    H280465   5.677   3.141  14.489 -2.0192 -1.7051  0.9433
19684TIP3   OH280466   5.733   0.179  12.118  0.1597 -0.4225  0.4113
19684TIP3    H180467   5.816   0.131  12.112  1.3577  1.7064 -1.6760
19684TIP3    H280468   5.674   0.133  12.059  0.4020 -0.8995  0.5325
19685TIP3   OH280469   4.033   2.423  16.303 -0.0101  0.3575  0.0813
19685TIP3    H180470   3.955   2.430  16.248  0.7025 -3.1425 -1.6914
19685TIP3    H280471   4.104   2.460  16.249  0.1399  0.0246  0.0441
19686TIP3   OH280472   4.199   3.157   5.284  0.4117  0.3683 -0.2893
19686TIP3    H180473   4.289   3.188   5.296  0.5335  1.2588 -2.8662
19686TIP3    H280474   4.205   3.062   5.292  1.3312  0.4894  0.7908
19687TIP3   OH280475   2.785   5.864   1.271  0.0981  0.3084 -0.3516
19687TIP3    H180476   2.827   5.786   1.234  1.7734  1.5769 -1.2591
19687TIP3    H280477   2.720   5.890   1.207  0.1074  0.1144 -0.4386
19688TIP3   OH280478   3.713   4.464   4.750  0.1245 -0.4258  0.9996
19688TIP3    H180479   3.721   4.422   4.664 -0.3604  2.0729 -0.3695
19688TIP3    H280480   3.791   4.519   4.757 -1.2085  1.6113  0.7773
19689TIP3   OH280481   0.186   3.342   6.167 -0.0901 -0.8600  0.4811
19689TIP3    H180482   0.225   3.273   6.220  1.7294 -0.5247 -0.3454
19689TIP3    H280483   0.108   3.302   6.129 -0.3256 -1.7143  1.8100
19690TIP3   OH280484   2.947   2.852  14.758  0.0702 -0.1203 -0.0181
19690TIP3    H180485   2.952   2.867  14.664 -1.4977  0.0196 -0.1195
19690TIP3    H280486   3.030   2.812  14.781  0.3052 -0.5775 -1.5471
19691TIP3   OH280487   4.193   0.654   3.285  0.6108  0.2464 -0.7219
19691TIP3    H180488   4.112   0.614   3.317  0.9186  1.3878  1.6824
19691TIP3    H280489   4.166   0.739   3.251  0.9618  1.4383  1.8138
19692TIP3   OH280490   5.007   5.170  15.292 -0.1571 -0.4573 -0.1168
19692TIP3    H180491   4.924   5.213  15.273 -0.1793  0.0463  1.0497
19692TIP3    H280492   4.999   5.083  15.252 -0.3197  0.4049 -2.0461
19693TIP3   OH280493   3.281   4.247   3.988 -0.2255  0.6295  0.2140
19693TIP3    H180494   3.284   4.155   4.015  0.7902  0.1361 -1.3890
19693TIP3    H280495   3.190   4.262   3.963 -0.1598 -0.3503 -0.7123
19694TIP3   OH280496   0.598   3.563   2.322 -0.3415  0.1313 -0.4894
19694TIP3    H180497   0.664   3.494   2.330 -0.7704 -0.1528  0.9090
19694TIP3    H280498   0.590   3.599   2.410 -1.7502  0.4472 -0.7176
19695TIP3   OH280499   3.386   6.263  12.492 -0.4073 -0.7764 -0.3211
19695TIP3    H180500   3.461   6.273  12.551 -1.5950  1.6689  0.9313
19695TIP3    H280501   3.359   6.172  12.501  1.3906 -1.2822  0.4201
19696TIP3   OH280502   2.457   0.788  16.925  0.1616  0.4819  0.5943
19696TIP3    H180503   2.440   0.703  16.884  3.4843 -0.2255  0.4105
19696TIP3    H280504   2.380   0.804  16.980 -1.4261 -1.6851 -0.8390
19697TIP3   OH280505   2.216   4.145  16.969 -0.2808  0.1379 -0.6401
19697TIP3    H180506   2.255   4.061  16.944  1.0083  0.2652  0.7485
19697TIP3    H280507   2.273   4.177  17.039 -1.2480  1.7715 -0.5568
19698TIP3   OH280508   4.036   6.492  15.686  0.3875  0.4040 -0.0796
19698TIP3    H180509   4.018   6.544  15.764 -2.6835 -0.1851 -0.2430
19698TIP3    H280510   3.958   6.504  15.631  0.8232 -2.0656 -1.4075
19699TIP3   OH280511   5.538   5.085   1.947  0.5842  0.1807  0.2948
19699TIP3    H180512   5.461   5.141   1.958  0.8924  0.4740  1.0315
19699TIP3    H280513   5.605   5.124   2.004  0.7510 -1.0279  0.9574
19700TIP3   OH280514   1.671   2.017   1.442 -0.0431 -0.1097 -0.3039
19700TIP3    H180515   1.580   2.043   1.428  0.5807  4.5035  2.0961
19700TIP3    H280516   1.683   2.021   1.536  2.3290 -2.1885 -0.4223
19701TIP3   OH280517   4.752   1.214   5.618 -0.2531 -0.0668  0.7090
19701TIP3    H180518   4.721   1.304   5.613  0.8577  0.2961 -0.2103
19701TIP3    H280519   4.784   1.204   5.707 -1.7239 -0.0402  1.2713
19702TIP3   OH280520   1.285   4.564   4.334  0.1790 -0.2784 -0.2051
19702TIP3    H180521   1.223   4.604   4.273 -1.4826 -0.1382  1.4851
19702TIP3    H280522   1.313   4.636   4.391  2.4686 -0.1980 -1.3298
19703TIP3   OH280523   6.276   2.033  12.582  0.0547  0.6474  0.6936
19703TIP3    H180524   6.361   1.992  12.570  0.4888  1.0971  1.9835
19703TIP3    H280525   6.241   2.044  12.494  0.9220 -0.3837  0.1995
19704TIP3   OH280526   0.107   1.277  16.896  0.0526  0.1893 -0.1771
19704TIP3    H180527   0.081   1.212  16.961  0.7655  0.9827  0.9380
19704TIP3    H280528   0.199   1.256  16.877  0.0796  0.4428 -0.3358
19705TIP3   OH280529   5.967   5.412   4.970  0.3409 -0.2031  0.1402
19705TIP3    H180530   5.924   5.481   4.920  0.8833 -1.2289 -1.8454
19705TIP3    H280531   6.042   5.386   4.917  1.2100 -1.0969  1.7042
19706TIP3   OH280532   0.830   0.468  13.374  0.0809 -0.3109 -0.0342
19706TIP3    H180533   0.823   0.487  13.280  1.6740 -1.2651 -0.3685
19706TIP3    H280534   0.816   0.374  13.380  0.5039 -0.3332  0.6270
19707TIP3   OH280535   0.406   6.655   1.258  0.0611  0.0836 -0.2373
19707TIP3    H180536   0.492   6.695   1.272  0.1085 -0.3575  0.8163
19707TIP3    H280537   0.393   6.659   1.163  0.2175  2.2589 -0.2286
19708TIP3   OH280538   3.088   0.810  14.999 -0.0100  0.7359 -0.1261
19708TIP3    H180539   3.106   0.895  15.039  0.3461  0.2860  0.6948
19708TIP3    H280540   3.041   0.761  15.067  2.7808 -0.9492  0.7594
19709TIP3   OH280541   3.269   4.146   5.077 -0.9378  0.7351  0.5634
19709TIP3    H180542   3.238   4.102   4.998 -0.0826  1.0336  0.0538
19709TIP3    H280543   3.259   4.080   5.146 -1.4481  0.3863  0.1660
19710TIP3   OH280544   1.442   5.424   2.755 -0.0417  0.3236 -0.2136
19710TIP3    H180545   1.488   5.465   2.682  0.1025  1.7617  0.6497
19710TIP3    H280546   1.358   5.469   2.758 -0.3332 -0.2309  0.0625
19711TIP3   OH280547   2.667   3.411   4.692 -0.0791  0.0532  0.3360
19711TIP3    H180548   2.704   3.496   4.668  1.2402 -0.0301  1.8843
19711TIP3    H280549   2.580   3.431   4.727 -0.4687  0.5496 -0.8473
19712TIP3   OH280550   0.683   5.152   2.234 -0.0069 -0.0806  0.6347
19712TIP3    H180551   0.684   5.092   2.308 -1.0346 -0.8618  0.0389
19712TIP3    H280552   0.601   5.133   2.188  0.4648  0.5799 -0.5336
19713TIP3   OH280553   2.610   6.751  10.911  0.0790 -0.1627 -0.3818
19713TIP3    H180554   2.691   6.703  10.928 -0.6592 -1.1350  0.5305
19713TIP3    H280555   2.615   6.776  10.819  1.2183 -0.5791 -0.4449
19714TIP3   OH280556   0.672   0.057   4.766  0.5640  0.2162  0.3795
19714TIP3    H180557   0.581   0.065   4.795  0.8637 -0.8335  1.6717
19714TIP3    H280558   0.665   0.020   4.677 -0.2934  1.4794 -0.1099
19715TIP3   OH280559   5.691   4.568  11.150 -0.8048 -0.2639  0.3289
19715TIP3    H180560   5.751   4.521  11.093 -1.8391 -0.4545 -0.6399
19715TIP3    H280561   5.675   4.651  11.105  0.1071  0.5663  1.4633
19716TIP3   OH280562   6.207   0.698   2.027 -0.0714  0.2653  0.3889
19716TIP3    H180563   6.122   0.665   2.058 -0.6430  0.6602 -0.7034
19716TIP3    H280564   6.187   0.784   1.989  0.0824 -1.1038 -3.2119
19717TIP3   OH280565   5.703   2.985   2.508 -0.5227  0.0409  0.2722
19717TIP3    H180566   5.637   3.015   2.445 -0.4691 -1.2039 -0.3978
19717TIP3    H280567   5.784   2.981   2.457  0.1540  1.7460  1.1362
19718TIP3   OH280568   0.660   3.014  13.068  0.1193 -0.6828  0.0022
19718TIP3    H180569   0.594   2.961  13.023 -0.1926  1.1496 -1.8440
19718TIP3    H280570   0.657   2.984  13.159 -1.8356 -2.0347 -0.4464
19719TIP3   OH280571   0.850   0.199  17.062 -0.8768  0.4275 -0.1986
19719TIP3    H180572   0.800   0.184  16.981 -0.0579  0.6858 -0.7691
19719TIP3    H280573   0.859   0.113  17.102 -1.4171  0.3196 -0.3022
19720TIP3   OH280574   4.740   1.810   5.453 -0.3364 -0.2445 -0.3741
19720TIP3    H180575   4.805   1.777   5.515  0.7055  0.9855 -0.7881
19720TIP3    H280576   4.711   1.732   5.406 -1.0065 -1.1886  1.4852
19721TIP3   OH280577   3.084   3.355  17.326  0.3283  0.5839 -0.0090
19721TIP3    H180578   3.115   3.300  17.255 -1.3693  0.0781 -0.4017
19721TIP3    H280579   3.111   3.309  17.406  0.2898 -0.0151 -0.3354
19722TIP3   OH280580   6.744   5.937   3.731  0.4548  0.3180 -0.0523
19722TIP3    H180581   6.817   5.883   3.702  0.3591 -0.0297  0.3496
19722TIP3    H280582   6.688   5.946   3.654  0.6893  0.2040 -0.2368
19723TIP3   OH280583   0.942   2.368  12.551 -0.3227 -0.4037 -0.5940
19723TIP3    H180584   0.903   2.349  12.637  1.6664 -0.2206  0.4009
19723TIP3    H280585   0.983   2.285  12.524  2.1690  0.4184  0.3899
19724TIP3   OH280586   2.949   5.511   2.395  0.1952  0.0446  0.8919
19724TIP3    H180587   2.896   5.483   2.320 -0.4680 -0.7342  1.6282
19724TIP3    H280588   2.894   5.492   2.471  0.7916  0.9598  1.5776
19725TIP3   OH280589   1.704   0.507  13.636 -0.5127 -0.5137  0.6908
19725TIP3    H180590   1.749   0.484  13.556 -0.8680 -0.1384  0.3758
19725TIP3    H280591   1.773   0.538  13.695 -0.5083  1.8684 -0.4175
19726TIP3   OH280592   0.716   4.181   5.310 -0.3259 -0.1479  1.0082
19726TIP3    H180593   0.688   4.250   5.371  0.4012  0.2771  0.8683
19726TIP3    H280594   0.667   4.104   5.338 -3.0812  0.9736 -0.3629
19727TIP3   OH280595   2.632   3.775  11.539  0.2915 -0.5310  0.3239
19727TIP3    H180596   2.634   3.691  11.492  0.2319 -2.0111  2.7726
19727TIP3    H280597   2.719   3.781  11.579  0.3241  0.6430  0.0939
19728TIP3   OH280598   4.952   2.141   2.041 -0.0472  0.6421  0.0633
19728TIP3    H180599   5.043   2.170   2.036  0.0464  0.5765  1.2086
19728TIP3    H280600   4.942   2.081   1.967  0.3431  1.9780 -1.1215
19729TIP3   OH280601   5.151   6.706  10.702 -0.7938 -0.1430 -0.4282
19729TIP3    H180602   5.234   6.668  10.675 -0.1614  0.5143  0.5565
19729TIP3    H280603   5.086   6.661  10.647  0.4900  2.0389 -4.0619
19730TIP3   OH280604   1.504   1.341  13.412  0.0569  0.0358 -0.5675
19730TIP3    H180605   1.596   1.357  13.434  0.1197  0.4043 -1.1014
19730TIP3    H280606   1.456   1.368  13.490  0.5392 -2.2149  0.5917
19731TIP3   OH280607   2.321   6.671  12.648 -0.3585 -0.2819  0.1485
19731TIP3    H180608   2.292   6.762  12.642  1.4238  0.3191  0.1500
19731TIP3    H280609   2.355   6.663  12.737  1.6326 -0.2434 -0.5687
19732TIP3   OH280610   1.471   2.384  16.313  0.2879  0.1943 -0.3621
19732TIP3    H180611   1.395   2.348  16.360  0.2320  1.1984  0.3554
19732TIP3    H280612   1.450   2.372  16.221  0.7525 -2.5652 -0.1929
19733TIP3   OH280613   0.275   4.083   1.438  1.1398  0.3796  0.3005
19733TIP3    H180614   0.369   4.068   1.448  1.4129  0.1314 -2.0991
19733TIP3    H280615   0.263   4.101   1.345 -1.1612  0.7539  0.6062
19734TIP3   OH280616   4.242   6.041  13.455  0.5012 -0.1674 -0.2984
19734TIP3    H180617   4.225   6.133  13.438  1.6586 -0.1398 -1.5264
19734TIP3    H280618   4.220   5.997  13.372 -0.5271 -1.0770  0.4272
19735TIP3   OH280619   4.575   2.263  17.012  0.1642  0.0986  0.3078
19735TIP3    H180620   4.615   2.232  16.931  0.7273  2.3984 -0.3693
19735TIP3    H280621   4.510   2.196  17.034  2.9507 -2.7751  0.3934
19736TIP3   OH280622   4.844   3.678   3.803  0.0301 -0.5570  0.1585
19736TIP3    H180623   4.935   3.679   3.772 -0.4007 -2.0776 -1.3511
19736TIP3    H280624   4.839   3.601   3.858 -0.9819 -2.3099 -2.1978
19737TIP3   OH280625   1.359   4.248   0.531 -0.1570 -0.4167 -0.1734
19737TIP3    H180626   1.420   4.175   0.528 -1.2754 -1.4029 -0.0423
19737TIP3    H280627   1.280   4.211   0.572 -0.8144  0.8125 -0.2757
19738TIP3   OH280628   1.288   0.843  10.366 -0.4750 -0.1911 -0.1981
19738TIP3    H180629   1.314   0.909  10.430  0.0270 -0.5616 -0.0143
19738TIP3    H280630   1.193   0.856  10.355 -0.3983  0.4896 -0.0949
19739TIP3   OH280631   1.576   6.767  15.110 -0.1811 -0.7542 -0.3854
19739TIP3    H180632   1.647   6.703  15.109 -0.8255 -1.5282  0.6940
19739TIP3    H280633   1.524   6.744  15.188 -2.3827 -1.0853 -1.8577
19740TIP3   OH280634   3.382   3.295   5.111 -0.3162  0.5223 -0.1445
19740TIP3    H180635   3.453   3.237   5.086  0.5436  0.9760  1.1825
19740TIP3    H280636   3.424   3.380   5.128 -1.0200  0.5768  1.4969
19741TIP3   OH280637   6.486   0.082  11.529 -0.4885 -0.0021 -0.0465
19741TIP3    H180638   6.452   0.004  11.486  0.6660 -0.3262 -0.3906
19741TIP3    H280639   6.466   0.154  11.469 -0.8450 -0.1349 -0.0895
19742TIP3   OH280640   6.655   4.721   5.788  0.0582  0.7504  0.0551
19742TIP3    H180641   6.733   4.713   5.843 -0.3181  0.7764  0.5970
19742TIP3    H280642   6.641   4.632   5.754  0.2407  0.7160  0.0680
19743TIP3   OH280643   2.288   0.807   2.662  0.8934  0.6517  0.4387
19743TIP3    H180644   2.368   0.833   2.618  0.1044 -0.2317 -1.6488
19743TIP3    H280645   2.317   0.746   2.731  2.1359  1.8351  1.0042
19744TIP3   OH280646   5.715   4.794  11.785  0.6757  0.1134  0.0466
19744TIP3    H180647   5.641   4.757  11.832 -0.3780  1.2775 -0.6342
19744TIP3    H280648   5.758   4.851  11.849  0.2354  0.3858  0.1094
19745TIP3   OH280649   1.896   5.039  13.145 -0.2892  0.1356  1.0281
19745TIP3    H180650   1.810   5.073  13.171  0.6325  2.1807  1.6713
19745TIP3    H280651   1.905   5.064  13.053  0.2802  1.4716  1.4285
19746TIP3   OH280652   5.677   0.241  17.142  0.3131 -0.4617  0.2483
19746TIP3    H180653   5.631   0.158  17.157  0.1403 -0.2783  0.7546
19746TIP3    H280654   5.612   0.309  17.159  0.6524 -0.2102  0.5636
19747TIP3   OH280655   6.545   0.828  14.145 -0.2607  0.1986  0.1348
19747TIP3    H180656   6.627   0.792  14.112 -0.5276 -0.4596  0.1680
19747TIP3    H280657   6.562   0.922  14.154  0.4792  0.0753  0.1272
19748TIP3   OH280658   6.386   2.203  15.799  0.3321 -0.3303  0.2529
19748TIP3    H180659   6.298   2.217  15.763  1.5281  2.0511 -2.2098
19748TIP3    H280660   6.443   2.252  15.739  3.1284 -0.1048  2.8911
19749TIP3   OH280661   3.838   3.275   0.401  0.8713 -0.0271  0.1612
19749TIP3    H180662   3.899   3.347   0.388  0.6925  0.3255  1.2115
19749TIP3    H280663   3.893   3.198   0.417  1.0497  0.1022  0.1620
19750TIP3   OH280664   5.507   2.397  11.013 -0.5354  1.1388 -0.2850
19750TIP3    H180665   5.498   2.419  10.920  0.7334  0.7225 -0.5338
19750TIP3    H280666   5.598   2.420  11.034 -0.6944  0.8685  0.7524
19751TIP3   OH280667   3.236   3.895  14.842  0.0317  0.3634 -0.7164
19751TIP3    H180668   3.143   3.880  14.827 -0.0711 -1.5948  1.3307
19751TIP3    H280669   3.243   3.989  14.859 -1.7580  0.3936  0.0396
19752TIP3   OH280670   1.914   1.781   3.424 -0.1125 -0.5431  0.3954
19752TIP3    H180671   1.833   1.823   3.395 -0.1383 -0.1635  0.9909
19752TIP3    H280672   1.903   1.772   3.519  0.2546 -1.1181  0.3826
19753TIP3   OH280673   6.195   6.716   5.154  0.4936 -0.8244  0.3595
19753TIP3    H180674   6.250   6.722   5.233  0.4976 -1.8170  0.4450
19753TIP3    H280675   6.253   6.676   5.088  0.7704  0.8051 -0.4280
19754TIP3   OH280676   4.441   2.112   2.148  0.4035 -0.5152 -0.2016
19754TIP3    H180677   4.536   2.124   2.142  0.6563 -1.2798  1.6648
19754TIP3    H280678   4.420   2.045   2.083  1.0405 -0.0025 -0.9571
19755TIP3   OH280679   1.390   6.598   1.879  0.1576  0.3641  0.0865
19755TIP3    H180680   1.353   6.681   1.849  0.6870  0.6815  0.3022
19755TIP3    H280681   1.360   6.534   1.815  0.1572  0.8070 -0.3593
19756TIP3   OH280682   3.187   4.457  13.951  0.2224  0.1944  0.6952
19756TIP3    H180683   3.155   4.418  13.869  2.4289  2.4255 -1.4182
19756TIP3    H280684   3.282   4.443  13.948  0.5552  1.8925  1.9839
19757TIP3   OH280685   3.524   2.910   5.345 -0.2042 -0.4123  0.1162
19757TIP3    H180686   3.466   2.986   5.351  0.5388  0.1716 -0.0158
19757TIP3    H280687   3.611   2.947   5.334 -0.1147 -1.2707 -2.8820
19758TIP3   OH280688   0.404   6.487   4.597  0.1664 -0.6045 -0.3621
19758TIP3    H180689   0.461   6.559   4.569 -0.1875 -0.4975 -0.8196
19758TIP3    H280690   0.338   6.528   4.652  0.6208 -0.7542  0.3046
19759TIP3   OH280691   1.021   5.233  16.378  0.3617  0.4840  0.3488
19759TIP3    H180692   0.944   5.227  16.320  0.8346 -2.0386 -0.1326
19759TIP3    H280693   0.985   5.227  16.466 -0.1030  0.6351  0.1713
19760TIP3   OH280694   3.550   4.095   3.337 -0.1704  0.0374  0.2751
19760TIP3    H180695   3.615   4.135   3.394 -0.8644  1.0761  0.3711
19760TIP3    H280696   3.466   4.133   3.366 -0.3884  2.1382 -2.6330
19761TIP3   OH280697   2.578   4.200  11.763 -0.0689 -0.3746 -0.1223
19761TIP3    H180698   2.605   4.125  11.817  0.5899  0.0547  0.1684
19761TIP3    H280699   2.544   4.263  11.826 -4.1397 -1.7695 -0.6256
19762TIP3   OH280700   2.549   3.252   1.405 -0.4875 -0.1415  0.9435
19762TIP3    H180701   2.468   3.303   1.410 -2.0783 -2.6364  3.7127
19762TIP3    H280702   2.522   3.162   1.421  2.8463 -1.1021  1.9936
19763TIP3   OH280703   0.655   0.115   2.041 -0.2792  0.0520  0.0444
19763TIP3    H180704   0.609   0.122   2.124 -1.6223  2.5273 -0.7936
19763TIP3    H280705   0.696   0.201   2.029  0.0203 -0.3037 -1.7575
19764TIP3   OH280706   5.795   3.033   4.387 -0.7390 -0.0185  0.1535
19764TIP3    H180707   5.816   2.989   4.469  2.7331  1.1536  0.0877
19764TIP3    H280708   5.829   2.975   4.319 -0.3958  0.5882 -0.2033
19765TIP3   OH280709   4.822   3.697   1.305  0.4296 -0.6112  0.5225
19765TIP3    H180710   4.777   3.741   1.232 -0.9501 -2.5420  0.1266
19765TIP3    H280711   4.915   3.706   1.284  0.0851 -0.8215 -1.3510
19766TIP3   OH280712   4.713   2.564   1.086  0.2031  0.1970 -0.6206
19766TIP3    H180713   4.747   2.528   1.004 -0.4695 -1.4874 -0.2179
19766TIP3    H280714   4.643   2.624   1.058  0.6015  0.3670 -1.2949
19767TIP3   OH280715   4.535   0.150   3.583 -0.1794 -0.7232 -0.0586
19767TIP3    H180716   4.516   0.236   3.545  3.2009 -1.1415 -3.4065
19767TIP3    H280717   4.612   0.165   3.638  0.0424 -1.5015 -0.1496
19768TIP3   OH280718   3.682   4.114  12.666 -0.1107  0.3227 -0.1747
19768TIP3    H180719   3.619   4.118  12.738  0.0953  0.7091 -0.0143
19768TIP3    H280720   3.719   4.026  12.671  1.3913  0.9775  1.4759
19769TIP3   OH280721   2.471   4.588  14.825 -0.2967  0.0778 -0.1791
19769TIP3    H180722   2.425   4.657  14.874 -1.3731 -0.0029 -1.0575
19769TIP3    H280723   2.471   4.513  14.885 -0.9381  0.2111 -0.0023
19770TIP3   OH280724   1.226   1.211  16.425  0.5980  0.1088 -0.2433
19770TIP3    H180725   1.171   1.157  16.482  1.1770  0.2005  0.4100
19770TIP3    H280726   1.226   1.165  16.341  1.3641 -1.1068  0.3918
19771TIP3   OH280727   5.979   5.642   2.446 -0.1634  0.0565 -0.1359
19771TIP3    H180728   5.940   5.556   2.459 -0.4654  0.1967 -0.1032
19771TIP3    H280729   6.050   5.646   2.510  0.2466 -0.4055 -0.5577
19772TIP3   OH280730   1.939   1.804  13.393 -0.0025 -0.3353  0.2615
19772TIP3    H180731   1.932   1.844  13.479 -3.4286  1.1439 -0.5099
19772TIP3    H280732   1.997   1.861  13.344 -0.1832  0.3608  0.8455
19773TIP3   OH280733   1.229   0.701   0.520 -0.0987  0.0248  0.1631
19773TIP3    H180734   1.165   0.638   0.554  0.1449 -1.4967 -1.9639
19773TIP3    H280735   1.314   0.659   0.532  0.2427  0.7489  0.3481
19774TIP3   OH280736   3.914   2.414   1.161  0.5684 -0.1269 -0.0394
19774TIP3    H180737   3.987   2.356   1.139  1.0885  0.9989 -1.4289
19774TIP3    H280738   3.950   2.502   1.153 -1.0248  0.4690 -1.0688
19775TIP3   OH280739   0.573   3.276  14.185  0.2229  0.1873  0.2030
19775TIP3    H180740   0.581   3.371  14.176 -0.4233  0.2230  0.0229
19775TIP3    H280741   0.597   3.259  14.277 -0.5363  0.6247  0.4944
19776TIP3   OH280742   2.284   0.440   3.127  0.4561  0.1328 -0.0217
19776TIP3    H180743   2.270   0.347   3.110  0.1032  0.2050 -0.1438
19776TIP3    H280744   2.199   0.481   3.107  0.6721  0.5082 -0.1924
19777TIP3   OH280745   6.500   1.362  12.975  0.2489 -0.2619  0.2200
19777TIP3    H180746   6.521   1.324  12.890  1.7765  1.5936 -0.2812
19777TIP3    H280747   6.469   1.450  12.956  0.3151  0.0839  1.5713
19778TIP3   OH280748   6.365   1.755   0.218 -0.0798  0.2433  0.0317
19778TIP3    H180749   6.359   1.741   0.313 -0.8995 -0.1933 -0.0723
19778TIP3    H280750   6.438   1.700   0.190  1.1428  1.5322  0.6131
19779TIP3   OH280751   5.545   2.736  11.329  0.3772  0.7450 -0.2396
19779TIP3    H180752   5.625   2.726  11.381  0.5458  2.1501 -0.1969
19779TIP3    H280753   5.575   2.776  11.247 -0.5455  3.6056  0.7305
19780TIP3   OH280754   5.353   2.453   0.289 -0.1589  0.8119  0.1585
19780TIP3    H180755   5.367   2.522   0.224  1.0158  0.3500 -0.1039
19780TIP3    H280756   5.430   2.397   0.281 -0.6437 -0.0022  1.0290
19781TIP3   OH280757   1.527   3.820  11.282  0.3181 -0.0948 -0.4915
19781TIP3    H180758   1.574   3.769  11.216 -0.6345  0.3283 -1.5180
19781TIP3    H280759   1.586   3.893  11.303  1.5774 -1.4025  0.7876
19782TIP3   OH280760   0.284   2.672   2.665 -0.0862 -0.0015  0.2857
19782TIP3    H180761   0.250   2.682   2.754  0.6303  1.2533  0.4476
19782TIP3    H280762   0.215   2.627   2.618 -1.0007  0.4178  1.1822
19783TIP3   OH280763   2.846   0.252   4.585 -0.3686  0.1543 -0.2884
19783TIP3    H180764   2.897   0.253   4.666 -2.1736 -0.0973  0.9193
19783TIP3    H280765   2.817   0.161   4.576 -0.5610  0.2778 -0.9866
19784TIP3   OH280766   6.473   1.497   0.359 -0.1520  0.1870  0.5129
19784TIP3    H180767   6.459   1.562   0.427 -0.3637 -0.3966  1.0319
19784TIP3    H280768   6.415   1.425   0.382  1.7752 -1.2149  1.2922
19785TIP3   OH280769   5.458   1.191   0.682  0.2961 -0.2665  0.1704
19785TIP3    H180770   5.421   1.248   0.614  1.2899 -0.1530 -0.2939
19785TIP3    H280771   5.422   1.225   0.763 -1.7067 -1.0219 -0.3538
19786TIP3   OH280772   1.136   3.738  13.017  0.3324  0.5271  0.2883
19786TIP3    H180773   1.145   3.659  13.070  2.4003  0.5726  0.0971
19786TIP3    H280774   1.107   3.805  13.078 -0.2076 -0.0921  0.7175
19787TIP3   OH280775   1.946   6.007   0.268  0.8404 -0.4290 -0.0606
19787TIP3    H180776   1.971   6.089   0.225 -0.0533 -0.6983 -1.1496
19787TIP3    H280777   1.914   6.034   0.355 -0.1512  0.4750 -0.6777
19788TIP3   OH280778   5.633   1.417   0.743  0.1061 -0.0519  0.8579
19788TIP3    H180779   5.583   1.359   0.799 -2.0309 -0.2313 -1.0722
19788TIP3    H280780   5.689   1.358   0.692 -1.6832 -0.4922 -0.7293
19789TIP3   OH280781   5.934   3.721  17.307 -0.0774  0.3186  0.4665
19789TIP3    H180782   5.919   3.742  17.215 -0.4243  0.7933  0.6284
19789TIP3    H280783   5.851   3.682  17.336  0.7172 -1.8469  0.0242
19790TIP3   OH280784   0.956   6.256  15.402 -0.8254 -0.2475  0.0961
19790TIP3    H180785   0.996   6.184  15.451 -1.1815  0.5961  1.6601
19790TIP3    H280786   1.022   6.324  15.401 -0.3269 -0.7053 -1.7536
19791TIP3   OH280787   0.784   1.307  13.063  0.4808  0.2619 -0.0517
19791TIP3    H180788   0.837   1.365  13.009  1.7822 -1.1187 -0.3411
19791TIP3    H280789   0.834   1.225  13.066  0.7755  0.3972  3.6949
19792TIP3   OH280790   6.642   5.749  16.607  0.6343  0.2397 -0.5431
19792TIP3    H180791   6.686   5.799  16.538  0.6980  0.1234 -0.5858
19792TIP3    H280792   6.554   5.734  16.574  1.2338 -1.5036 -1.4531
19793TIP3   OH280793   3.817   0.482  11.857  0.6768  0.2213  0.6649
19793TIP3    H180794   3.878   0.502  11.928  0.7946  1.1567  0.3035
19793TIP3    H280795   3.851   0.529  11.781  1.1222 -1.5439 -0.3068
19794TIP3   OH280796   3.552   6.054  13.881  0.2903 -0.4625 -0.8000
19794TIP3    H180797   3.466   6.063  13.923  1.9768 -0.7176  3.0232
19794TIP3    H280798   3.593   6.140  13.893  1.1839 -0.8386 -1.1129
19795TIP3   OH280799   0.165   0.438   1.070 -0.2561  0.2474  0.2292
19795TIP3    H180800   0.114   0.484   1.003  1.5696 -1.2326 -2.3522
19795TIP3    H280801   0.125   0.352   1.076 -0.6546  0.5084  1.3664
19796TIP3   OH280802   3.801   1.218  15.933  0.0774  0.0332 -0.7051
19796TIP3    H180803   3.761   1.173  15.858  0.3233  0.8144 -1.3121
19796TIP3    H280804   3.726   1.249  15.984 -0.0932 -0.6683 -0.5090
19797TIP3   OH280805   5.143   1.923   0.972 -0.1616 -0.6927 -0.0853
19797TIP3    H180806   5.157   1.845   1.026  1.7167 -0.0128  0.4840
19797TIP3    H280807   5.223   1.931   0.920 -0.1587  1.0334  0.1306
19798TIP3   OH280808   0.780   4.740   2.125 -0.5047  0.4693 -0.5184
19798TIP3    H180809   0.701   4.717   2.077 -0.4988  0.5906 -0.5851
19798TIP3    H280810   0.803   4.827   2.094 -0.5700  0.5999 -0.2078
19799TIP3   OH280811   6.409   4.389   3.168  0.1749 -0.3322  0.4794
19799TIP3    H180812   6.338   4.365   3.229  0.7730 -0.6506  1.0659
19799TIP3    H280813   6.372   4.371   3.081 -0.2993 -0.9674  0.7967
19800TIP3   OH280814   5.080   0.229   6.172 -0.2066  0.5913  0.2272
19800TIP3    H180815   5.019   0.161   6.200 -1.3689  1.4788 -0.0449
19800TIP3    H280816   5.089   0.286   6.249 -2.2268  2.1914 -0.6006
19801TIP3   OH280817   3.324   3.073  11.551  0.4564  0.2226 -0.1580
19801TIP3    H180818   3.325   3.166  11.530 -1.5365  0.6127  1.2168
19801TIP3    H280819   3.365   3.068  11.638 -0.5144  0.0195  0.3080
19802TIP3   OH280820   3.258   0.052   6.734 -0.2286  0.0932 -0.4072
19802TIP3    H180821   3.301  -0.014   6.678  1.2898 -1.1631  2.0629
19802TIP3    H280822   3.282   0.135   6.694  2.3109 -0.6766 -0.6880
19803TIP3   OH280823   3.171   3.330   6.671  0.2372  0.2330 -0.3646
19803TIP3    H180824   3.187   3.237   6.656 -0.6305  0.3584 -2.4216
19803TIP3    H280825   3.076   3.336   6.682  0.4135  0.7470  1.1543
19804TIP3   OH280826   0.181   6.282   4.542 -0.1532  0.1499  0.3827
19804TIP3    H180827   0.242   6.347   4.507 -1.8548  2.2357  1.0527
19804TIP3    H280828   0.183   6.296   4.637 -1.2418 -0.1187  0.4587
19805TIP3   OH280829   5.201   2.846   6.043  0.1327  0.2335  0.2904
19805TIP3    H180830   5.247   2.763   6.052  1.1850  0.4395 -2.3205
19805TIP3    H280831   5.265   2.911   6.073 -0.6479  0.1855  2.2196
19806TIP3   OH280832   4.367   0.609   3.520  0.2063 -0.4365 -0.8487
19806TIP3    H180833   4.372   0.513   3.520 -0.5309 -0.5145  0.6383
19806TIP3    H280834   4.317   0.631   3.442 -0.2350 -1.3121 -0.8218
19807TIP3   OH280835   0.400   5.716   1.086  0.1467  0.1370  0.7649
19807TIP3    H180836   0.411   5.697   1.179  0.1992  1.1747  0.9766
19807TIP3    H280837   0.317   5.763   1.080 -0.7319 -1.4332  0.0568
19808TIP3   OH280838   3.080   4.450   3.717  0.1457  0.2224  0.2277
19808TIP3    H180839   3.011   4.387   3.734 -0.2658  0.0792 -1.7421
19808TIP3    H280840   3.034   4.529   3.686  0.7784  0.6604  0.3783
19809TIP3   OH280841   6.699   5.837   1.564 -0.1046  0.0266  0.1562
19809TIP3    H180842   6.692   5.742   1.575  1.3247  0.0659  1.7872
19809TIP3    H280843   6.626   5.860   1.506 -0.9027 -1.9564  0.3039
19810TIP3   OH280844   4.989   1.927   1.477  0.1069  0.7187  0.3482
19810TIP3    H180845   5.054   1.876   1.525  1.3063  3.3965  1.8313
19810TIP3    H280846   4.918   1.940   1.540 -0.5084  0.3032 -0.2526
19811TIP3   OH280847   2.432   4.146   2.147  0.1718 -0.4571 -0.7447
19811TIP3    H180848   2.461   4.184   2.230 -2.5615 -1.1557  0.6561
19811TIP3    H280849   2.466   4.205   2.080  2.5126  0.1077  0.8262
19812TIP3   OH280850   2.655   0.446  14.800 -0.2675 -0.2644  0.1890
19812TIP3    H180851   2.693   0.532  14.781  1.8600 -1.1697  0.0681
19812TIP3    H280852   2.626   0.413  14.715  0.5447 -0.3757 -0.0563
19813TIP3   OH280853   5.100   3.420  15.459  0.2626 -0.1216 -0.4686
19813TIP3    H180854   5.050   3.441  15.380  0.0120 -0.1350 -0.3169
19813TIP3    H280855   5.043   3.448  15.531 -0.0246 -1.1633 -0.2584
19814TIP3   OH280856   3.171   5.385   1.691  0.1782 -0.6373 -0.2153
19814TIP3    H180857   3.188   5.478   1.672  0.6473 -1.0953 -2.2765
19814TIP3    H280858   3.193   5.375   1.783 -2.1473  1.8094  0.7504
19815TIP3   OH280859   1.174   6.605  12.337 -0.1421 -0.1423 -0.2018
19815TIP3    H180860   1.207   6.687  12.301  0.5579 -0.6147 -0.6779
19815TIP3    H280861   1.144   6.555  12.261  1.2312 -1.0976 -0.1688
19816TIP3   OH280862   4.349   2.360   3.059  0.5539 -0.1332 -0.7993
19816TIP3    H180863   4.270   2.347   3.111  0.5891  0.9722 -0.4532
19816TIP3    H280864   4.322   2.336   2.970  1.0259 -4.0112 -0.0924
19817TIP3   OH280865   3.018   4.565  15.141  0.2564  0.1777 -0.1884
19817TIP3    H180866   3.048   4.512  15.215 -0.4573 -1.1758 -0.8209
19817TIP3    H280867   3.010   4.502  15.068 -1.5432  0.9594 -0.7231
19818TIP3   OH280868   0.039   4.192  17.061 -0.2853  0.1764  0.3190
19818TIP3    H180869   0.044   4.141  17.142 -1.3930 -0.4842 -0.0116
19818TIP3    H280870   0.032   4.283  17.091 -0.5752 -0.0525  0.9636
19819TIP3   OH280871   1.877   2.759  16.951 -0.3185 -0.6064  0.2935
19819TIP3    H180872   1.888   2.732  16.860  0.1726  1.5973 -0.3556
19819TIP3    H280873   1.945   2.712  16.999  1.0504  0.0817 -0.9115
19820TIP3   OH280874   2.913   2.021   1.526  0.1387  0.5191  0.0848
19820TIP3    H180875   2.926   2.116   1.520 -1.3736  0.9370  2.1994
19820TIP3    H280876   2.999   1.987   1.549  0.8353  1.2675 -1.2544
19821TIP3   OH280877   4.507   2.568  16.033 -0.0073 -0.2542 -0.4251
19821TIP3    H180878   4.588   2.516  16.032 -0.4802 -1.0227 -1.4447
19821TIP3    H280879   4.535   2.657  16.054  0.8586 -0.8586  1.1641
19822TIP3   OH280880   3.238   5.872   1.961  0.0037  0.1185 -0.0747
19822TIP3    H180881   3.212   5.830   1.878 -0.7152 -0.1636  0.2819
19822TIP3    H280882   3.156   5.902   1.998  0.3905  0.7403  0.2775
19823TIP3   OH280883   4.419   4.636  12.928 -0.2267  0.4878  0.3683
19823TIP3    H180884   4.417   4.541  12.935  0.0993  0.4883  0.5001
19823TIP3    H280885   4.332   4.660  12.897 -1.1041  0.3493  2.5978
19824TIP3   OH280886   2.264   0.359  16.622 -0.2232 -0.4286 -0.0033
19824TIP3    H180887   2.252   0.434  16.564 -1.3379  0.1739  0.9701
19824TIP3    H280888   2.358   0.340  16.617  0.3466  1.8638  0.7119
19825TIP3   OH280889   5.678   2.622   2.450 -0.1568 -0.2051  0.6325
19825TIP3    H180890   5.611   2.559   2.423 -0.4667  0.5672 -0.4625
19825TIP3    H280891   5.686   2.682   2.376  2.7117 -1.0395  0.1549
19826TIP3   OH280892   2.887   3.042   0.382  0.3184  0.9899 -0.1643
19826TIP3    H180893   2.819   2.981   0.412  0.1651  0.5215 -1.4006
19826TIP3    H280894   2.951   2.986   0.337  0.3362  1.6977 -1.0327
19827TIP3   OH280895   3.981   6.408  14.900 -0.1109 -0.0987 -0.0016
19827TIP3    H180896   3.977   6.356  14.820  0.3941 -0.9377  0.5002
19827TIP3    H280897   4.048   6.474  14.882  0.6909 -0.8746  0.0440
19828TIP3   OH280898   4.564   1.867   3.828  0.3484 -0.3231  0.4809
19828TIP3    H180899   4.545   1.784   3.785 -3.0345  0.3553  0.3972
19828TIP3    H280900   4.479   1.908   3.840  1.8851  3.3001  0.2612
19829TIP3   OH280901   2.241   3.925  12.953 -0.5156  0.0461 -0.2333
19829TIP3    H180902   2.232   3.850  12.893  1.3111  0.3730 -1.0053
19829TIP3    H280903   2.213   4.000  12.901  1.4816  0.3899 -0.9088
19830TIP3   OH280904   0.904   1.547   4.847 -0.6420  0.2579 -0.2156
19830TIP3    H180905   0.998   1.554   4.828 -0.9095  1.5116 -1.2202
19830TIP3    H280906   0.862   1.601   4.780 -2.0432  0.3055  0.6588
19831TIP3   OH280907   0.430   0.602   3.479  0.3484 -0.3398  0.0468
19831TIP3    H180908   0.441   0.513   3.447  1.2472 -0.6487  1.1322
19831TIP3    H280909   0.506   0.650   3.445 -0.4740  0.2109 -1.0934
19832TIP3   OH280910   5.914   3.117  11.459 -0.5817  0.3124  0.5115
19832TIP3    H180911   6.006   3.142  11.467 -0.5280  0.1502  0.4038
19832TIP3    H280912   5.873   3.194  11.420 -0.5218  0.4450  0.7069
19833TIP3   OH280913   1.618   2.881  10.806 -0.2815  0.3383 -0.7521
19833TIP3    H180914   1.572   2.859  10.724 -0.8496 -0.2002 -0.2984
19833TIP3    H280915   1.688   2.940  10.779 -2.0251  2.2457 -1.2971
19834TIP3   OH280916   0.296   1.539   0.314  0.3175 -0.3573 -0.3924
19834TIP3    H180917   0.251   1.458   0.340 -0.3293  0.6011  1.7743
19834TIP3    H280918   0.366   1.511   0.256 -0.8173 -2.3013 -0.9058
19835TIP3   OH280919   1.565   3.894   4.108  0.0193 -0.3169 -0.6003
19835TIP3    H180920   1.617   3.946   4.047  1.8117  1.5515  2.2751
19835TIP3    H280921   1.483   3.942   4.117  0.5372  0.4985 -0.1068
19836TIP3   OH280922   1.366   3.249  15.179 -0.0881  0.2369 -0.4053
19836TIP3    H180923   1.394   3.206  15.260 -0.6833 -0.1378 -0.3873
19836TIP3    H280924   1.346   3.339  15.205  1.5626  0.6684 -0.5220
19837TIP3   OH280925   2.884   5.281  11.712  0.0834  0.1295  0.4140
19837TIP3    H180926   2.858   5.347  11.777  0.0661  0.4460  0.0886
19837TIP3    H280927   2.803   5.236  11.691 -0.1698  0.9330 -0.3947
19838TIP3   OH280928   6.138   2.577   2.889 -0.2898 -0.4144  0.1972
19838TIP3    H180929   6.180   2.632   2.955 -1.3961  1.1094 -0.3150
19838TIP3    H280930   6.115   2.497   2.936 -0.4050  0.3440  1.4847
19839TIP3   OH280931   0.471   4.503   2.271  0.1312 -0.2044  0.2782
19839TIP3    H180932   0.488   4.448   2.194 -0.4528 -1.0273  0.7233
19839TIP3    H280933   0.557   4.536   2.296  0.2653  0.5762 -1.0877
19840TIP3   OH280934   6.251   2.679   6.011  0.0528 -0.1205  0.4236
19840TIP3    H180935   6.239   2.604   6.070 -0.4778  0.4793  1.0874
19840TIP3    H280936   6.336   2.715   6.036  1.0434 -1.3849 -0.9266
19841TIP3   OH280937   5.398   2.492  14.260 -0.2824 -0.1531  0.3996
19841TIP3    H180938   5.366   2.550  14.191  0.2436  0.4719  0.6736
19841TIP3    H280939   5.454   2.547  14.315 -1.8373 -0.2538  2.1840
19842TIP3   OH280940   5.119   1.724   4.340 -0.0145  0.0483 -0.4039
19842TIP3    H180941   5.032   1.713   4.302  0.0361  0.8820 -0.7880
19842TIP3    H280942   5.106   1.710   4.434 -0.1544 -1.9213 -0.6854
19843TIP3   OH280943   0.353   0.895   3.185 -0.0821 -0.2433  0.3611
19843TIP3    H180944   0.401   0.945   3.251 -0.0200  1.5804 -0.9791
19843TIP3    H280945   0.420   0.844   3.140 -0.3798 -3.3819  3.0871
19844TIP3   OH280946   2.292   2.192  14.435  0.2818 -0.2621 -0.4487
19844TIP3    H180947   2.322   2.139  14.508  1.0229  0.4200 -0.2469
19844TIP3    H280948   2.197   2.183  14.437  0.4142 -3.4812 -1.8564
19845TIP3   OH280949   3.326   5.686   5.855  1.0145  0.4867  0.2094
19845TIP3    H180950   3.320   5.668   5.949  0.2715  1.1378  0.3025
19845TIP3    H280951   3.415   5.663   5.831  0.6863 -1.4158  0.6929
19846TIP3   OH280952   2.039   6.197  14.506  0.2499 -0.2825 -0.3217
19846TIP3    H180953   1.983   6.249  14.564  0.9569 -1.2494  1.2871
19846TIP3    H280954   2.127   6.208  14.541  1.0523  0.7503 -2.4746
19847TIP3   OH280955   6.745   4.182  15.589  0.2154  0.7374 -0.1599
19847TIP3    H180956   6.673   4.206  15.530  1.1504  0.7650 -1.3218
19847TIP3    H280957   6.822   4.179  15.533  0.6051 -2.6154  0.3687
19848TIP3   OH280958   1.344   3.755  14.265  0.3302  0.2861  0.0046
19848TIP3    H180959   1.297   3.799  14.195 -0.7544  0.0355  0.5623
19848TIP3    H280960   1.279   3.699  14.306  0.9248  0.5048  1.2853
19849TIP3   OH280961   4.115   0.922   6.478  0.4462 -0.1656  0.4577
19849TIP3    H180962   4.029   0.955   6.452  0.5473 -0.4180 -0.2323
19849TIP3    H280963   4.170   1.000   6.485  0.2901 -0.0485  0.3754
19850TIP3   OH280964   5.675   0.684  12.488 -0.6295  0.4013 -0.0059
19850TIP3    H180965   5.633   0.624  12.550  0.8732  1.1119  1.8063
19850TIP3    H280966   5.603   0.738  12.455 -1.3980  0.5201  1.7347
19851TIP3   OH280967   6.376   3.663  15.611  0.4603  0.7719  0.8470
19851TIP3    H180968   6.359   3.636  15.701 -2.0838 -0.3558  0.1367
19851TIP3    H280969   6.453   3.613  15.585 -0.0574 -0.5641  1.7659
19852TIP3   OH280970   3.919   2.751  15.256  0.5288  0.4270  0.1392
19852TIP3    H180971   3.988   2.725  15.317  0.1939 -0.3546  0.2055
19852TIP3    H280972   3.860   2.675  15.254  0.6477  0.3528 -1.3314
19853TIP3   OH280973   2.626   2.197   2.041 -0.2773 -0.2972  0.5286
19853TIP3    H180974   2.619   2.290   2.065 -1.3055 -0.3517  0.4980
19853TIP3    H280975   2.614   2.196   1.946 -0.3772 -0.4655  0.5423
19854TIP3   OH280976   3.765   3.218  16.982  0.1729 -0.3422  0.4817
19854TIP3    H180977   3.733   3.306  16.964  2.6817  1.2631  2.9501
19854TIP3    H280978   3.847   3.211  16.932  1.9871  0.3432  3.1553
19855TIP3   OH280979   3.235   0.261   5.300  0.0743 -0.4023 -0.5186
19855TIP3    H180980   3.186   0.330   5.344 -0.2511 -0.4886 -0.7414
19855TIP3    H280981   3.210   0.268   5.207 -1.8082 -2.2917 -0.2396
19856TIP3   OH280982   0.314   4.900  12.528 -0.4085 -0.4779 -0.6970
19856TIP3    H180983   0.229   4.914  12.485 -1.9701 -0.4910  2.1381
19856TIP3    H280984   0.319   4.805  12.540 -1.9521 -0.2976  2.4971
19857TIP3   OH280985   3.382   2.880  16.576  0.2715 -0.5677  0.2185
19857TIP3    H180986   3.420   2.809  16.627  0.2779 -1.0697 -0.4733
19857TIP3    H280987   3.457   2.920  16.531 -0.0645 -2.0523 -1.7628
19858TIP3   OH280988   6.273   1.097  10.889 -0.2239 -0.1102 -0.6637
19858TIP3    H180989   6.267   1.189  10.865 -0.7688  0.4642  1.5235
19858TIP3    H280990   6.192   1.058  10.855 -0.0163  0.2016 -1.5415
19859TIP3   OH280991   0.560   2.138   1.725  0.0603  0.4121  0.3951
19859TIP3    H180992   0.524   2.208   1.671  0.9762  2.5677  2.4226
19859TIP3    H280993   0.655   2.143   1.710  0.1542 -0.2469  0.7560
19860TIP3   OH280994   5.732   4.114   4.474  0.4443 -0.4630  0.5045
19860TIP3    H180995   5.645   4.078   4.464  0.4302 -0.4013  0.4003
19860TIP3    H280996   5.724   4.177   4.546  0.0626  0.6001 -0.4364
19861TIP3   OH280997   0.414   0.301  14.195  0.4209 -0.4856 -0.1567
19861TIP3    H180998   0.347   0.311  14.262  2.5801 -1.0888  2.2304
19861TIP3    H280999   0.425   0.389  14.159 -0.1049  0.0440  0.9366
19862TIP3   OH281000   6.567   0.303   0.319  0.1334 -0.0076 -1.0526
19862TIP3    H181001   6.478   0.337   0.318  0.1211  0.0118 -0.3560
19862TIP3    H281002   6.619   0.374   0.356  0.2144 -0.4741 -0.2265
19863TIP3   OH281003   4.499   3.380  13.606  0.1942  0.0141  0.4816
19863TIP3    H181004   4.515   3.304  13.662  0.9044  0.9968  1.6774
19863TIP3    H281005   4.573   3.439  13.624 -0.8111  1.3875  0.3021
19864TIP3   OH281006   0.083   2.413  16.674 -0.3713 -0.0250  0.1628
19864TIP3    H181007   0.089   2.494  16.724  0.3586 -0.7286  1.2685
19864TIP3    H281008   0.165   2.367  16.692  1.3608  0.9891 -4.1491
19865TIP3   OH281009   6.657   1.536   6.399  0.8361 -0.0776  0.1961
19865TIP3    H181010   6.729   1.593   6.427  0.8687 -0.8261  1.7205
19865TIP3    H281011   6.666   1.457   6.452 -2.0855  0.4688  1.7527
19866TIP3   OH281012   0.528   5.134   4.181 -0.0748 -0.0895 -0.2440
19866TIP3    H181013   0.442   5.168   4.204 -0.5031 -1.9345  1.0445
19866TIP3    H281014   0.589   5.204   4.205 -1.0174  0.2949  1.0939
19867TIP3   OH281015   1.118   3.534   3.140  0.3418  0.6577 -0.0439
19867TIP3    H181016   1.139   3.605   3.201  0.7974  2.1254 -1.8043
19867TIP3    H281017   1.124   3.575   3.054  1.9719 -1.8618 -1.2365
19868TIP3   OH281018   5.713   0.631  15.562  0.3172  0.1434 -0.3833
19868TIP3    H181019   5.773   0.615  15.635 -0.5258  0.7433  0.4831
19868TIP3    H281020   5.707   0.726  15.557  0.6009  0.1105 -1.4510
19869TIP3   OH281021   1.119   2.009   5.849  0.1481 -0.7117 -0.4346
19869TIP3    H181022   1.169   1.950   5.905  0.9415 -2.0871 -2.4755
19869TIP3    H281023   1.109   2.089   5.901 -0.2248 -2.2942  2.0979
19870TIP3   OH281024   4.176   1.528  15.768 -0.8402 -0.5151  0.2047
19870TIP3    H181025   4.097   1.483  15.736 -1.6226  0.8416  0.1695
19870TIP3    H281026   4.213   1.569  15.690 -0.6444 -0.3348  0.3914
19871TIP3   OH281027   2.793   3.262   0.259  0.3175  0.5046 -0.1875
19871TIP3    H181028   2.698   3.253   0.258  0.1805  0.9849  2.2717
19871TIP3    H281029   2.824   3.178   0.293  0.7843  0.4044 -0.8378
19872TIP3   OH281030   4.998   0.909   0.875 -0.2860 -0.7887 -0.2972
19872TIP3    H181031   4.937   0.850   0.829  0.9528 -1.7766 -0.7448
19872TIP3    H281032   5.082   0.895   0.830  0.3819  0.1680  0.6234
19873TIP3   OH281033   4.913   0.710   3.316 -0.0491 -0.4481 -0.1429
19873TIP3    H181034   4.965   0.791   3.317  0.3077 -0.6695  0.4712
19873TIP3    H281035   4.825   0.738   3.292  0.1958  0.0436 -0.4928
19874TIP3   OH281036   4.665   4.867   1.148 -0.1965  0.0076 -0.2202
19874TIP3    H181037   4.609   4.899   1.219  1.0323 -1.3175  1.4502
19874TIP3    H281038   4.610   4.805   1.100 -1.0720  0.9789 -0.4975
19875TIP3   OH281039   5.937   0.989  13.159  0.2318  0.9383 -0.1302
19875TIP3    H181040   5.921   0.978  13.253  1.4161 -0.3455 -0.0465
19875TIP3    H281041   5.851   1.009  13.122 -0.5940 -0.4188  0.9729
19876TIP3   OH281042   6.634   5.671  15.405  0.1220 -0.8329 -0.0436
19876TIP3    H181043   6.674   5.674  15.492  1.0303 -1.5259 -0.4254
19876TIP3    H281044   6.683   5.734  15.353 -1.6394  1.0067  0.4000
19877TIP3   OH281045   1.553   1.494  16.497 -0.0856  0.1700 -0.2426
19877TIP3    H181046   1.473   1.518  16.450 -0.5585 -0.1719  0.3783
19877TIP3    H281047   1.548   1.399  16.506 -0.0738  0.2464  0.6320
19878TIP3   OH281048   5.213   1.687  15.728  0.6362  0.9120 -0.8783
19878TIP3    H181049   5.236   1.710  15.819 -0.6942 -0.2184 -0.2125
19878TIP3    H281050   5.283   1.629  15.700  0.5688  0.5088 -0.2292
19879TIP3   OH281051   0.648   1.155  14.812 -0.2836  0.2927  0.3676
19879TIP3    H181052   0.592   1.186  14.741  0.9178 -0.1191 -0.7957
19879TIP3    H281053   0.612   1.195  14.891 -1.2002  1.3515 -0.5701
19880TIP3   OH281054   0.827   5.948  11.919 -0.0267 -0.0815  0.7469
19880TIP3    H181055   0.842   5.982  11.831 -0.7798  0.7124  0.9202
19880TIP3    H281056   0.736   5.970  11.938  0.0262 -0.5673  1.5867
19881TIP3   OH281057   4.138   0.330   0.588  0.1577 -0.0194  0.0557
19881TIP3    H181058   4.108   0.408   0.541 -0.7928  0.8025  1.9355
19881TIP3    H281059   4.097   0.336   0.674  2.0533 -1.3285  1.1213
19882TIP3   OH281060   5.849   4.391  12.214 -0.3046 -0.3709  0.1738
19882TIP3    H181061   5.818   4.327  12.150  0.7952 -0.0629 -0.6932
19882TIP3    H281062   5.795   4.374  12.292 -0.7519 -1.6477 -0.3767
19883TIP3   OH281063   3.202   6.088  16.857 -0.3296 -0.6472  0.2192
19883TIP3    H181064   3.279   6.122  16.811  0.2131  0.2348  1.7014
19883TIP3    H281065   3.205   5.994  16.842  2.3380 -0.9536  2.0084
19884TIP3   OH281066   2.426   0.001  12.197  0.3699 -0.1961 -0.0551
19884TIP3    H181067   2.420  -0.085  12.239 -0.0286 -0.5476 -0.8083
19884TIP3    H281068   2.460  -0.017  12.110  0.8646  0.4877 -0.0108
19885TIP3   OH281069   1.087   5.253   0.595  0.2753 -0.0008 -0.1184
19885TIP3    H181070   1.135   5.177   0.562 -1.3777 -0.2383 -2.2211
19885TIP3    H281071   1.081   5.238   0.689 -1.8747 -3.6966 -0.6456
19886TIP3   OH281072   1.235   4.347  12.837 -0.5644  0.1300  0.6892
19886TIP3    H181073   1.210   4.436  12.859  1.1842  0.4014  1.7473
19886TIP3    H281074   1.253   4.350  12.743 -3.3825  0.1244  0.0618
19887TIP3   OH281075   3.307   0.766   3.814 -0.2148  0.4391 -0.0369
19887TIP3    H181076   3.273   0.749   3.726  0.2523  1.4516 -0.4279
19887TIP3    H281077   3.235   0.810   3.859 -0.9435 -1.2628  0.5492
19888TIP3   OH281078   6.063   2.799   1.358 -0.2051  0.2412  0.4942
19888TIP3    H181079   5.991   2.847   1.399 -0.0608  0.5817  0.3518
19888TIP3    H281080   6.142   2.832   1.400 -0.1529 -0.4031  0.9150
19889TIP3   OH281081   5.259   2.215  14.156  0.4533  0.1116  0.6543
19889TIP3    H181082   5.304   2.137  14.125  0.6791  0.2135  0.7245
19889TIP3    H281083   5.191   2.182  14.215 -0.3404 -0.1215 -0.3707
19890TIP3   OH281084   0.992   3.853  13.728  0.2175 -0.4515  0.0084
19890TIP3    H181085   0.965   3.939  13.697  1.1013 -0.4787 -0.8922
19890TIP3    H281086   0.931   3.833  13.799 -0.3277  0.6810 -0.1136
19891TIP3   OH281087   6.297   4.045  10.928  0.0095  0.0793 -0.0435
19891TIP3    H181088   6.383   4.080  10.908  0.9701  1.1379  4.7848
19891TIP3    H281089   6.312   3.976  10.993 -2.7146  0.9756  1.7583
19892TIP3   OH281090   6.082   4.172   5.556  0.0531 -0.0988  0.3787
19892TIP3    H181091   6.113   4.208   5.473  0.5484  0.9737  1.0100
19892TIP3    H281092   6.048   4.085   5.534  1.4400 -0.3945 -0.7081
19893TIP3   OH281093   3.318   2.304  16.031 -0.1130  1.3891  0.1245
19893TIP3    H181094   3.307   2.228  15.975 -0.8959  0.9185  0.8806
19893TIP3    H281095   3.410   2.328  16.023  0.8284 -1.1787  1.7714
19894TIP3   OH281096   1.299   1.331  13.621  0.0391 -0.2881  0.2661
19894TIP3    H181097   1.349   1.404  13.657 -0.5765  0.8072 -1.0048
19894TIP3    H281098   1.239   1.306  13.692  0.5289  0.1775  0.8572
19895TIP3   OH281099   0.047   0.869   1.636  0.1546 -0.2941  0.1547
19895TIP3    H181100  -0.036   0.897   1.596  1.8535 -0.5119 -4.0072
19895TIP3    H281101   0.059   0.779   1.605  1.8213 -0.3370  0.8416
19896TIP3   OH281102   1.227   0.415  13.547  0.2157  0.5662  0.1830
19896TIP3    H181103   1.152   0.355  13.549  0.5772  0.1045  0.2379
19896TIP3    H281104   1.224   0.455  13.460  0.5017 -0.2343 -0.2085
19897TIP3   OH281105   2.636   2.097  16.024  0.3070  0.5303 -0.8075
19897TIP3    H181106   2.716   2.146  16.045 -0.1144  1.6304 -1.7005
19897TIP3    H281107   2.667   2.023  15.971  1.3096 -1.9061  2.7924
19898TIP3   OH281108   2.574   2.334  15.868 -0.1985 -0.2194  0.5325
19898TIP3    H181109   2.555   2.292  15.953 -3.3781 -0.3877 -0.1161
19898TIP3    H281110   2.522   2.415  15.870  0.5552  0.3168 -0.8426
19899TIP3   OH281111   5.213   5.589   4.984 -0.0600  0.2545 -0.1292
19899TIP3    H181112   5.211   5.652   5.056  0.7503  0.5635 -0.3619
19899TIP3    H281113   5.197   5.504   5.025 -0.5135  0.5367  0.2801
19900TIP3   OH281114   0.586   1.152   3.237  0.2311  0.7376 -0.4554
19900TIP3    H181115   0.661   1.146   3.296  0.2468 -1.7456 -0.6388
19900TIP3    H281116   0.607   1.092   3.165 -1.6560  0.4302 -0.8056
19901TIP3   OH281117   2.515   1.887  15.525 -0.3081  0.1859  0.2953
19901TIP3    H181118   2.498   1.896  15.431 -0.4725  1.6205  0.4414
19901TIP3    H281119   2.521   1.793  15.539  1.1662 -0.0366 -1.4139
19902TIP3   OH281120   5.994   2.468  13.460 -0.3866 -0.1129 -0.0358
19902TIP3    H181121   6.080   2.465  13.502  0.5707 -1.1408 -1.9676
19902TIP3    H281122   5.985   2.558  13.430 -1.8480  1.1696  3.6882
19903TIP3   OH281123   1.303   4.608   1.274  0.2735 -0.6553  0.1166
19903TIP3    H181124   1.264   4.527   1.242 -0.7919  0.4357 -1.5818
19903TIP3    H281125   1.238   4.644   1.334 -0.0580 -0.2548 -0.4645
19904TIP3   OH281126   3.323   3.044  13.479 -0.2585 -0.0093 -0.2525
19904TIP3    H181127   3.273   2.964  13.459 -0.2707 -0.1101  0.1856
19904TIP3    H281128   3.327   3.047  13.574 -0.5078  0.6746 -0.2597
19905TIP3   OH281129   2.971   0.742   1.612  0.5173 -0.0852 -0.0935
19905TIP3    H181130   3.007   0.654   1.613  1.9888  0.4925  1.0111
19905TIP3    H281131   2.888   0.734   1.564 -0.0086 -2.3078  1.0569
19906TIP3   OH281132   2.709   6.682  12.297  0.1912  0.1463  0.0497
19906TIP3    H181133   2.761   6.610  12.332  1.0147  1.3288  1.3196
19906TIP3    H281134   2.632   6.686  12.355  0.6631  0.9422  0.6355
19907TIP3   OH281135   3.514   4.670   4.254 -0.2408 -0.0944 -0.4069
19907TIP3    H181136   3.491   4.741   4.194  1.0216  0.8637  0.1984
19907TIP3    H281137   3.448   4.675   4.323  0.0778  0.7689 -0.1529
19908TIP3   OH281138   5.880   2.772   5.225 -0.6937  0.2550  0.0945
19908TIP3    H181139   5.854   2.857   5.190 -1.9879  0.0267  0.4659
19908TIP3    H281140   5.883   2.715   5.148 -3.0826 -0.1341  0.2281
19909TIP3   OH281141   2.740   0.517  10.656 -0.7229 -0.3755  0.8429
19909TIP3    H181142   2.670   0.473  10.607  1.0941 -0.9173 -1.4468
19909TIP3    H281143   2.780   0.448  10.708 -0.2878 -0.6227  0.1863
19910TIP3   OH281144   3.932   0.342   2.932 -0.0619  0.2633  0.2567
19910TIP3    H181145   3.951   0.435   2.921 -0.7758  0.7919  2.7230
19910TIP3    H281146   3.980   0.298   2.862 -0.6257  2.5547 -1.6810
19911TIP3   OH281147   6.564   2.417   5.867 -0.2214  0.5078  0.3493
19911TIP3    H181148   6.506   2.440   5.939 -0.5798 -1.4011  0.7133
19911TIP3    H281149   6.637   2.371   5.908  0.7398  1.4346 -0.2823
19912TIP3   OH281150   5.095   3.085  15.474 -0.0473  0.0102  0.0209
19912TIP3    H181151   5.037   3.149  15.432 -1.0615 -1.1002 -0.3283
19912TIP3    H281152   5.104   3.015  15.408  1.5048  0.0420  0.1650
19913TIP3   OH281153   4.215   3.940  14.435  0.0302 -0.6507 -0.3012
19913TIP3    H181154   4.200   4.010  14.498 -0.6482  0.0405 -1.2009
19913TIP3    H281155   4.302   3.957  14.400 -0.0573 -0.3761 -0.3814
19914TIP3   OH281156   3.766   6.532   5.716 -0.2951 -0.7179 -0.4441
19914TIP3    H181157   3.754   6.450   5.667  0.3358 -1.5980  0.8312
19914TIP3    H281158   3.677   6.565   5.728 -0.4809 -0.5747 -1.9938
19915TIP3   OH281159   4.889   2.797  13.900 -0.4453  0.2570  0.2746
19915TIP3    H181160   4.931   2.710  13.906  1.8436  1.3729  4.0863
19915TIP3    H281161   4.941   2.843  13.834 -1.7470 -1.1492 -1.8745
19916TIP3   OH281162   6.425   2.782   2.187  0.0070 -0.0763  0.0530
19916TIP3    H181163   6.385   2.861   2.150 -0.6066 -0.6349 -0.5034
19916TIP3    H281164   6.516   2.786   2.159 -1.0528 -2.1415 -4.5845
19917TIP3   OH281165   3.531   0.340   1.510 -0.0293 -0.0669 -0.0222
19917TIP3    H181166   3.601   0.362   1.449  0.0699 -1.9617 -0.6586
19917TIP3    H281167   3.453   0.328   1.456 -0.0044 -1.4860  0.1963
19918TIP3   OH281168   3.155   0.158  12.383  0.3641 -0.0510 -0.4334
19918TIP3    H181169   3.068   0.197  12.376  0.6236  0.3581 -1.4951
19918TIP3    H281170   3.144   0.068  12.352  0.4696  0.2407 -1.3485
19919TIP3   OH281171   1.486   6.170   5.325 -0.5637 -0.2224  0.1211
19919TIP3    H181172   1.567   6.189   5.373 -1.1769 -0.2648  1.1909
19919TIP3    H281173   1.460   6.255   5.288  0.6093 -0.4341 -1.2859
19920TIP3   OH281174   5.060   0.671   5.741 -0.2951 -0.4614  0.0744
19920TIP3    H181175   5.079   0.742   5.679 -1.5831 -0.3729 -0.2281
19920TIP3    H281176   5.089   0.705   5.825  1.4870 -0.5853 -0.4434
19921TIP3   OH281177   2.992   1.044  16.560  0.2960 -0.2416 -0.2972
19921TIP3    H181178   3.017   1.050  16.468  0.3558  0.4134 -0.2391
19921TIP3    H281179   3.010   1.130  16.596  0.4679 -0.5570  0.3832
19922TIP3   OH281180   3.296   0.134  13.733 -0.5164  0.7239  0.0915
19922TIP3    H181181   3.382   0.095  13.743 -1.5437 -1.3092  1.9984
19922TIP3    H281182   3.306   0.224  13.765  0.4695 -0.1297  2.3642
19923TIP3   OH281183   0.965   6.747  12.478  0.1524 -0.2263 -0.5517
19923TIP3    H181184   1.026   6.676  12.457  1.2144 -0.0851  1.8269
19923TIP3    H281185   0.949   6.739  12.572  0.0870  2.5243 -0.2428
19924TIP3   OH281186   0.305   2.120  12.297  0.2022 -0.3459 -0.4971
19924TIP3    H181187   0.232   2.077  12.252 -0.6620  1.2747 -0.7266
19924TIP3    H281188   0.274   2.209  12.313  1.3482 -0.2110  1.2954
19925TIP3   OH281189   5.557   0.300  11.250 -0.2541 -0.0823 -0.2684
19925TIP3    H181190   5.543   0.378  11.197  0.7008 -0.6574 -1.4206
19925TIP3    H281191   5.497   0.235  11.214 -0.6260 -0.0572  0.2977
19926TIP3   OH281192   0.129   5.469   3.231 -0.1167  0.8669 -0.1860
19926TIP3    H181193   0.152   5.378   3.214 -0.7397  0.3281  1.7038
19926TIP3    H281194   0.136   5.480   3.326 -0.9349  2.5391 -0.2670
19927TIP3   OH281195   0.117   0.430  11.213 -0.1192  0.1593 -0.1235
19927TIP3    H181196   0.136   0.449  11.305 -1.1062 -0.1945  0.1546
19927TIP3    H281197   0.123   0.335  11.206  1.5484  0.2749 -0.8010
19928TIP3   OH281198   3.538   4.534   1.351  0.3642  0.2367  0.1888
19928TIP3    H181199   3.499   4.593   1.416  0.4695  1.1254 -0.5228
19928TIP3    H281200   3.606   4.588   1.309  1.4932 -0.8743  0.5436
19929TIP3   OH281201   5.305   1.164   5.680 -0.1468 -0.1051  0.2086
19929TIP3    H181202   5.393   1.185   5.712 -0.0948  0.2526 -0.1617
19929TIP3    H281203   5.259   1.131   5.757 -0.4073  1.9174  0.9661
19930TIP3   OH281204   4.809   6.026  13.344  0.0395 -0.4689  0.2082
19930TIP3    H181205   4.900   5.995  13.347 -0.4201 -1.8181  0.7699
19930TIP3    H281206   4.759   5.952  13.308 -0.6776  0.7107 -1.3358
19931TIP3   OH281207   3.292   0.941   5.351 -0.2766 -0.0590  0.4110
19931TIP3    H181208   3.234   0.934   5.275  1.1232  0.5133 -0.7642
19931TIP3    H281209   3.250   0.888   5.419 -1.9848  0.0767 -0.4877
19932TIP3   OH281210   1.669   2.867  13.480  0.3971 -0.1763  0.2904
19932TIP3    H181211   1.715   2.818  13.412  0.3373 -1.3251  1.0478
19932TIP3    H281212   1.637   2.946  13.436 -0.3175 -1.2637 -1.2049
19933TIP3   OH281213   5.408   0.221  16.851 -0.0078  0.3941 -0.1534
19933TIP3    H181214   5.414   0.137  16.805  2.1477 -0.1522  0.9718
19933TIP3    H281215   5.415   0.287  16.782  1.6945 -0.4006 -0.7931
19934TIP3   OH281216   1.983   2.538   3.481  0.5053 -0.5458 -0.3636
19934TIP3    H181217   1.907   2.493   3.518  0.1788  2.2135  2.7350
19934TIP3    H281218   2.058   2.501   3.527  0.8502 -1.6245 -1.7377
19935TIP3   OH281219   2.496   3.856  16.358 -0.1924  0.0441 -0.0490
19935TIP3    H181220   2.403   3.850  16.337  0.3347 -1.5039 -2.4223
19935TIP3    H281221   2.515   3.775  16.405  0.1545 -0.1906 -0.5808
19936TIP3   OH281222   3.430   1.737  14.020 -0.1472 -0.3713 -0.0473
19936TIP3    H181223   3.471   1.816  14.055  0.0541  0.2054 -1.5114
19936TIP3    H281224   3.499   1.671  14.021 -0.1227 -0.3449  0.5300
19937TIP3   OH281225   4.452   4.929   4.303 -0.5486 -0.0817 -0.1342
19937TIP3    H181226   4.363   4.895   4.297 -0.6136  0.1254 -0.3251
19937TIP3    H281227   4.471   4.932   4.397 -0.1891 -1.5743 -0.1304
19938TIP3   OH281228   6.296   0.138   4.739  0.3250 -0.8287 -0.2576
19938TIP3    H181229   6.362   0.204   4.718  0.3954  0.7278  3.9124
19938TIP3    H281230   6.212   0.179   4.718  0.4394 -1.5248 -2.3907
19939TIP3   OH281231   3.451   5.408   4.921 -0.0874 -0.5025  0.0693
19939TIP3    H181232   3.407   5.420   4.837 -0.1936  0.2940  0.2329
19939TIP3    H281233   3.380   5.411   4.985  0.3088  2.6854  0.5124
19940TIP3   OH281234   4.375   0.177   0.527  0.7141  0.2813  0.3420
19940TIP3    H181235   4.343   0.154   0.440  2.1467 -1.6649  0.2465
19940TIP3    H281236   4.320   0.250   0.555 -2.4394 -1.5724 -0.5460
19941TIP3   OH281237   4.754   5.871  12.448 -0.6050 -0.1876  0.5356
19941TIP3    H181238   4.837   5.850  12.490  0.2006  2.8732  0.7171
19941TIP3    H281239   4.771   5.864  12.354 -0.2717 -0.0029  0.5827
19942TIP3   OH281240   2.906   2.528  11.656 -0.2504  0.7508 -0.9858
19942TIP3    H181241   2.950   2.498  11.736 -0.5514  1.8708 -0.3777
19942TIP3    H281242   2.878   2.617  11.677  0.7982  1.5529 -2.8057
19943TIP3   OH281243   1.972   3.653   5.326  0.2607 -0.2427 -0.7894
19943TIP3    H181244   2.029   3.581   5.352  1.2577  0.4636 -0.9614
19943TIP3    H281245   2.031   3.727   5.312 -0.7038  0.5281 -0.9324
19944TIP3   OH281246   4.774   1.049   5.121  0.4648  0.6872  0.5691
19944TIP3    H181247   4.832   0.984   5.081 -0.0255  0.1439  0.7382
19944TIP3    H281248   4.795   1.045   5.214  0.0773  0.4113  0.6454
19945TIP3   OH281249   0.996   4.230  13.241 -0.3699  0.3907  0.1575
19945TIP3    H181250   1.019   4.303  13.299 -0.3720  0.9303 -0.5034
19945TIP3    H281251   1.021   4.261  13.153 -0.3388 -0.4202 -0.1242
19946TIP3   OH281252   0.034   3.702  13.905 -0.1769  0.2665 -0.3508
19946TIP3    H181253   0.101   3.659  13.853 -1.2034 -0.1969 -1.3410
19946TIP3    H281254   0.075   3.783  13.936  0.7439  0.1178 -1.1329
19947TIP3   OH281255   2.919   3.694  15.622 -0.0905  0.2253 -0.1846
19947TIP3    H181256   2.825   3.679  15.624  0.0877 -0.9863 -0.0563
19947TIP3    H281257   2.936   3.727  15.533 -0.6886  0.9569 -0.0388
19948TIP3   OH281258   4.843   4.505  13.122  0.4274  0.0517  0.9496
19948TIP3    H181259   4.818   4.416  13.096 -0.3412  0.9035 -1.5331
19948TIP3    H281260   4.786   4.525  13.196 -0.1927 -1.1017  0.8122
19949TIP3   OH281261   5.464   2.333  16.919  0.3585 -0.0826  0.9162
19949TIP3    H181262   5.517   2.272  16.970 -0.0906 -0.5906  0.7770
19949TIP3    H281263   5.525   2.368  16.854  0.7214 -0.0550  1.2674
19950TIP3   OH281264   3.836   2.887   3.788 -0.1519  0.4299 -0.2458
19950TIP3    H181265   3.873   2.842   3.712  1.3854  0.3094  0.5371
19950TIP3    H281266   3.884   2.852   3.863 -0.3210  1.9081  0.6002
19951TIP3   OH281267   1.103   2.139  13.662  0.0820 -0.5313  0.2877
19951TIP3    H181268   1.087   2.132  13.568  2.2578 -1.2875 -0.0726
19951TIP3    H281269   1.088   2.232  13.682  1.4780  0.0591 -1.2037
19952TIP3   OH281270   0.903   6.690  16.911 -0.3675  0.0194  0.1271
19952TIP3    H181271   0.945   6.681  16.997 -0.6721 -0.9655  0.1907
19952TIP3    H281272   0.815   6.655  16.924 -0.5982  0.3687 -0.4570
19953TIP3   OH281273   0.019   5.138   3.722 -0.3720  0.1789 -0.4024
19953TIP3    H181274   0.012   5.092   3.638  0.9597 -0.0125 -0.4232
19953TIP3    H281275  -0.071   5.167   3.740 -0.9076 -0.8156 -1.2968
19954TIP3   OH281276   0.668   1.452  11.133  0.2486  0.1403 -0.3411
19954TIP3    H181277   0.622   1.415  11.058  0.2787 -2.1074  0.6801
19954TIP3    H281278   0.614   1.430  11.209  0.2282  2.3378  0.3558
19955TIP3   OH281279   1.010   4.894   0.736 -0.0076  0.3790 -0.1807
19955TIP3    H181280   0.952   4.825   0.704 -1.0370  1.6180 -1.1014
19955TIP3    H281281   1.087   4.890   0.678  1.3145 -1.8149  1.5638
19956TIP3   OH281282   2.182   3.680  12.819 -0.2793  0.1165 -0.2396
19956TIP3    H181283   2.256   3.624  12.841 -0.7424  0.7270  3.5027
19956TIP3    H281284   2.130   3.628  12.757  1.8913 -1.3510 -0.9556
19957TIP3   OH281285   1.543   2.583  10.957 -0.0700 -0.4623  0.4493
19957TIP3    H181286   1.509   2.634  11.030 -0.5952 -0.5406  0.2702
19957TIP3    H281287   1.624   2.627  10.931 -0.9319  0.7789 -0.2391
19958TIP3   OH281288   4.382   2.925  13.956  0.3076  0.0669 -0.3074
19958TIP3    H181289   4.467   2.900  13.994  1.1905 -1.7846 -3.1770
19958TIP3    H281290   4.405   2.969  13.874 -1.5108  0.3586 -0.7045
19959TIP3   OH281291   6.040   3.594   3.574  0.2256 -0.2921 -0.5724
19959TIP3    H181292   6.102   3.527   3.604  0.4314 -0.1413 -0.6584
19959TIP3    H281293   6.095   3.658   3.529  0.3923  1.1326  1.4907
19960TIP3   OH281294   4.956   4.764  15.716  0.5866 -0.2476 -0.2657
19960TIP3    H181295   4.947   4.816  15.797 -0.0363 -0.4929 -0.1758
19960TIP3    H281296   4.998   4.824  15.654 -0.9054  0.6773 -0.4351
19961TIP3   OH281297   3.443   5.315  10.847 -0.1508 -0.2095  0.0247
19961TIP3    H181298   3.493   5.238  10.874 -0.3695  0.1431  1.4884
19961TIP3    H281299   3.355   5.300  10.882  0.4091  1.8128  2.5771
19962TIP3   OH281300   3.385   1.102  11.829  0.3174 -0.5622  0.3044
19962TIP3    H181301   3.464   1.149  11.854  0.7533 -1.0901 -0.0680
19962TIP3    H281302   3.339   1.087  11.912  0.3863  0.1350  0.4699
19963LIG     O181303   5.444   1.996   3.543  0.5002 -0.0336  0.2217
19963LIG     O281304   5.671   2.082   3.519  0.1246  0.2987  0.1239
19963LIG     O381305   5.706   1.887   3.390 -0.5193  0.2077 -0.1243
19963LIG     O481306   5.472   2.153   3.816  0.8616 -0.4604  0.3668
19963LIG     O581307   5.528   1.879   3.868 -0.4558  0.4097 -0.2468
19963LIG     O681308   5.706   2.238   3.255  0.0206 -0.2174  0.1485
19963LIG     O781309   5.921   2.184   3.447  0.2064 -0.0179  0.0910
19963LIG     O881310   6.073   1.940   3.386 -0.0281  0.3566 -0.3519
19963LIG     O981311   5.457   2.251   3.374  0.0762 -0.2875 -1.1257
19963LIG    O1081312   5.560   1.690   3.541 -0.4950  0.7636 -0.3489
19963LIG    O1181313   5.910   1.666   3.285 -0.2345  0.4003  0.3120
19963LIG     C181314   5.539   2.099   3.576 -0.0720 -0.1006  0.1458
19963LIG     C281315   5.571   2.085   3.727 -0.3894  0.6434  0.4803
19963LIG     C381316   5.557   1.930   3.737 -0.4245 -0.3725 -0.8340
19963LIG     C481317   5.445   1.894   3.646  1.1264  0.4746  0.1031
19963LIG     C581318   5.668   2.025   3.387  0.5451 -0.6688 -0.6915
19963LIG     C681319   5.748   2.102   3.279  0.4240 -0.0056 -0.6733
19963LIG     C781320   5.890   2.104   3.332 -0.0072 -0.5722 -0.0054
19963LIG     C881321   5.941   1.953   3.340  0.2889 -0.0723 -0.4315
19963LIG     C981322   5.845   1.864   3.417  0.6062  0.4185  0.2213
19963LIG    C1081323   5.482   2.237   3.516  0.3776 -0.5066  0.1778
19963LIG    C1181324   5.450   1.740   3.613  0.3983  0.3691 -0.0358
19963LIG    C1281325   5.884   1.719   3.417 -0.0350  0.5268  0.5950
19963LIG     H181326   5.673   2.110   3.757  0.6425 -0.0965 -2.0855
19963LIG     H281327   5.648   1.881   3.699 -1.2707 -0.8230 -2.3837
19963LIG     H381328   5.350   1.905   3.700 -0.3165 -0.1311 -2.1571
19963LIG     H481329   5.568   2.031   3.339 -0.5136  0.3412  1.5183
19963LIG     H581330   5.724   2.039   3.191 -0.6267 -1.2345  0.4599
19963LIG     H681331   5.954   2.144   3.251 -2.1050  0.1060 -1.4116
19963LIG     H781332   5.947   1.919   3.235  0.4679 -0.8721 -0.1718
19963LIG     H881333   5.849   1.897   3.523  0.2048 -0.7170  0.5992
19963LIG     H981334   5.378   2.241   3.555  1.0036 -0.3930  1.9068
19963LIG    H1081335   5.531   2.327   3.560  0.1674  0.4986 -1.5379
19963LIG    H1181336   5.443   1.684   3.709 -1.0776 -2.7654 -1.8082
19963LIG    H1281337   5.352   1.716   3.567  0.1381 -2.2537  1.6363
19963LIG    H1381338   5.985   1.721   3.462 -0.2504  1.2164  1.0711
19963LIG    H1481339   5.815   1.659   3.480 -0.8483  0.6590 -0.1452
19963LIG    H1581340   5.514   2.232   3.852 -1.1518  1.4848 -1.2649
19963LIG    H1681341   5.486   1.950   3.917 -0.0036  2.5639 -2.7401
19963LIG    H1781342   5.742   2.265   3.170 -3.1768  0.9328 -1.0071
19963LIG    H1881343   5.886   2.270   3.423  0.5610 -0.2931 -1.6026
19963LIG    H1981344   6.082   1.988   3.468  2.0747 -1.2383  0.4509
19963LIG    H2081345   5.540   2.272   3.329  1.3957  1.2245  1.7194
19963LIG    H2181346   5.577   1.755   3.472  2.7704 -0.6210 -1.0624
19963LIG    H2281347   5.921   1.571   3.283  2.9565  0.5123  3.3763
   6.77137   6.77137  17.32670
